<LesHouchesEvents version="3.0">
  <!--
  <scalesfunctionalform>
    muR  H_T/2 := sum_i mT(i)/2, i=final state
    muF1 H_T/2 := sum_i mT(i)/2, i=final state
    muF2 H_T/2 := sum_i mT(i)/2, i=final state
    QES  H_T/2 := sum_i mT(i)/2, i=final state
  </scalesfunctionalform>
HERWIG6   
  -->
  <header>
      351
  </header>
  <init>
   2212   2212 0.65000000D+04 0.65000000D+04 -1 -1   244800   244800 -4   1
 0.94190361D-03 0.30935297D-05 0.29152272D-05     66
  </init>
  <event>
  9     66 0.29152272E-05 0.19977989E+03 0.75467711E-02 0.10565182E+00
        2 -1    0    0  501    0 0.00000000E+00 0.00000000E+00 0.82492947E+03 0.82492953E+03 0.32000000E+00 0.0000E+00 0.9000E+01
       -2 -1    0    0    0  502 0.00000000E+00 0.00000000E+00 -.59336522E+02 0.59337385E+02 0.32000000E+00 0.0000E+00 0.9000E+01
       25  2    1    2    0    0 0.37506939E+02 -.10644381E+02 0.43647399E+03 0.53112122E+03 0.30010021E+03 0.0000E+00 0.0000E+00
       23  2    3    3    0    0 0.12468934E+03 0.38356653E+02 0.17389459E+03 0.23571461E+03 0.91122914E+02 0.0000E+00 0.0000E+00
       23  1    1    2    0    0 -.55034461E+02 0.19590979E+02 0.28178751E+03 0.30188085E+03 0.91188000E+02 0.0000E+00 0.9000E+01
      -13  1    4    4    0    0 0.73041493E+02 0.65136559E+02 0.13057589E+03 0.16318059E+03 0.10565837E+00 0.0000E+00 0.9000E+01
       13  1    4    4    0    0 0.51647845E+02 -.26779906E+02 0.43318704E+02 0.72534023E+02 0.10565837E+00 0.0000E+00 0.9000E+01
       23  1    3    3    0    0 -.87182399E+02 -.49001034E+02 0.26257940E+03 0.29540661E+03 0.91188000E+02 0.0000E+00 0.9000E+01
       21  1    1    2  501  502 0.17527522E+02 -.89465978E+01 0.47331449E+02 0.51264844E+02 0.75000000E+00 0.0000E+00 0.9000E+01
#aMCatNLO 2  0  0  2  1 0.19678812D+02 0.00000000D+00  -5  7  0 0.00000000D+00 0.00000000D+00 0.00000000D+00 0.00000000D+00 0.00000000D+00
  <mgrwgt>
 0.8012004170D-03    2    2    0
 0.210716408289790D+03 0.000000000000000D+00 0.000000000000000D+00 0.210716408289790D+03
 0.210716408289790D+03 0.000000000000000D+00 0.000000000000000D+00 -.210716408289790D+03
 0.113731958173377D+03 -.502533408373869D+02 0.171505392236142D+02 0.424283832472013D+02
 0.101652347233074D+03 0.772303088914180D+02 0.629985807125700D+02 -.199964475527877D+02
 0.722574684634722D+02 0.545933602086311D+02 -.282835284491955D+02 -.379571967924908D+02
 0.133791042709656D+03 -.815703282626622D+02 -.518655914869887D+02 0.155252610980772D+02
 0.000000000000000D+00 0.000000000000000D+00 -.000000000000000D+00 0.000000000000000D+00
 0.224346522506793D+03 0.000000000000000D+00 0.000000000000000D+00 0.224346522506793D+03
 0.218170650228147D+03 0.000000000000000D+00 0.000000000000000D+00 -.218170650228147D+03
 0.116310023484197D+03 -.550344947184359D+02 0.195909904039956D+02 0.424283832472013D+02
 0.998884739579746D+02 0.730415183389974D+02 0.651366710360261D+02 -.199964475527877D+02
 0.694652156906339D+02 0.516478197620847D+02 -.267800320467625D+02 -.379571967924908D+02
 0.136228304468931D+03 -.871823649892582D+02 -.490010315931833D+02 0.155252610980772D+02
 0.206251551332039D+02 0.175275216066120D+02 -.894659780007587D+01 0.617587227864641D+01
-.126044184827D-07 0.000000000000D+00 0.000000000000D+00 0.114368624939D-06 0.000000000000D+00  7 2 -2 23 -13 13 23 21 2 0.11919809D+00 0.88165913D-02 0.39912003D+05 0.39912003D+05 0.39912003D+05 0.11560045D+01  1  2  8  2  7  2       -2 -.543880338207D-05 0.100000000000D+01
0.214069196097D-05 0.000000000000D+00 0.000000000000D+00 0.114368624939D-06 0.209620019870D-08  7 2 -2 23 -13 13 23 21 2 0.12690837D+00 0.91284845D-02 0.43965525D+05 0.43965525D+05 0.43965525D+05 0.11522413D+01  1  2  1  2  7  2       -2 0.806639220390D-03 0.100000000000D+01
  </mgrwgt>
  </event>
  <event>
  7     66 0.29152272E-05 0.49707548E+03 0.75467711E-02 0.84185926E-01
        2 -1    0    0  501    0 0.00000000E+00 0.00000000E+00 0.17051480E+04 0.17051481E+04 0.32000000E+00 0.0000E+00 0.9000E+01
       -2 -1    0    0    0  501 0.00000000E+00 0.00000000E+00 -.47977909E+03 0.47977920E+03 0.32000000E+00 0.0000E+00 0.9000E+01
       25  2    1    2    0    0 -.40145538E+03 0.25538073E+03 -.26194805E+03 0.62069811E+03 0.30043904E+03 0.0000E+00 0.0000E+00
       23  1    1    2    0    0 0.40145538E+03 -.25538073E+03 0.14873170E+04 0.15642292E+04 0.91188000E+02 0.0000E+00 0.9000E+01
      -13  1    3    3    0    0 -.30665535E+03 0.19846376E+03 -.15226180E+03 0.39573859E+03 0.10565837E+00 0.0000E+00 0.9000E+01
       13  1    3    3    0    0 -.30455529E+01 0.29846380E+01 0.28098718E+02 0.28420637E+02 0.10565837E+00 0.0000E+00 0.9000E+01
       23  1    3    3    0    0 -.91754478E+02 0.53932334E+02 -.13778497E+03 0.19653888E+03 0.91188000E+02 0.0000E+00 0.9000E+01
#aMCatNLO 1  0  0  1  2 0.12576882D+04 0.00000000D+00  -5  7  0 0.00000000D+00 0.00000000D+00 0.00000000D+00 0.00000000D+00 0.00000000D+00
  <mgrwgt>
 0.6674909400D-03    5    2    0
 0.904485777595843D+03 0.000000000000000D+00 0.000000000000000D+00 0.904485777595843D+03
 0.904485777595843D+03 0.000000000000000D+00 0.000000000000000D+00 -.904485777595843D+03
 0.881835236752130D+03 0.401455382258444D+03 -.255380732927698D+03 0.736839460628110D+03
 0.581124150730659D+03 -.306655461427751D+03 0.198463838056208D+03 -.451973242043113D+03
 0.152933910397340D+02 -.304544628761732D+01 0.298456958403926D+01 0.146869129091678D+02
 0.330718776669163D+03 -.917544745430754D+02 0.539323252874505D+02 -.299553131494165D+03
 0.000000000000000D+00 0.000000000000000D+00 0.000000000000000D+00 0.000000000000000D+00
 0.302474973982884D+04 0.000000000000000D+00 0.000000000000000D+00 0.302474973982884D+04
 0.130723203098552D+04 0.000000000000000D+00 0.000000000000000D+00 -.130723203098552D+04
 0.895642863792523D+03 -.103904574561307D+03 -.490032995588035D+03 0.736839460628110D+03
 0.843036543505111D+03 -.711562721169990D+03 0.104544728820669D+02 -.451973242043113D+03
 0.196729464963815D+02 -.129868271811324D+02 -.163148178519021D+01 0.146869129091678D+02
 0.444862950408626D+03 -.312262366024899D+03 -.484554380729244D+02 -.299553131494165D+03
 0.212876646661172D+04 0.114071648893733D+04 0.529665442564082D+03 0.171751770884333D+04
0.301819793870D-03 0.000000000000D+00 0.000000000000D+00 0.118730174561D-08 0.000000000000D+00  7 2 -2 23 -13 13 23 21 0 0.26233048D+00 0.73812178D-01 0.24708403D+06 0.24708403D+06 0.24708403D+06 0.10908426D+01  1  2  2  1  7  1        2 0.646844324617D-03 0.100000000000D+01
-.946199676818D-05 0.000000000000D+00 -.115906747944D-05 0.118730174561D-08 0.000000000000D+00  7 2 -2 23 -13 13 23 21 2 0.26233048D+00 0.73812178D-01 0.24708403D+06 0.24708403D+06 0.24708403D+06 0.10908426D+01  1  2  3  1  7  1        2 -.241300963487D-04 0.100000000000D+01
0.175545036897D-04 0.000000000000D+00 0.000000000000D+00 0.118730174561D-08 0.000000000000D+00  7 2 -2 23 -13 13 23 21 2 0.26233048D+00 0.73812178D-01 0.24708403D+06 0.24708403D+06 0.24708403D+06 0.10908426D+01  1  2 15  1  7  1        2 0.447677034526D-04 0.100000000000D+01
0.289376215468D-04 0.000000000000D+00 -.812813310276D-04 0.118730174561D-08 0.000000000000D+00  7 2 -2 23 -13 13 23 21 2 0.89226588D+00 0.73812178D-01 0.24708403D+06 0.24708403D+06 0.24708403D+06 0.10908426D+01  1  2  5  1  7  1        2 0.900237976188D-08 0.100000000000D+01
0.703214951380D-05 0.000000000000D+00 -.115844761184D-04 0.118730174561D-08 0.000000000000D+00  7 21 -2 23 -13 13 23 -2 2 0.89226588D+00 0.73812178D-01 0.24708403D+06 0.24708403D+06 0.24708403D+06 0.10908426D+01  1  2  5  3  7  1        2 0.585951188757D-11 0.100000000000D+01
  </mgrwgt>
  </event>
  <event>
  8     66 0.29152272E-05 0.22661046E+03 0.75467711E-02 0.96517092E-01
        2 -1    0    0  501    0 0.00000000E+00 0.00000000E+00 0.27085747E+03 0.27085766E+03 0.32000000E+00 0.0000E+00 0.9000E+01
       -2 -1    0    0    0  501 0.00000000E+00 0.00000000E+00 -.43780700E+03 0.43780712E+03 0.32000000E+00 0.0000E+00 0.9000E+01
       25  2    1    2    0    0 0.20530289E+03 0.17390592E+03 -.12051705E+03 0.42080410E+03 0.30026518E+03 0.0000E+00 0.0000E+00
       23  2    3    3    0    0 0.39894756E+02 0.18176214E+03 -.10025890E+03 0.23067989E+03 0.92370424E+02 0.0000E+00 0.0000E+00
       23  1    1    2    0    0 -.20530289E+03 -.17390592E+03 -.46432470E+02 0.28786068E+03 0.91188000E+02 0.0000E+00 0.9000E+01
      -13  1    4    4    0    0 0.56548097E+02 0.17848971E+03 -.10267297E+03 0.21353692E+03 0.10565837E+00 0.0000E+00 0.9000E+01
       13  1    4    4    0    0 -.16653341E+02 0.32724294E+01 0.24140688E+01 0.17142971E+02 0.10565837E+00 0.0000E+00 0.9000E+01
       23  1    3    3    0    0 0.16540813E+03 -.78562210E+01 -.20258157E+02 0.19012421E+03 0.91188000E+02 0.0000E+00 0.9000E+01
#aMCatNLO 1  0  0  2  1 0.15574042D+03 0.00000000D+00  -5  7  0 0.00000000D+00 0.00000000D+00 0.00000000D+00 0.00000000D+00 0.00000000D+00
  <mgrwgt>
 0.4855738221D-03    9    2    0
 0.344359413616967D+03 0.000000000000000D+00 0.000000000000000D+00 0.344359413616967D+03
 0.344359413616967D+03 0.000000000000000D+00 0.000000000000000D+00 -.344359413616967D+03
 0.284941893798703D+03 -.205302889988472D+03 -.173905921840357D+03 0.220019364790538D+02
 0.194832842091491D+03 0.565481919078766D+02 0.178489942311211D+03 -.538839386379516D+02
 0.182244007176831D+02 -.166534363768673D+02 0.327220037918923D+01 0.663961919380566D+01
 0.190719690626058D+03 0.165408134457463D+03 -.785622085004324D+01 0.252423829650921D+02
 0.000000000000000D+00 0.000000000000000D+00 0.000000000000000D+00 -.000000000000000D+00
 0.392986139701976D+03 0.000000000000000D+00 0.000000000000000D+00 0.392986139701976D+03
 0.504906180679193D+03 0.000000000000000D+00 0.000000000000000D+00 -.504906180679193D+03
 0.352667297122343D+03 -.263997652543999D+03 -.214196464391943D+03 0.220019364790538D+02
 0.166367330939343D+03 0.232981091096109D+02 0.155665693306711D+03 -.538839386379516D+02
 0.213705357793191D+02 -.202983264273629D+02 0.770195237990810D+00 0.663961919380566D+01
 0.165702972753442D+03 0.132597842676304D+03 -.303785788864720D+02 0.252423829650921D+02
 0.191784183786721D+03 0.128400027185447D+03 0.881391547337124D+02 -.111920040977217D+03
0.128342114709D-04 0.000000000000D+00 0.000000000000D+00 0.242596535898D-06 0.000000000000D+00  7 2 -2 23 -13 13 23 21 0 0.41670404D-01 0.67354946D-01 0.11469680D+06 0.11469680D+06 0.11469680D+06 0.11168677D+01  1  2  2  2  7  2       -2 0.396847441808D-03 0.100000000000D+01
-.712771066670D-06 0.000000000000D+00 -.492867513738D-07 0.242596535898D-06 0.000000000000D+00  7 2 -2 23 -13 13 23 21 2 0.41670404D-01 0.67354946D-01 0.11469680D+06 0.11469680D+06 0.11469680D+06 0.11168677D+01  1  2  3  2  7  2       -2 -.274920995050D-04 0.100000000000D+01
0.829994299658D-06 0.000000000000D+00 0.000000000000D+00 0.242596535898D-06 0.000000000000D+00  7 2 -2 23 -13 13 23 21 2 0.41670404D-01 0.67354946D-01 0.11469680D+06 0.11469680D+06 0.11469680D+06 0.11168677D+01  1  2 15  2  7  2       -2 0.320134850330D-04 0.100000000000D+01
0.657137956866D-05 0.000000000000D+00 0.000000000000D+00 0.242596535898D-06 0.000000000000D+00  7 2 -2 23 -13 13 23 21 2 0.41670404D-01 0.10174587D+00 0.18028610D+06 0.18028610D+06 0.18028610D+06 0.11013036D+01  1  2 12  2  7  2       -2 0.962074626586D-04 0.100000000000D+01
-.912863480320D-05 0.000000000000D+00 0.000000000000D+00 0.242596535898D-06 0.000000000000D+00  7 2 -2 23 -13 13 23 21 2 0.41670404D-01 0.67354946D-01 0.11469680D+06 0.11469680D+06 0.11469680D+06 0.11168677D+01  1  2  4  2  7  2       -2 -.352098097257D-03 0.100000000000D+01
-.119919246634D-04 0.000000000000D+00 -.460386650511D-05 0.242596535898D-06 0.000000000000D+00  7 2 -2 23 -13 13 23 21 2 0.41670404D-01 0.10867235D+00 0.11469680D+06 0.11469680D+06 0.11469680D+06 0.11168677D+01  1  2  5  2  7  2       -2 -.155264618605D-03 0.100000000000D+01
0.131424554071D-04 0.000000000000D+00 0.412306317759D-05 0.242596535898D-06 0.000000000000D+00  7 2 -2 23 -13 13 23 21 2 0.41670404D-01 0.67354946D-01 0.11469680D+06 0.11469680D+06 0.11469680D+06 0.11168677D+01  1  2  6  2  7  2       -2 0.506914083199D-03 0.100000000000D+01
0.319966339502D-06 0.000000000000D+00 0.000000000000D+00 0.242596535898D-06 0.000000000000D+00  7 2 21 23 -13 13 23 2 2 0.41670404D-01 0.10174587D+00 0.18028610D+06 0.18028610D+06 0.18028610D+06 0.11013036D+01  1  2 12  4  7  2       -2 0.437245122611D-04 0.100000000000D+01
-.455758359469D-06 0.000000000000D+00 -.250724516830D-06 0.242596535898D-06 0.000000000000D+00  7 2 21 23 -13 13 23 2 2 0.41670404D-01 0.10867235D+00 0.11469680D+06 0.11469680D+06 0.11469680D+06 0.11168677D+01  1  2  5  4  7  2       -2 -.552783474728D-04 0.100000000000D+01
  </mgrwgt>
  </event>
  <event>
  8     66 0.29152272E-05 0.21144021E+03 0.75467711E-02 0.92174798E-01
        2 -1    0    0  501    0 0.00000000E+00 0.00000000E+00 0.70067373E+03 0.70067381E+03 0.32000000E+00 0.0000E+00 0.9000E+01
       -2 -1    0    0    0  501 0.00000000E+00 0.00000000E+00 -.95371290E+02 0.95371827E+02 0.32000000E+00 0.0000E+00 0.9000E+01
       25  2    1    2    0    0 0.37315242E+02 0.94722850E+02 0.21748304E+03 0.38484740E+03 0.30073876E+03 0.0000E+00 0.0000E+00
       23  2    3    3    0    0 -.44992367E+02 0.12450801E+03 0.38596231E+02 0.16580987E+03 0.92068918E+02 0.0000E+00 0.0000E+00
       23  1    1    2    0    0 -.37315242E+02 -.94722850E+02 0.38781941E+03 0.41119824E+03 0.91188000E+02 0.0000E+00 0.9000E+01
      -11  1    4    4    0    0 0.22176438E+02 0.69606473E+02 0.28725996E+02 0.78498652E+02 0.51099893E-03 0.0000E+00 0.9000E+01
       11  1    4    4    0    0 -.67168804E+02 0.54901539E+02 0.98702346E+01 0.87311218E+02 0.51099893E-03 0.0000E+00 0.9000E+01
       23  1    3    3    0    0 0.82307608E+02 -.29785162E+02 0.17888680E+03 0.21903753E+03 0.91188000E+02 0.0000E+00 0.9000E+01
#aMCatNLO 1  0  0  1  2 0.56680712D+03 0.00000000D+00  -5  7  0 0.00000000D+00 0.00000000D+00 0.00000000D+00 0.00000000D+00 0.00000000D+00
  <mgrwgt>
 0.3544626285D-03    5    2    0
 0.258504160435016D+03 0.000000000000000D+00 0.000000000000000D+00 0.258504160435016D+03
 0.258504160435016D+03 0.000000000000000D+00 0.000000000000000D+00 -.258504160435016D+03
 0.179077439245677D+03 -.373152418024336D+02 -.947228497708630D+02 0.115709257897982D+03
 0.872337862062704D+02 0.221764375556862D+02 0.696064730974968D+02 -.476747100268842D+02
 0.122878557559220D+03 -.671688040855398D+02 0.549015390043851D+02 -.870247819905507D+02
 0.127818537858865D+03 0.823076083322872D+02 -.297851623310189D+02 0.189902341194532D+02
 0.000000000000000D+00 0.000000000000000D+00 0.000000000000000D+00 0.000000000000000D+00
 0.682740531240992D+03 0.000000000000000D+00 0.000000000000000D+00 0.682740531240992D+03
 0.652077207202508D+03 0.000000000000000D+00 0.000000000000000D+00 -.652077207202508D+03
 0.372916113205970D+03 -.598507942506627D+02 -.337313542878004D+03 0.115709257897982D+03
 0.512123295766268D+02 0.165242706243481D+02 0.876203200466986D+01 -.476747100268842D+02
 0.129217542812565D+03 -.774608172199143D+02 -.558899139884571D+02 -.870247819905507D+02
 0.213835817689614D+03 0.683593119899978D+02 -.179935769249275D+03 0.189902341194532D+02
 0.567635935158724D+03 0.524280288562312D+02 0.564377194111067D+03 0.306633240384840D+02
0.203712879312D-05 0.000000000000D+00 0.000000000000D+00 0.655301279501D-07 0.000000000000D+00  7 2 -2 23 -11 11 23 21 0 0.10779601D+00 0.14672553D-01 0.44706963D+05 0.44706963D+05 0.44706963D+05 0.11515945D+01  1  2  2  1  7  1        2 0.338456171130D-03 0.100000000000D+01
-.107616214126D-06 0.000000000000D+00 -.782311095391D-08 0.655301279501D-07 0.000000000000D+00  7 2 -2 23 -11 11 23 21 2 0.10779601D+00 0.14672553D-01 0.44706963D+05 0.44706963D+05 0.44706963D+05 0.11515945D+01  1  2  3  1  7  1        2 -.237115961124D-04 0.100000000000D+01
0.122877676021D-06 0.000000000000D+00 0.000000000000D+00 0.655301279501D-07 0.000000000000D+00  7 2 -2 23 -11 11 23 21 2 0.10779601D+00 0.14672553D-01 0.44706963D+05 0.44706963D+05 0.44706963D+05 0.11515945D+01  1  2 15  1  7  1        2 0.270742271385D-04 0.100000000000D+01
0.116426632890D-05 0.000000000000D+00 -.749325399945D-06 0.655301279501D-07 0.000000000000D+00  7 2 -2 23 -11 11 23 21 2 0.46416525D+00 0.14672553D-01 0.44706963D+05 0.44706963D+05 0.44706963D+05 0.11515945D+01  1  2  5  1  7  1        2 0.124825978793D-04 0.100000000000D+01
0.203969041517D-06 0.000000000000D+00 -.131702371037D-06 0.655301279501D-07 0.000000000000D+00  7 21 -2 23 -11 11 23 -2 2 0.46416525D+00 0.14672553D-01 0.44706963D+05 0.44706963D+05 0.44706963D+05 0.11515945D+01  1  2  5  3  7  1        2 0.161228461961D-06 0.100000000000D+01
  </mgrwgt>
  </event>
  <event>
  8     66 0.29152272E-05 0.18007468E+03 0.75467711E-02 0.97198875E-01
        2 -1    0    0  501    0 0.00000000E+00 0.00000000E+00 0.47461499E+03 0.47461510E+03 0.32000000E+00 0.0000E+00 0.9000E+01
       -2 -1    0    0    0  501 0.00000000E+00 0.00000000E+00 -.42749735E+03 0.42749747E+03 0.32000000E+00 0.0000E+00 0.9000E+01
       25  2    1    2    0    0 0.34196755E+03 0.14679746E+03 0.15782694E+03 0.50328541E+03 0.29982588E+03 0.0000E+00 0.0000E+00
       23  2    3    3    0    0 0.12080544E+03 0.70287258E+01 0.16852323E+03 0.22601723E+03 0.89668005E+02 0.0000E+00 0.0000E+00
       23  1    1    2    0    0 -.34196755E+03 -.14679746E+03 -.11070930E+03 0.39882716E+03 0.91188000E+02 0.0000E+00 0.9000E+01
      -11  1    4    4    0    0 0.95381681E+02 0.30999285E+02 0.16190819E+03 0.19045441E+03 0.51099893E-03 0.0000E+00 0.9000E+01
       11  1    4    4    0    0 0.25423755E+02 -.23970559E+02 0.66150392E+01 0.35562814E+02 0.51099893E-03 0.0000E+00 0.9000E+01
       23  1    3    3    0    0 0.22116212E+03 0.13976873E+03 -.10696296E+02 0.27726818E+03 0.91188000E+02 0.0000E+00 0.9000E+01
#aMCatNLO 1  0  0  2  1 0.66711036D+01 0.00000000D+00  -5  7  0 0.00000000D+00 0.00000000D+00 0.00000000D+00 0.00000000D+00 0.00000000D+00
  <mgrwgt>
 0.2127691653D-03   11    2    0
 0.450440620323151D+03 0.000000000000000D+00 0.000000000000000D+00 0.450440620323151D+03
 0.450440620323151D+03 0.000000000000000D+00 0.000000000000000D+00 -.450440620323151D+03
 0.405162562117222D+03 -.341967554150357D+03 -.146797459454432D+03 -.131719961294935D+03
 0.182246650204186D+03 0.953816812930560D+02 0.309992847840894D+02 0.152168395954061D+03
 0.352654435029460D+02 0.254237547857612D+02 -.239705589997253D+02 0.476408430799123D+01
 0.278206584821947D+03 0.221162118071540D+03 0.139768733670068D+03 -.252125189671174D+02
 0.000000000000000D+00 0.000000000000000D+00 0.000000000000000D+00 -.000000000000000D+00
 0.450743835521351D+03 0.000000000000000D+00 0.000000000000000D+00 0.450743835521351D+03
 0.488704023240321D+03 0.000000000000000D+00 0.000000000000000D+00 -.488704023240321D+03
 0.407015116896583D+03 -.342931518204851D+03 -.149645847441605D+03 -.131719961294935D+03
 0.181807790897518D+03 0.949495893947326D+02 0.297225096109889D+02 0.152168395954061D+03
 0.353741958311519D+02 0.253399134356478D+02 -.242182992483145D+02 0.476408430799123D+01
 0.276708836732036D+03 0.220503495539199D+03 0.137822590034883D+03 -.252125189671174D+02
 0.385419184043838D+02 0.213851983527144D+01 0.631904704404750D+01 -.379601877189700D+02
0.116162475404D-04 0.000000000000D+00 0.000000000000D+00 0.399842344479D-06 0.000000000000D+00  7 2 -2 23 -11 11 23 21 0 0.73017708D-01 0.65768841D-01 0.15818520D+06 0.15818520D+06 0.15818520D+06 0.11057356D+01  1  2  2  2  7  2       -2 0.202891662748D-03 0.100000000000D+01
-.633191610508D-06 0.000000000000D+00 -.446094491832D-07 0.399842344479D-06 0.000000000000D+00  7 2 -2 23 -11 11 23 21 2 0.73017708D-01 0.65768841D-01 0.15818520D+06 0.15818520D+06 0.15818520D+06 0.11057356D+01  1  2  3  2  7  2       -2 -.135218483846D-04 0.100000000000D+01
0.748995612120D-06 0.000000000000D+00 0.000000000000D+00 0.399842344479D-06 0.000000000000D+00  7 2 -2 23 -11 11 23 21 2 0.73017708D-01 0.65768841D-01 0.15818520D+06 0.15818520D+06 0.15818520D+06 0.11057356D+01  1  2 15  2  7  2       -2 0.159948504366D-04 0.100000000000D+01
0.958446777747D-03 0.000000000000D+00 0.000000000000D+00 0.399842344479D-06 0.000000000000D+00  7 2 -2 23 -11 11 23 21 2 0.73017708D-01 0.71376755D-01 0.16075517D+06 0.16075517D+06 0.16075517D+06 0.11051865D+01  1  2 12  2  7  2       -2 0.171579636441D-01 0.100000000000D+01
-.104575669451D-02 0.000000000000D+00 0.000000000000D+00 0.399842344479D-06 0.000000000000D+00  7 2 -2 23 -11 11 23 21 2 0.73017708D-01 0.65768841D-01 0.15818520D+06 0.15818520D+06 0.15818520D+06 0.11057356D+01  1  2  4  2  7  2       -2 -.223322028207D-01 0.100000000000D+01
-.111764576060D-02 0.000000000000D+00 -.181469083372D-04 0.399842344479D-06 0.000000000000D+00  7 2 -2 23 -11 11 23 21 2 0.73017708D-01 0.71377794D-01 0.15818520D+06 0.15818520D+06 0.15818520D+06 0.11057356D+01  1  2  5  2  7  2       -2 -.200343142831D-01 0.100000000000D+01
0.111545383994D-02 0.000000000000D+00 0.180863044832D-04 0.399842344479D-06 0.000000000000D+00  7 2 -2 23 -11 11 23 21 2 0.73017708D-01 0.65768841D-01 0.15818520D+06 0.15818520D+06 0.15818520D+06 0.11057356D+01  1  2  6  2  7  2       -2 0.238205899342D-01 0.100000000000D+01
0.872507408025D-04 0.000000000000D+00 0.000000000000D+00 0.399842344479D-06 0.587110566828D-07  7 2 -2 23 -11 11 23 21 2 0.73066860D-01 0.71355680D-01 0.16075517D+06 0.16075517D+06 0.16075517D+06 0.11051865D+01  1  2 11  2  7  2       -2 0.156177332584D-02 0.100000000000D+01
0.139931547513D-04 0.000000000000D+00 0.000000000000D+00 0.399842344479D-06 0.000000000000D+00  7 2 21 23 -11 11 23 2 2 0.73017708D-01 0.71376755D-01 0.16075517D+06 0.16075517D+06 0.16075517D+06 0.11051865D+01  1  2 12  4  7  2       -2 0.249602447792D-02 0.100000000000D+01
-.160863525124D-04 0.000000000000D+00 -.247328502313D-06 0.399842344479D-06 0.000000000000D+00  7 2 21 23 -11 11 23 2 2 0.73017708D-01 0.71377794D-01 0.15818520D+06 0.15818520D+06 0.15818520D+06 0.11057356D+01  1  2  5  4  7  2       -2 -.287459574570D-02 0.100000000000D+01
0.118951242491D-05 0.000000000000D+00 0.000000000000D+00 0.399842344479D-06 0.799824618419D-09  7 2 21 23 -11 11 23 2 2 0.73066860D-01 0.71355680D-01 0.16075517D+06 0.16075517D+06 0.16075517D+06 0.11051865D+01  1  2 11  4  7  2       -2 0.212165968007D-03 0.100000000000D+01
  </mgrwgt>
  </event>
  <event>
  8     66 0.29152272E-05 0.17224803E+03 0.75467711E-02 0.10400910E+00
        2 -1    0    0  501    0 0.00000000E+00 0.00000000E+00 0.40113450E+02 0.40114727E+02 0.32000000E+00 0.0000E+00 0.9000E+01
       -2 -1    0    0    0  501 0.00000000E+00 0.00000000E+00 -.41398069E+04 0.41398069E+04 0.32000000E+00 0.0000E+00 0.9000E+01
       25  2    1    2    0    0 -.16264125E+03 0.33869133E+02 -.74897392E+03 0.82384716E+03 0.30027140E+03 0.0000E+00 0.0000E+00
       23  2    3    3    0    0 -.53543156E+02 -.77386689E+02 -.50064192E+03 0.51682226E+03 0.87220144E+02 0.0000E+00 0.0000E+00
       23  1    1    2    0    0 0.16264125E+03 -.33869133E+02 -.33507196E+04 0.33560745E+04 0.91188000E+02 0.0000E+00 0.9000E+01
      -11  1    4    4    0    0 -.22511575E+02 -.45112003E+02 -.85386166E+02 0.99159776E+02 0.51099893E-03 0.0000E+00 0.9000E+01
       11  1    4    4    0    0 -.31031581E+02 -.32274686E+02 -.41525575E+03 0.41766249E+03 0.51099893E-03 0.0000E+00 0.9000E+01
       23  1    3    3    0    0 -.10909809E+03 0.11125582E+03 -.24833201E+03 0.30702490E+03 0.91188000E+02 0.0000E+00 0.9000E+01
#aMCatNLO 1  0  0  2  1 0.64045794D+01 0.00000000D+00  -5  7  0 0.00000000D+00 0.00000000D+00 0.00000000D+00 0.00000000D+00 0.00000000D+00
  <mgrwgt>
 0.2504644073D-05   11    2    0
 0.407510285386746D+03 0.000000000000000D+00 0.000000000000000D+00 0.407510285386746D+03
 0.407510285386746D+03 0.000000000000000D+00 0.000000000000000D+00 -.407510285386746D+03
 0.357298261968694D+03 0.162641250038905D+03 -.338691333544358D+02 -.302898501570165D+03
 0.790446173658975D+02 -.225115752115207D+02 -.451120033303705D+02 0.608784664026439D+02
 0.532197428966904D+02 -.310315809959205D+02 -.322746856812880D+02 -.287702394681990D+02
 0.325457948542210D+03 -.109098093831464D+03 0.111255822366094D+03 0.270790274635720D+03
 0.000000000000000D+00 -.000000000000000D+00 0.000000000000000D+00 -.000000000000000D+00
 0.407737200236523D+03 0.000000000000000D+00 0.000000000000000D+00 0.407737200236523D+03
 0.455367396472462D+03 0.000000000000000D+00 0.000000000000000D+00 -.455367396472462D+03
 0.358280771840673D+03 0.164306621875628D+03 -.361343587339876D+02 -.302898501570165D+03
 0.792278896371276D+02 -.221432265550666D+02 -.456130282106551D+02 0.608784664026439D+02
 0.532812834162306D+02 -.307837204502315D+02 -.326118236022638D+02 -.287702394681990D+02
 0.324255789664277D+03 -.107586010734533D+03 0.109199099097675D+03 0.270790274635720D+03
 0.480588621506773D+02 -.379366413579634D+01 0.516011144923160D+01 -.476301962359393D+02
0.241330241979D-03 0.000000000000D+00 0.000000000000D+00 0.827891756868D-07 0.000000000000D+00  7 2 -2 23 -11 11 23 21 0 0.61713992D-02 0.63689347D+00 0.54112856D+05 0.54112856D+05 0.54112856D+05 0.11442879D+01  1  2  2  2  7  2       -2 0.309759518694D-05 0.100000000000D+01
-.828324319447D-05 0.000000000000D+00 -.926771672911D-06 0.827891756868D-07 0.000000000000D+00  7 2 -2 23 -11 11 23 21 2 0.61713992D-02 0.63689347D+00 0.54112856D+05 0.54112856D+05 0.54112856D+05 0.11442879D+01  1  2  3  2  7  2       -2 -.139214324922D-06 0.100000000000D+01
0.148485577491D-04 0.000000000000D+00 0.000000000000D+00 0.827891756868D-07 0.000000000000D+00  7 2 -2 23 -11 11 23 21 2 0.61713992D-02 0.63689347D+00 0.54112856D+05 0.54112856D+05 0.54112856D+05 0.11442879D+01  1  2 15  2  7  2       -2 0.249555867741D-06 0.100000000000D+01
0.971705933158D-02 0.000000000000D+00 0.000000000000D+00 0.827891756868D-07 0.000000000000D+00  7 2 -2 23 -11 11 23 21 2 0.61713992D-02 0.71185398D+00 0.55619966D+05 0.55619966D+05 0.55619966D+05 0.11432484D+01  1  2 12  2  7  2       -2 0.165441516867D-03 0.100000000000D+01
-.120186096643D-01 0.000000000000D+00 0.000000000000D+00 0.827891756868D-07 0.000000000000D+00  7 2 -2 23 -11 11 23 21 2 0.61713992D-02 0.63689347D+00 0.54112856D+05 0.54112856D+05 0.54112856D+05 0.11442879D+01  1  2  4  2  7  2       -2 -.201993662582D-03 0.100000000000D+01
-.113106670297D-01 0.000000000000D+00 -.109800555229D-03 0.827891756868D-07 0.000000000000D+00  7 2 -2 23 -11 11 23 21 2 0.61713992D-02 0.71174286D+00 0.54112856D+05 0.54112856D+05 0.54112856D+05 0.11442879D+01  1  2  5  2  7  2       -2 -.192957066001D-03 0.100000000000D+01
0.122684252683D-01 0.000000000000D+00 0.119237119222D-03 0.827891756868D-07 0.000000000000D+00  7 2 -2 23 -11 11 23 21 2 0.61713992D-02 0.63689347D+00 0.54112856D+05 0.54112856D+05 0.54112856D+05 0.11442879D+01  1  2  6  2  7  2       -2 0.206192248795D-03 0.100000000000D+01
0.133868337557D-02 0.000000000000D+00 0.000000000000D+00 0.827891756868D-07 0.141517283242D-07  7 2 -2 23 -11 11 23 21 2 0.61748356D-02 0.71168884D+00 0.55619966D+05 0.55619966D+05 0.55619966D+05 0.11432484D+01  1  2 11  2  7  2       -2 0.227689241904D-04 0.100000000000D+01
0.172959899202D-03 0.000000000000D+00 0.000000000000D+00 0.827891756868D-07 0.000000000000D+00  7 2 21 23 -11 11 23 2 2 0.61713992D-02 0.71185398D+00 0.55619966D+05 0.55619966D+05 0.55619966D+05 0.11432484D+01  1  2 12  4  7  2       -2 0.508039677150D-05 0.100000000000D+01
-.200644583456D-03 0.000000000000D+00 -.195207437476D-05 0.827891756868D-07 0.000000000000D+00  7 2 21 23 -11 11 23 2 2 0.61713992D-02 0.71174286D+00 0.54112856D+05 0.54112856D+05 0.54112856D+05 0.11442879D+01  1  2  5  4  7  2       -2 -.593849173063D-05 0.100000000000D+01
0.238568242705D-04 0.000000000000D+00 0.000000000000D+00 0.827891756868D-07 0.252110296205D-09  7 2 21 23 -11 11 23 2 2 0.61748356D-02 0.71168884D+00 0.55619966D+05 0.55619966D+05 0.55619966D+05 0.11432484D+01  1  2 11  4  7  2       -2 0.702841033393D-06 0.100000000000D+01
  </mgrwgt>
  </event>
  <event>
  8     66 0.29152272E-05 0.17050974E+03 0.75467711E-02 0.10547961E+00
        2 -1    0    0  501    0 0.00000000E+00 0.00000000E+00 0.14090324E+04 0.14090325E+04 0.32000000E+00 0.0000E+00 0.9000E+01
       -2 -1    0    0    0  501 0.00000000E+00 0.00000000E+00 -.29245807E+02 0.29247558E+02 0.32000000E+00 0.0000E+00 0.9000E+01
       25  2    1    2    0    0 -.10762841E+02 0.44774496E+02 0.10664038E+04 0.11086671E+04 0.29967519E+03 0.0000E+00 0.0000E+00
       23  2    3    3    0    0 0.83252260E+02 0.28522433E+02 0.23474513E+03 0.26660163E+03 0.90701074E+02 0.0000E+00 0.0000E+00
       23  1    1    2    0    0 0.10762841E+02 -.44774496E+02 0.31338286E+03 0.32961290E+03 0.91188000E+02 0.0000E+00 0.9000E+01
      -11  1    4    4    0    0 0.76283433E+01 -.16988898E+02 0.33198959E+01 0.18916553E+02 0.51099893E-03 0.0000E+00 0.9000E+01
       11  1    4    4    0    0 0.75623916E+02 0.45511331E+02 0.23142523E+03 0.24768508E+03 0.51099893E-03 0.0000E+00 0.9000E+01
       23  1    3    3    0    0 -.94015101E+02 0.16252063E+02 0.83165863E+03 0.84206550E+03 0.91188000E+02 0.0000E+00 0.9000E+01
#aMCatNLO 1  0  0  2  2 0.80659224D+02 0.00000000D+00  -5  7  0 0.00000000D+00 0.00000000D+00 0.00000000D+00 0.00000000D+00 0.00000000D+00
  <mgrwgt>
 0.1203886953D-02    4    2    0
 0.203001419604070D+03 0.000000000000000D+00 0.000000000000000D+00 0.203001419604070D+03
 0.203001419604070D+03 0.000000000000000D+00 0.000000000000000D+00 -.203001419604070D+03
 0.102645019466953D+03 0.107628416929971D+02 -.447744973102724D+02 -.100077123597294D+02
 0.557300357920984D+02 0.762834311379878D+01 -.169888979620186D+02 -.525263992366015D+02
 0.909428502634544D+02 0.756239163168532D+02 0.455113315212749D+02 -.219167515408485D+02
 0.156684933685634D+03 -.940151011236491D+02 0.162520637510161D+02 0.844508631371794D+02
 0.000000000000000D+00 0.000000000000000D+00 -.000000000000000D+00 0.000000000000000D+00
 0.370558795779659D+03 0.000000000000000D+00 0.000000000000000D+00 0.370558795779659D+03
 0.216911125357442D+03 0.000000000000000D+00 0.000000000000000D+00 -.216911125357442D+03
 0.957402463299432D+02 0.106183162729633D+02 -.252594631013890D+02 -.100077123597294D+02
 0.534329236547501D+02 0.754881693274484D+01 -.625060608640526D+01 -.525263992366015D+02
 0.101650242913044D+03 0.754836105457812D+02 0.644565933411818D+02 -.219167515408485D+02
 0.163114041226170D+03 -.942480775041775D+02 0.477104883991399D+02 0.844508631371794D+02
 0.173532467013193D+03 0.597333752688235D+00 -.806570125525275D+02 0.153647670422218D+03
0.338362905118D-05 0.000000000000D+00 0.000000000000D+00 0.593440567928D-07 0.000000000000D+00  7 2 -2 23 -11 11 23 21 0 0.21677436D+00 0.44994925D-02 0.29073572D+05 0.29073572D+05 0.29073572D+05 0.11686020D+01  1  2  2  2  7  2       -2 0.125707415217D-02 0.100000000000D+01
-.181026154588D-06 0.000000000000D+00 -.129940264865D-07 0.593440567928D-07 0.000000000000D+00  7 2 -2 23 -11 11 23 21 2 0.21677436D+00 0.44994925D-02 0.29073572D+05 0.29073572D+05 0.29073572D+05 0.11686020D+01  1  2  3  2  7  2       -2 -.918444070684D-04 0.100000000000D+01
0.219062302012D-06 0.000000000000D+00 0.000000000000D+00 0.593440567928D-07 0.000000000000D+00  7 2 -2 23 -11 11 23 21 2 0.21677436D+00 0.44994925D-02 0.29073572D+05 0.29073572D+05 0.29073572D+05 0.11686020D+01  1  2 15  2  7  2       -2 0.111142211937D-03 0.100000000000D+01
-.142868596765D-06 0.000000000000D+00 0.000000000000D+00 0.593440567928D-07 0.000000000000D+00  7 2 -2 23 -11 11 23 21 2 0.21677436D+00 0.44994925D-02 0.29073572D+05 0.29073572D+05 0.29073572D+05 0.11686020D+01  1  2  4  2  7  2       -2 -.724850041060D-04 0.100000000000D+01
  </mgrwgt>
  </event>
  <event>
  8     66 0.29152272E-05 0.30507808E+03 0.75467711E-02 0.97508397E-01
        2 -1    0    0  501    0 0.00000000E+00 0.00000000E+00 0.77639277E+03 0.77639283E+03 0.32000000E+00 0.0000E+00 0.9000E+01
       -2 -1    0    0    0  501 0.00000000E+00 0.00000000E+00 -.14600187E+03 0.14600222E+03 0.32000000E+00 0.0000E+00 0.9000E+01
       25  2    1    2    0    0 -.23034046E+03 -.39504379E+02 0.21467947E+03 0.43685559E+03 0.30023026E+03 0.0000E+00 0.0000E+00
       23  2    3    3    0    0 0.19254771E+02 -.61421839E+02 0.51929477E+02 0.12447607E+03 0.93028125E+02 0.0000E+00 0.0000E+00
       23  1    1    2    0    0 0.23034046E+03 0.39504379E+02 0.41571143E+03 0.48553946E+03 0.91188000E+02 0.0000E+00 0.9000E+01
      -11  1    4    4    0    0 -.24656194E+02 -.29064254E+02 0.58202284E+02 0.69571292E+02 0.51099893E-03 0.0000E+00 0.9000E+01
       11  1    4    4    0    0 0.43910965E+02 -.32357586E+02 -.62728070E+01 0.54904775E+02 0.51099893E-03 0.0000E+00 0.9000E+01
       23  1    3    3    0    0 -.24959523E+03 0.21917460E+02 0.16274999E+03 0.31237952E+03 0.91188000E+02 0.0000E+00 0.9000E+01
#aMCatNLO 1  0  0  1  1 0.15822157D+03 0.00000000D+00  -5  7  0 0.00000000D+00 0.00000000D+00 0.00000000D+00 0.00000000D+00 0.00000000D+00
  <mgrwgt>
 0.5787073006D-03    3    2    0
 0.336682321205902D+03 0.000000000000000D+00 0.000000000000000D+00 0.336682321205902D+03
 0.336682321205902D+03 0.000000000000000D+00 0.000000000000000D+00 -.336682321205902D+03
 0.275925525577095D+03 0.230340459439619D+03 0.395043789164871D+02 0.114901353832597D+03
 0.408129904697187D+02 -.246561939559231D+02 -.290642535117665D+02 0.145959397947859D+02
 0.810826849670013D+02 0.439109652244645D+02 -.323575856974952D+02 -.599934628300709D+02
 0.275543441397988D+03 -.249595230708160D+03 0.219174602927746D+02 -.695038307973124D+02
 0.000000000000000D+00 0.000000000000000D+00 0.000000000000000D+00 -.000000000000000D+00
 0.361653630062646D+03 0.000000000000000D+00 0.000000000000000D+00 0.361653630062646D+03
 0.741915805690707D+03 0.000000000000000D+00 0.000000000000000D+00 -.741915805690707D+03
 0.231168831515131D+03 0.178242281775301D+03 0.122941122103875D+02 0.114901353832597D+03
 0.502214100474188D+02 -.340089432132846D+02 -.339490846735747D+02 0.145959397947859D+02
 0.776652477232924D+02 0.276014206880855D+02 -.408758693800708D+02 -.599934628300709D+02
 0.332648208508111D+03 -.312080005361253D+03 -.107176041107482D+02 -.695038307973124D+02
 0.411865737959399D+03 0.140245246111151D+03 0.732484459540062D+02 -.380262175628060D+03
0.778231595659D-05 0.000000000000D+00 0.000000000000D+00 0.224322121639D-06 0.000000000000D+00  7 2 -2 23 -11 11 23 21 0 0.11944507D+00 0.22461858D-01 0.93072632D+05 0.93072632D+05 0.93072632D+05 0.11242896D+01  1  2  2  1  7  1        2 0.571182880327D-03 0.100000000000D+01
-.427243181961D-06 0.000000000000D+00 -.298861424041D-07 0.224322121639D-06 0.000000000000D+00  7 2 -2 23 -11 11 23 21 2 0.11944507D+00 0.22461858D-01 0.93072632D+05 0.93072632D+05 0.93072632D+05 0.11242896D+01  1  2  3  1  7  1        2 -.396367310649D-04 0.100000000000D+01
0.508348691686D-06 0.000000000000D+00 0.000000000000D+00 0.224322121639D-06 0.000000000000D+00  7 2 -2 23 -11 11 23 21 2 0.11944507D+00 0.22461858D-01 0.93072632D+05 0.93072632D+05 0.93072632D+05 0.11242896D+01  1  2 15  1  7  1        2 0.471611513778D-04 0.100000000000D+01
  </mgrwgt>
  </event>
  <event>
  9     66 0.29152272E-05 0.20439869E+03 0.75467711E-02 0.10523881E+00
        2 -1    0    0  501    0 0.00000000E+00 0.00000000E+00 0.69186626E+03 0.69186633E+03 0.32000000E+00 0.0000E+00 0.9000E+01
       -2 -1    0    0    0  502 0.00000000E+00 0.00000000E+00 -.11286663E+03 0.11286708E+03 0.32000000E+00 0.0000E+00 0.9000E+01
       25  2    1    2    0    0 0.87219629E+01 0.67674005E+02 0.56578794E+03 0.64373955E+03 0.29938064E+03 0.0000E+00 0.0000E+00
       23  2    3    3    0    0 -.56160962E+02 0.12276451E+03 0.21503969E+03 0.27147037E+03 0.96067232E+02 0.0000E+00 0.0000E+00
       23  1    1    2    0    0 0.61723652E+01 -.81220667E+02 -.18258902E+02 0.12362659E+03 0.91188000E+02 0.0000E+00 0.9000E+01
      -11  1    4    4    0    0 -.11168713E+02 -.15578419E+02 0.35946962E+02 0.40738328E+02 0.51099893E-03 0.0000E+00 0.9000E+01
       11  1    4    4    0    0 -.44992249E+02 0.13834293E+03 0.17909273E+03 0.23073204E+03 0.51099893E-03 0.0000E+00 0.9000E+01
       23  1    3    3    0    0 0.64882925E+02 -.55090506E+02 0.35074825E+03 0.37226918E+03 0.91188000E+02 0.0000E+00 0.9000E+01
       21  1    1    2  501  502 -.14894328E+02 0.13546662E+02 0.31470591E+02 0.37367280E+02 0.75000000E+00 0.0000E+00 0.9000E+01
#aMCatNLO 2  0  0  2  1 0.20133382D+02 0.00000000D+00  -5  7  0 0.00000000D+00 0.00000000D+00 0.00000000D+00 0.00000000D+00 0.00000000D+00
  <mgrwgt>
 0.4144959432D-03    2    2    0
 0.268634226172124D+03 0.000000000000000D+00 0.000000000000000D+00 0.268634226172124D+03
 0.268634226172124D+03 0.000000000000000D+00 0.000000000000000D+00 -.268634226172124D+03
 0.192961145327703D+03 0.796060881665130D+00 -.763308209741281D+02 -.151959614104101D+03
 0.214688255181814D+02 -.117646125840042D+02 -.150364370742065D+02 0.981885533001849D+01
 0.151770867877837D+03 -.491311684867264D+02 0.142107352340255D+03 0.206403737941782D+02
 0.171067613620527D+03 0.600997201890655D+02 -.507400942919207D+02 0.121500384979904D+03
 0.000000000000000D+00 -.000000000000000D+00 0.000000000000000D+00 0.000000000000000D+00
 0.282889568663392D+03 0.000000000000000D+00 0.000000000000000D+00 0.282889568663392D+03
 0.276026855949696D+03 0.000000000000000D+00 0.000000000000000D+00 -.276026855949696D+03
 0.195043253080818D+03 0.617236521278847D+01 -.812206674274509D+02 -.151959614104101D+03
 0.215368799224386D+02 -.111687127401577D+02 -.155784188071044D+02 0.981885533001849D+01
 0.146932275940153D+03 -.449922488960830D+02 0.138342929786321D+03 0.206403737941782D+02
 0.174133146183114D+03 0.648829245745100D+02 -.550905055705912D+02 0.121500384979904D+03
 0.212708694865634D+02 -.148943281510578D+02 0.135466620188255D+02 0.686271271369639D+01
-.249608635102D-06 0.000000000000D+00 0.000000000000D+00 0.131719448138D-07 0.000000000000D+00  7 2 -2 23 -11 11 23 21 2 0.10107484D+00 0.16898685D-01 0.41778823D+05 0.41778823D+05 0.41778823D+05 0.11542213D+01  1  2  8  2  7  2       -2 -.475686088660D-04 0.100000000000D+01
0.270908975043D-05 0.000000000000D+00 0.000000000000D+00 0.131719448138D-07 0.229534279072D-09  7 2 -2 23 -11 11 23 21 2 0.10643848D+00 0.17363725D-01 0.46610144D+05 0.46610144D+05 0.46610144D+05 0.11499869D+01  1  2  1  2  7  2       -2 0.462064552034D-03 0.100000000000D+01
  </mgrwgt>
  </event>
  <event>
  8     66 0.29152272E-05 0.12871700E+03 0.75467711E-02 0.93311883E-01
        2 -1    0    0  501    0 0.00000000E+00 0.00000000E+00 0.26042451E+03 0.26042471E+03 0.32000000E+00 0.0000E+00 0.9000E+01
       -2 -1    0    0    0  501 0.00000000E+00 0.00000000E+00 -.68106691E+03 0.68106699E+03 0.32000000E+00 0.0000E+00 0.9000E+01
       25  2    1    2    0    0 0.10412858E+03 0.30912568E+03 -.59832855E+02 0.44661775E+03 0.29914210E+03 0.0000E+00 0.0000E+00
       23  2    3    3    0    0 0.84840311E+02 0.13977454E+03 0.84755032E+02 0.20522025E+03 0.90538020E+02 0.0000E+00 0.0000E+00
       23  1    1    2    0    0 -.10412858E+03 -.30912568E+03 -.36080954E+03 0.49487395E+03 0.91188000E+02 0.0000E+00 0.9000E+01
      -13  1    4    4    0    0 -.79957100E+01 0.61293552E+02 0.10294368E+02 0.62664313E+02 0.10565837E+00 0.0000E+00 0.9000E+01
       13  1    4    4    0    0 0.92836021E+02 0.78480988E+02 0.74460663E+02 0.14255593E+03 0.10565837E+00 0.0000E+00 0.9000E+01
       23  1    3    3    0    0 0.19288272E+02 0.16935114E+03 -.14458789E+03 0.24139750E+03 0.91188000E+02 0.0000E+00 0.9000E+01
#aMCatNLO 1  0  0  1  2 0.34728363D+03 0.00000000D+00  -5  7  0 0.00000000D+00 0.00000000D+00 0.00000000D+00 0.00000000D+00 0.00000000D+00
  <mgrwgt>
 0.2754735954D-03    7    2    0
 0.421149197426660D+03 0.000000000000000D+00 0.000000000000000D+00 0.421149197426660D+03
 0.421149197426660D+03 0.000000000000000D+00 0.000000000000000D+00 -.421149197426660D+03
 0.372965119702011D+03 -.104128582971358D+03 -.309125678966679D+03 -.156161077039390D+03
 0.751848030029047D+02 -.799584722127278D+01 0.612935289204515D+02 0.428009852956381D+02
 0.196529731523680D+03 0.928361581754180D+02 0.784810112313852D+02 0.154421870161250D+03
 0.197618740624724D+03 0.192882720172127D+02 0.169351138814843D+03 -.410617784174981D+02
 0.000000000000000D+00 -.000000000000000D+00 0.000000000000000D+00 0.000000000000000D+00
 0.104387159060712D+04 0.000000000000000D+00 0.000000000000000D+00 0.104387159060712D+04
 0.506790838670148D+03 0.000000000000000D+00 0.000000000000000D+00 -.506790838670148D+03
 0.526423048695875D+03 -.878597674501981D+02 -.486518606155771D+03 -.156161077039390D+03
 0.558575496624635D+02 -.562545372947348D+01 0.354470842574492D+02 0.428009852956381D+02
 0.183851822930523D+03 0.997167883132271D+02 0.345556641864384D+01 0.154421870161250D+03
 0.144950728755701D+03 0.254849284736341D+02 0.101783648965317D+03 -.410617784174981D+02
 0.639579279232707D+03 -.317164956071896D+02 0.345832306514361D+03 0.537080751936973D+03
0.303473523489D-04 0.000000000000D+00 0.000000000000D+00 0.230029323617D-06 0.000000000000D+00  7 2 -2 23 -13 13 23 21 0 0.40065331D-01 0.10477955D+00 0.12794256D+06 0.12794256D+06 0.12794256D+06 0.11130446D+01  1  2  2  1  7  1        2 0.358803571278D-03 0.100000000000D+01
-.163128731572D-05 0.000000000000D+00 -.116541823661D-06 0.230029323617D-06 0.000000000000D+00  7 2 -2 23 -13 13 23 21 2 0.40065331D-01 0.10477955D+00 0.12794256D+06 0.12794256D+06 0.12794256D+06 0.11130446D+01  1  2  3  1  7  1        2 -.238941475150D-04 0.100000000000D+01
0.194265178460D-05 0.000000000000D+00 0.000000000000D+00 0.230029323617D-06 0.000000000000D+00  7 2 -2 23 -13 13 23 21 2 0.40065331D-01 0.10477955D+00 0.12794256D+06 0.12794256D+06 0.12794256D+06 0.11130446D+01  1  2 15  1  7  1        2 0.284548331028D-04 0.100000000000D+01
0.330345509182D-07 0.000000000000D+00 0.000000000000D+00 0.230029323617D-06 0.000000000000D+00  7 2 -2 23 -13 13 23 21 2 0.97499219D-01 0.10477955D+00 0.31623279D+06 0.31623279D+06 0.31623279D+06 0.10828627D+01  1  2 12  1  7  1        2 0.164922922615D-06 0.100000000000D+01
-.174606971552D-04 0.000000000000D+00 -.998327662556D-05 0.230029323617D-06 0.000000000000D+00  7 2 -2 23 -13 13 23 21 2 0.11241699D+00 0.10477955D+00 0.12794256D+06 0.12794256D+06 0.12794256D+06 0.11130446D+01  1  2  5  1  7  1        2 -.802396822980D-04 0.100000000000D+01
0.322062981798D-08 0.000000000000D+00 0.000000000000D+00 0.230029323617D-06 0.000000000000D+00  7 21 -2 23 -13 13 23 -2 2 0.97499219D-01 0.10477955D+00 0.31623279D+06 0.31623279D+06 0.31623279D+06 0.10828627D+01  1  2 12  3  7  1        2 0.219941153816D-07 0.100000000000D+01
-.146831341159D-05 0.000000000000D+00 -.115712662701D-05 0.230029323617D-06 0.000000000000D+00  7 21 -2 23 -13 13 23 -2 2 0.11241699D+00 0.10477955D+00 0.12794256D+06 0.12794256D+06 0.12794256D+06 0.11130446D+01  1  2  5  3  7  1        2 -.783789622961D-05 0.100000000000D+01
  </mgrwgt>
  </event>
  <event>
  8     66 0.29152272E-05 0.17940932E+03 0.75467711E-02 0.10108424E+00
        2 -1    0    0  501    0 0.00000000E+00 0.00000000E+00 0.87933457E+03 0.87933462E+03 0.32000000E+00 0.0000E+00 0.9000E+01
       -2 -1    0    0    0  501 0.00000000E+00 0.00000000E+00 -.44800367E+02 0.44801510E+02 0.32000000E+00 0.0000E+00 0.9000E+01
       25  2    1    2    0    0 -.99638525E+01 -.19097214E+02 0.68104600E+03 0.74430882E+03 0.29951293E+03 0.0000E+00 0.0000E+00
       23  2    3    3    0    0 0.25351334E+02 0.10443133E+03 0.35817769E+03 0.38505173E+03 0.91787715E+02 0.0000E+00 0.0000E+00
       23  1    1    2    0    0 0.99638525E+01 0.19097214E+02 0.15348820E+03 0.17982731E+03 0.91188000E+02 0.0000E+00 0.9000E+01
      -11  1    4    4    0    0 0.10801188E+02 0.34841458E+02 0.26676302E+03 0.26924543E+03 0.51099893E-03 0.0000E+00 0.9000E+01
       11  1    4    4    0    0 0.14550146E+02 0.69589874E+02 0.91414668E+02 0.11580630E+03 0.51099893E-03 0.0000E+00 0.9000E+01
       23  1    3    3    0    0 -.35315186E+02 -.12352855E+03 0.32286831E+03 0.35925709E+03 0.91188000E+02 0.0000E+00 0.9000E+01
#aMCatNLO 1  0  0  2  1 0.19312264D+03 0.00000000D+00  -5  7  0 0.00000000D+00 0.00000000D+00 0.00000000D+00 0.00000000D+00 0.00000000D+00
  <mgrwgt>
 0.3662140818D-03    5    2    0
 0.198481903695790D+03 0.000000000000000D+00 0.000000000000000D+00 0.198481903695790D+03
 0.198481903695790D+03 0.000000000000000D+00 0.000000000000000D+00 -.198481903695790D+03
 0.959628103528722D+02 0.996385591978990D+01 0.190972208862669D+02 -.207274541719942D+02
 0.659923336173109D+02 0.108011870338934D+02 0.348414559001062D+02 0.549945034133255D+02
 0.774179304711264D+02 0.145501441939485D+02 0.695898694928911D+02 -.306444012232227D+02
 0.157590732950271D+03 -.353151871476318D+02 -.123528546279264D+03 -.362264801810857D+01
 0.000000000000000D+00 0.000000000000000D+00 0.000000000000000D+00 -.000000000000000D+00
 0.267311473626116D+03 0.000000000000000D+00 0.000000000000000D+00 0.267311473626116D+03
 0.420866375436772D+03 0.000000000000000D+00 0.000000000000000D+00 -.420866375436772D+03
 0.974456526104703D+02 -.266805607784849D+02 -.623892528997710D+01 -.207274541719942D+02
 0.594255030634194D+02 -.129612864293072D+02 0.184119543438401D+02 0.549945034133255D+02
 0.610172155492676D+02 -.116786727809288D+02 0.514551248092153D+02 -.306444012232227D+02
 0.223559947170798D+03 -.107530457013225D+03 -.173458571050479D+03 -.362264801810857D+01
 0.246729530668932D+03 0.158850977001946D+03 0.109830417187401D+03 -.153554901810656D+03
0.935669988820D-06 0.000000000000D+00 0.000000000000D+00 0.394044532268D-07 0.000000000000D+00  7 2 -2 23 -11 11 23 21 0 0.13528233D+00 0.68924565D-02 0.32187705D+05 0.32187705D+05 0.32187705D+05 0.11645103D+01  1  2  2  2  7  2       -2 0.371584386584D-03 0.100000000000D+01
-.513365834303D-07 0.000000000000D+00 -.359321912464D-08 0.394044532268D-07 0.000000000000D+00  7 2 -2 23 -11 11 23 21 2 0.13528233D+00 0.68924565D-02 0.32187705D+05 0.32187705D+05 0.32187705D+05 0.11645103D+01  1  2  3  2  7  2       -2 -.276470230075D-04 0.100000000000D+01
0.605274811824D-07 0.000000000000D+00 0.000000000000D+00 0.394044532268D-07 0.000000000000D+00  7 2 -2 23 -11 11 23 21 2 0.13528233D+00 0.68924565D-02 0.32187705D+05 0.32187705D+05 0.32187705D+05 0.11645103D+01  1  2 15  2  7  2       -2 0.325967283566D-04 0.100000000000D+01
-.121897298739D-06 0.000000000000D+00 -.300175690557D-06 0.394044532268D-07 0.000000000000D+00  7 2 -2 23 -11 11 23 21 2 0.13528233D+00 0.19680270D-01 0.32187705D+05 0.32187705D+05 0.32187705D+05 0.11645103D+01  1  2  5  2  7  2       -2 -.129784050588D-04 0.100000000000D+01
0.188641850430D-08 0.000000000000D+00 -.354990094809D-07 0.394044532268D-07 0.000000000000D+00  7 2 21 23 -11 11 23 2 2 0.13528233D+00 0.19680270D-01 0.32187705D+05 0.32187705D+05 0.32187705D+05 0.11645103D+01  1  2  5  4  7  2       -2 0.265839492671D-05 0.100000000000D+01
  </mgrwgt>
  </event>
  <event>
  8     66 0.29152272E-05 0.29229312E+03 0.75467711E-02 0.97841865E-01
        2 -1    0    0  501    0 0.00000000E+00 0.00000000E+00 0.10405820E+04 0.10405821E+04 0.32000000E+00 0.0000E+00 0.9000E+01
       -2 -1    0    0    0  501 0.00000000E+00 0.00000000E+00 -.10195794E+03 0.10195845E+03 0.32000000E+00 0.0000E+00 0.9000E+01
       25  2    1    2    0    0 0.18577284E+03 -.13727608E+03 0.40439566E+03 0.55341275E+03 0.29895410E+03 0.0000E+00 0.0000E+00
       23  2    3    3    0    0 0.17578130E+03 -.16174568E+03 0.37567846E+03 0.45422343E+03 0.90132649E+02 0.0000E+00 0.0000E+00
       23  1    1    2    0    0 -.18577284E+03 0.13727608E+03 0.53422839E+03 0.58912774E+03 0.91188000E+02 0.0000E+00 0.9000E+01
      -13  1    4    4    0    0 0.12246141E+03 -.90278061E+02 0.30352392E+03 0.33951982E+03 0.10565837E+00 0.0000E+00 0.9000E+01
       13  1    4    4    0    0 0.53319890E+02 -.71467614E+02 0.72154532E+02 0.11470361E+03 0.10565837E+00 0.0000E+00 0.9000E+01
       23  1    3    3    0    0 0.99915369E+01 0.24469598E+02 0.28717208E+02 0.99189321E+02 0.91188000E+02 0.0000E+00 0.9000E+01
#aMCatNLO 1  0  0  1  1 0.15618061D+03 0.00000000D+00  -5  7  0 0.00000000D+00 0.00000000D+00 0.00000000D+00 0.00000000D+00 0.00000000D+00
  <mgrwgt>
 0.3129926559D-03    4    2    0
 0.325723680207293D+03 0.000000000000000D+00 0.000000000000000D+00 0.325723680207293D+03
 0.325723680207293D+03 0.000000000000000D+00 0.000000000000000D+00 -.325723680207293D+03
 0.263509673155754D+03 -.185772839667599D+03 0.137276077490620D+03 0.881239303099787D+02
 0.158140702336084D+03 0.122461507902232D+03 -.902780865630904D+02 0.431454273842405D+02
 0.972104414624590D+02 0.533197946591088D+02 -.714675883949477D+02 -.387201915781286D+02
 0.132586543460288D+03 0.999153710625862D+01 0.244695974674176D+02 -.925491661160906D+02
 0.000000000000000D+00 0.000000000000000D+00 -.000000000000000D+00 -.000000000000000D+00
 0.403047773727881D+03 0.000000000000000D+00 0.000000000000000D+00 0.403047773727881D+03
 0.424507791914466D+03 0.000000000000000D+00 0.000000000000000D+00 -.424507791914466D+03
 0.320658459083533D+03 -.253718895743485D+03 0.149557650714548D+03 0.881239303099787D+02
 0.129880911102475D+03 0.889609938931122D+02 -.842227091121506D+02 0.431454273842405D+02
 0.843381943638405D+02 0.322034188940210D+02 -.676507029101855D+02 -.387201915781286D+02
 0.135029926420598D+03 -.211356036360044D+02 0.300959763973534D+02 -.925491661160906D+02
 0.157648074671900D+03 0.153690086592356D+03 -.277802150895651D+02 -.214600181865848D+02
0.559646612518D-05 0.000000000000D+00 0.000000000000D+00 0.506990780862D-07 0.000000000000D+00  7 2 -2 23 -13 13 23 21 0 0.16008958D+00 0.15685880D-01 0.85435267D+05 0.85435267D+05 0.85435267D+05 0.11273755D+01  1  2  2  1  7  1        2 0.501735665146D-03 0.100000000000D+01
-.306481578680D-06 0.000000000000D+00 -.214919035041D-07 0.506990780862D-07 0.000000000000D+00  7 2 -2 23 -13 13 23 21 2 0.16008958D+00 0.15685880D-01 0.85435267D+05 0.85435267D+05 0.85435267D+05 0.11273755D+01  1  2  3  1  7  1        2 -.349222881696D-04 0.100000000000D+01
0.351117456776D-06 0.000000000000D+00 0.000000000000D+00 0.506990780862D-07 0.000000000000D+00  7 2 -2 23 -13 13 23 21 2 0.16008958D+00 0.15685880D-01 0.85435267D+05 0.85435267D+05 0.85435267D+05 0.11273755D+01  1  2 15  1  7  1        2 0.400083589354D-04 0.100000000000D+01
-.170106386332D-05 0.000000000000D+00 0.000000000000D+00 0.506990780862D-07 0.000000000000D+00  7 2 -2 23 -13 13 23 21 2 0.16008958D+00 0.15685880D-01 0.85435267D+05 0.85435267D+05 0.85435267D+05 0.11273755D+01  1  2  4  1  7  1        2 -.193829079991D-03 0.100000000000D+01
  </mgrwgt>
  </event>
  <event>
  8     66 0.29152272E-05 0.24639209E+03 0.75467711E-02 0.92389911E-01
        4 -1    0    0  501    0 0.00000000E+00 0.00000000E+00 0.96418287E+03 0.96418411E+03 0.15500000E+01 0.0000E+00 0.9000E+01
       -4 -1    0    0    0  501 0.00000000E+00 0.00000000E+00 -.96410733E+02 0.96423192E+02 0.15500000E+01 0.0000E+00 0.9000E+01
       25  2    1    2    0    0 -.12981528E+02 -.19155885E+03 0.34168856E+03 0.49320754E+03 0.29939821E+03 0.0000E+00 0.0000E+00
       23  2    3    3    0    0 0.30464362E+02 -.56301389E+02 0.29892764E+03 0.31906428E+03 0.91358405E+02 0.0000E+00 0.0000E+00
       23  1    1    2    0    0 0.12981528E+02 0.19155885E+03 0.52608358E+03 0.56739977E+03 0.91188000E+02 0.0000E+00 0.9000E+01
      -13  1    4    4    0    0 -.32526525E+02 -.13245957E+02 0.10161972E+03 0.10751749E+03 0.10565837E+00 0.0000E+00 0.9000E+01
       13  1    4    4    0    0 0.62990887E+02 -.43055433E+02 0.19730791E+03 0.21154679E+03 0.10565837E+00 0.0000E+00 0.9000E+01
       23  1    3    3    0    0 -.43445890E+02 -.13525747E+03 0.42760922E+02 0.17414326E+03 0.91188000E+02 0.0000E+00 0.9000E+01
#aMCatNLO 1  0  0  2  1 0.51673948D+03 0.00000000D+00  -5  7  0 0.00000000D+00 0.00000000D+00 0.00000000D+00 0.00000000D+00 0.00000000D+00
  <mgrwgt>
 0.8224077195D-05    5    2    0
 0.304901368975768D+03 0.000000000000000D+00 0.000000000000000D+00 0.304901368975768D+03
 0.304901368975768D+03 0.000000000000000D+00 0.000000000000000D+00 -.304901368975768D+03
 0.238220757590692D+03 0.129815279626387D+02 0.191558854959861D+03 0.107566551591587D+03
 0.423924451210794D+02 -.325266527489068D+02 -.132459168913831D+02 0.237419870693743D+02
 0.871590085214294D+02 0.629910143943447D+02 -.430554722793817D+02 0.421313562422272D+02
 0.242030526718335D+03 -.434458896080766D+02 -.135257465789096D+03 -.173439894903189D+03
 0.000000000000000D+00 0.000000000000000D+00 0.000000000000000D+00 -.000000000000000D+00
 0.528030599308110D+03 0.000000000000000D+00 0.000000000000000D+00 0.528030599308110D+03
 0.919624487000637D+03 0.000000000000000D+00 0.000000000000000D+00 -.919624487000637D+03
 0.149562020081638D+03 0.171249376955351D+01 0.498001089424920D+02 0.107566551591587D+03
 0.689392321259018D+02 -.357619704316582D+02 -.539445756953546D+02 0.237419870693743D+02
 0.146383749627246D+03 0.562042216880717D+02 -.128429889202478D+03 0.421313562422272D+02
 0.434414112000217D+03 -.631034871146108D+02 -.382540092187582D+03 -.173439894903189D+03
 0.648355972473746D+03 0.409487420886438D+02 0.515114448142922D+03 -.391593887692526D+03
0.339362834856D-05 0.000000000000D+00 0.000000000000D+00 0.178146083918D-06 0.000000000000D+00  7 4 -4 23 -13 13 23 21 0 0.14833688D+00 0.14833475D-01 0.60709062D+05 0.60709062D+05 0.60709062D+05 0.11399548D+01  1  2  2  2  7  2       -4 0.722207940443D-05 0.100000000000D+01
-.178128657078D-06 0.000000000000D+00 -.130324264213D-07 0.178146083918D-06 0.000000000000D+00  7 4 -4 23 -13 13 23 21 2 0.14833688D+00 0.14833475D-01 0.60709062D+05 0.60709062D+05 0.60709062D+05 0.11399548D+01  1  2  3  2  7  2       -4 -.492614346813D-06 0.100000000000D+01
0.220588403206D-06 0.000000000000D+00 0.000000000000D+00 0.178146083918D-06 0.000000000000D+00  7 4 -4 23 -13 13 23 21 2 0.14833688D+00 0.14833475D-01 0.60709062D+05 0.60709062D+05 0.60709062D+05 0.11399548D+01  1  2 15  2  7  2       -4 0.610036666434D-06 0.100000000000D+01
0.184160608097D-05 0.000000000000D+00 -.144416608973D-05 0.178146083918D-06 0.000000000000D+00  7 4 -4 23 -13 13 23 21 2 0.14833688D+00 0.75799954D-01 0.60709062D+05 0.60709062D+05 0.60709062D+05 0.11399548D+01  1  2  5  2  7  2       -4 0.176939099202D-06 0.100000000000D+01
0.319526476582D-06 0.000000000000D+00 -.287455691616D-06 0.178146083918D-06 0.000000000000D+00  7 4 21 23 -13 13 23 4 2 0.14833688D+00 0.75799954D-01 0.60709062D+05 0.60709062D+05 0.60709062D+05 0.11399548D+01  1  2  5  4  7  2       -4 0.707636371402D-06 0.100000000000D+01
  </mgrwgt>
  </event>
  <event>
  8     66 0.29152272E-05 0.17879102E+03 0.75467711E-02 0.98745608E-01
        2 -1    0    0  501    0 0.00000000E+00 0.00000000E+00 0.62086326E+03 0.62086334E+03 0.32000000E+00 0.0000E+00 0.9000E+01
       -2 -1    0    0    0  501 0.00000000E+00 0.00000000E+00 -.18608153E+03 0.18608181E+03 0.32000000E+00 0.0000E+00 0.9000E+01
       25  2    1    2    0    0 -.20178249E+03 -.17089513E+03 0.25555639E+03 0.47474296E+03 0.30025071E+03 0.0000E+00 0.0000E+00
       23  2    3    3    0    0 -.14362980E+03 0.16781172E+02 0.55192993E+02 0.17967539E+03 0.91246102E+02 0.0000E+00 0.0000E+00
       23  1    1    2    0    0 0.20178249E+03 0.17089513E+03 0.17922533E+03 0.33220218E+03 0.91188000E+02 0.0000E+00 0.9000E+01
      -11  1    4    4    0    0 0.50631322E+01 -.17346832E+02 0.95265285E+01 0.20427986E+02 0.51099893E-03 0.0000E+00 0.9000E+01
       11  1    4    4    0    0 -.14869293E+03 0.34128004E+02 0.45666465E+02 0.15924740E+03 0.51099893E-03 0.0000E+00 0.9000E+01
       23  1    3    3    0    0 -.58152691E+02 -.18767631E+03 0.20036340E+03 0.29506757E+03 0.91188000E+02 0.0000E+00 0.9000E+01
#aMCatNLO 1  0  0  2  1 0.37738779D+02 0.00000000D+00  -5  7  0 0.00000000D+00 0.00000000D+00 0.00000000D+00 0.00000000D+00 0.00000000D+00
  <mgrwgt>
 0.4357439236D-03    9    2    0
 0.339899000519923D+03 0.000000000000000D+00 0.000000000000000D+00 0.339899000519923D+03
 0.339899000519923D+03 0.000000000000000D+00 0.000000000000000D+00 -.339899000519923D+03
 0.279708150304642D+03 0.201782491302537D+03 0.170895132871628D+03 0.278868023007702D+00
 0.181558400962850D+02 0.506313222363951D+01 -.173468315674357D+02 -.175688823174108D+01
 0.159825379352854D+03 -.148692932657469D+03 0.341280037460683D+02 -.476428695957042D+02
 0.222108631286066D+03 -.581526908687067D+02 -.187676305050261D+03 0.491208898044376D+02
 0.000000000000000D+00 0.000000000000000D+00 0.000000000000000D+00 -.000000000000000D+00
 0.346942810692810D+03 0.000000000000000D+00 0.000000000000000D+00 0.346942810692810D+03
 0.395028088476629D+03 0.000000000000000D+00 0.000000000000000D+00 -.395028088476629D+03
 0.265516849374183D+03 0.191152651274470D+03 0.160139102348425D+03 0.278868023007702D+00
 0.186711723270790D+02 0.434514377666331D+01 -.180733435027604D+02 -.175688823174108D+01
 0.164526272491886D+03 -.155016571841256D+03 0.277292944617387D+02 -.476428695957042D+02
 0.232130429382599D+03 -.670086467626068D+02 -.196637393049273D+03 0.491208898044376D+02
 0.611261755936923D+02 0.265274235527297D+02 0.268423397418701D+02 -.480852777838187D+02
0.571266916633D-05 0.000000000000D+00 0.000000000000D+00 0.558274174152D-06 0.000000000000D+00  7 2 -2 23 -11 11 23 21 0 0.95517452D-01 0.28627956D-01 0.11120446D+06 0.11120446D+06 0.11120446D+06 0.11179567D+01  1  2  2  2  7  2       -2 0.361716419932D-03 0.100000000000D+01
-.317229949725D-06 0.000000000000D+00 -.219381537790D-07 0.558274174152D-06 0.000000000000D+00  7 2 -2 23 -11 11 23 21 2 0.95517452D-01 0.28627956D-01 0.11120446D+06 0.11120446D+06 0.11120446D+06 0.11179567D+01  1  2  3  2  7  2       -2 -.251046004428D-04 0.100000000000D+01
0.357589907585D-06 0.000000000000D+00 0.000000000000D+00 0.558274174152D-06 0.000000000000D+00  7 2 -2 23 -11 11 23 21 2 0.95517452D-01 0.28627956D-01 0.11120446D+06 0.11120446D+06 0.11120446D+06 0.11179567D+01  1  2 15  2  7  2       -2 0.282985631089D-04 0.100000000000D+01
0.210917226851D-04 0.000000000000D+00 0.000000000000D+00 0.558274174152D-06 0.000000000000D+00  7 2 -2 23 -11 11 23 21 2 0.95517452D-01 0.33536167D-01 0.12467772D+06 0.12467772D+06 0.12467772D+06 0.11139452D+01  1  2 12  2  7  2       -2 0.125094971232D-02 0.100000000000D+01
-.214060481815D-04 0.000000000000D+00 0.000000000000D+00 0.558274174152D-06 0.000000000000D+00  7 2 -2 23 -11 11 23 21 2 0.95517452D-01 0.28627956D-01 0.11120446D+06 0.11120446D+06 0.11120446D+06 0.11179567D+01  1  2  4  2  7  2       -2 -.169400867454D-02 0.100000000000D+01
-.336920203719D-04 0.000000000000D+00 -.480274811689D-05 0.558274174152D-06 0.000000000000D+00  7 2 -2 23 -11 11 23 21 2 0.95517452D-01 0.33815965D-01 0.11120446D+06 0.11120446D+06 0.11120446D+06 0.11179567D+01  1  2  5  2  7  2       -2 -.198532761763D-02 0.100000000000D+01
0.340839489139D-04 0.000000000000D+00 0.473689846971D-05 0.558274174152D-06 0.000000000000D+00  7 2 -2 23 -11 11 23 21 2 0.95517452D-01 0.28627956D-01 0.11120446D+06 0.11120446D+06 0.11120446D+06 0.11179567D+01  1  2  6  2  7  2       -2 0.269729866218D-02 0.100000000000D+01
0.502304468659D-06 0.000000000000D+00 0.000000000000D+00 0.558274174152D-06 0.000000000000D+00  7 2 21 23 -11 11 23 2 2 0.95517452D-01 0.33536167D-01 0.12467772D+06 0.12467772D+06 0.12467772D+06 0.11139452D+01  1  2 12  4  7  2       -2 0.343867572323D-03 0.100000000000D+01
-.795645122106D-06 0.000000000000D+00 -.119145178336D-06 0.558274174152D-06 0.000000000000D+00  7 2 21 23 -11 11 23 2 2 0.95517452D-01 0.33815965D-01 0.11120446D+06 0.11120446D+06 0.11120446D+06 0.11179567D+01  1  2  5  4  7  2       -2 -.541946113641D-03 0.100000000000D+01
  </mgrwgt>
  </event>
  <event>
  9     66 0.29152272E-05 0.19730574E+03 0.75467711E-02 0.96816403E-01
        2 -1    0    0  501    0 0.00000000E+00 0.00000000E+00 0.22992990E+04 0.22992990E+04 0.32000000E+00 0.0000E+00 0.9000E+01
       21 -1    0    0  502  501 0.00000000E+00 0.00000000E+00 -.23753616E+03 0.23753734E+03 0.75000000E+00 0.0000E+00 0.9000E+01
       25  2    1    2    0    0 -.15675928E+03 0.20997281E+03 0.19432466E+02 0.39821742E+03 0.29922807E+03 0.0000E+00 0.0000E+00
       23  2    3    3    0    0 0.42273319E+02 0.40234430E+02 0.48923480E+02 0.11963159E+03 0.92262487E+02 0.0000E+00 0.0000E+00
       23  1    1    2    0    0 0.20340386E+02 0.89744963E+02 0.14896382E+04 0.14952609E+04 0.91188000E+02 0.0000E+00 0.9000E+01
      -11  1    4    4    0    0 -.35701701E+01 -.17814837E+02 0.41485849E+02 0.45290068E+02 0.51099893E-03 0.0000E+00 0.9000E+01
       11  1    4    4    0    0 0.45843489E+02 0.58049268E+02 0.74376303E+01 0.74341518E+02 0.51099893E-03 0.0000E+00 0.9000E+01
       23  1    3    3    0    0 -.19903260E+03 0.16973838E+03 -.29491014E+02 0.27858583E+03 0.91188000E+02 0.0000E+00 0.9000E+01
        2  1    1    2  502    0 0.13641890E+03 -.29971777E+03 0.55269216E+03 0.64335806E+03 0.32000000E+00 0.0000E+00 0.9000E+01
#aMCatNLO 2  0  0  2  2 0.32930360D+03 0.00000000D+00  -5  7  0 0.00000000D+00 0.00000000D+00 0.00000000D+00 0.00000000D+00 0.00000000D+00
  <mgrwgt>
 0.5234041454D-04    1    2    0
 0.547614128818472D+03 0.000000000000000D+00 0.000000000000000D+00 0.547614128818472D+03
 0.547614128818472D+03 0.000000000000000D+00 0.000000000000000D+00 -.547614128818472D+03
 0.510534102624376D+03 0.825233444856114D+02 -.468734861039194D+02 0.493277399151686D+03
 0.255682472654723D+02 -.778850996738495D+00 -.239474770266907D+02 0.892451698465138D+01
 0.108101357863680D+03 0.593318264399752D+02 0.284148499671138D+02 -.857801506446241D+02
 0.451024549883416D+03 -.141076319928848D+03 0.424061131634963D+02 -.416421765491714D+03
 0.000000000000000D+00 0.000000000000000D+00 -.000000000000000D+00 0.000000000000000D+00
 0.772839529024808D+03 0.000000000000000D+00 0.000000000000000D+00 0.772839529024808D+03
 0.706703073707105D+03 0.000000000000000D+00 0.000000000000000D+00 -.706703073707105D+03
 0.510005621044948D+03 0.203403856145137D+02 0.897449628260183D+02 0.493277399151686D+03
 0.202425676491455D+02 -.357017009350515D+01 -.178148372747084D+02 0.892451698465138D+01
 0.113267723497085D+03 0.458434886885587D+02 0.580492677512786D+02 -.857801506446241D+02
 0.500147410735250D+03 -.199032600840513D+03 0.169738381483387D+03 -.416421765491714D+03
 0.335879279805486D+03 0.136418896630945D+03 -.299717774785976D+03 0.661364553177030D+02
0.905558545819D-06 0.000000000000D+00 0.000000000000D+00 0.459905666552D-06 0.138394958851D-11  7 2 21 23 -11 11 23 2 2 0.35373836D+00 0.36544114D-01 0.17140073D+06 0.17140073D+06 0.17140073D+06 0.11030099D+01  1  2  1  4  7  2       -2 0.523404145367D-04 0.100000000000D+01
  </mgrwgt>
  </event>
  <event>
  8     66 0.29152272E-05 0.10835548E+04 0.75467711E-02 0.83152715E-01
        2 -1    0    0  501    0 0.00000000E+00 0.00000000E+00 0.11255258E+04 0.11255258E+04 0.32000000E+00 0.0000E+00 0.9000E+01
       -2 -1    0    0    0  501 0.00000000E+00 0.00000000E+00 -.11162079E+04 0.11162080E+04 0.32000000E+00 0.0000E+00 0.9000E+01
       25  2    1    2    0    0 -.10132901E+04 -.31472125E+03 -.27957375E+03 0.11382937E+04 0.30289392E+03 0.0000E+00 0.0000E+00
       23  2    3    3    0    0 -.52864294E+03 -.38055025E+02 -.12250592E+03 0.55142689E+03 0.90290524E+02 0.0000E+00 0.0000E+00
       23  1    1    2    0    0 0.10132901E+04 0.31472125E+03 0.28889157E+03 0.11034401E+04 0.91188000E+02 0.0000E+00 0.9000E+01
      -13  1    4    4    0    0 -.65100713E+02 0.23236840E+02 -.26915654E+02 0.74178954E+02 0.10565837E+00 0.0000E+00 0.9000E+01
       13  1    4    4    0    0 -.46354222E+03 -.61291865E+02 -.95590263E+02 0.47724794E+03 0.10565837E+00 0.0000E+00 0.9000E+01
       23  1    3    3    0    0 -.48464721E+03 -.27666622E+03 -.15706784E+03 0.58686683E+03 0.91188000E+02 0.0000E+00 0.9000E+01
#aMCatNLO 1  0  0  1  2 0.84539549D+03 0.00000000D+00  -5  7  0 0.00000000D+00 0.00000000D+00 0.00000000D+00 0.00000000D+00 0.00000000D+00
  <mgrwgt>
 0.6460016511D-03    6    2    0
 0.112085721149483D+04 0.000000000000000D+00 0.000000000000000D+00 0.112085721149483D+04
 0.112085721149483D+04 0.000000000000000D+00 0.000000000000000D+00 -.112085721149483D+04
 0.110224880329467D+04 0.101329014792240D+04 0.314721250239055D+03 0.284307551415554D+03
 0.742909184299365D+02 -.651001674801744D+02 0.232369552897283D+02 -.272241191607712D+02
 0.477649939449238D+03 -.463542768402092D+03 -.612919806847365D+02 -.975748923736395D+02
 0.587524761815825D+03 -.484647212040130D+03 -.276666224844047D+03 -.159508539881143D+03
 0.000000000000000D+00 -.000000000000000D+00 0.000000000000000D+00 0.000000000000000D+00
 0.165575205317342D+04 0.000000000000000D+00 0.000000000000000D+00 0.165575205317342D+04
 0.158816570617009D+04 0.000000000000000D+00 0.000000000000000D+00 -.158816570617009D+04
 0.128303152861478D+04 0.124671811497956D+04 -.521326199752311D+02 0.284307551415554D+03
 0.588252229194470D+02 -.520731744504676D+02 0.276381802836466D+01 -.272241191607712D+02
 0.436143271453314D+03 -.374117266217671D+03 -.201832516533110D+03 -.975748923736395D+02
 0.617824905765975D+03 -.366689453057806D+03 -.462047869340276D+03 -.159508539881143D+03
 0.848092830589997D+03 -.453838221253619D+03 0.713249187820252D+03 0.675863470033337D+02
0.921400390152D-03 0.000000000000D+00 0.000000000000D+00 0.143612199274D-06 0.000000000000D+00  7 2 -2 23 -13 13 23 21 0 0.17315782D+00 0.17172431D+00 0.11740909D+07 0.11740909D+07 0.11740909D+07 0.10432554D+01  1  2  2  1  7  1        2 0.452106069773D-03 0.100000000000D+01
-.511176105432D-04 0.000000000000D+00 -.353842010848D-05 0.143612199274D-06 0.000000000000D+00  7 2 -2 23 -13 13 23 21 2 0.17315782D+00 0.17172431D+00 0.11740909D+07 0.11740909D+07 0.11740909D+07 0.10432554D+01  1  2  3  1  7  1        2 -.272988148505D-04 0.100000000000D+01
0.593730154012D-04 0.000000000000D+00 0.000000000000D+00 0.143612199274D-06 0.000000000000D+00  7 2 -2 23 -13 13 23 21 2 0.17315782D+00 0.17172431D+00 0.11740909D+07 0.11740909D+07 0.11740909D+07 0.10432554D+01  1  2 15  1  7  1        2 0.317075257887D-04 0.100000000000D+01
-.328079279798D-03 0.000000000000D+00 -.280787655958D-03 0.143612199274D-06 0.000000000000D+00  7 2 -2 23 -13 13 23 21 2 0.31299397D+00 0.17172431D+00 0.11740909D+07 0.11740909D+07 0.11740909D+07 0.10432554D+01  1  2  5  1  7  1        2 -.533785388442D-04 0.100000000000D+01
0.455111273103D-03 0.000000000000D+00 0.237875479824D-03 0.143612199274D-06 0.000000000000D+00  7 2 -2 23 -13 13 23 21 2 0.17315782D+00 0.17172431D+00 0.11740909D+07 0.11740909D+07 0.11740909D+07 0.10432554D+01  1  2  6  1  7  1        2 0.243047322611D-03 0.100000000000D+01
-.625936427039D-05 0.000000000000D+00 -.182134787827D-04 0.143612199274D-06 0.000000000000D+00  7 21 -2 23 -13 13 23 -2 2 0.31299397D+00 0.17172431D+00 0.11740909D+07 0.11740909D+07 0.11740909D+07 0.10432554D+01  1  2  5  3  7  1        2 -.181913404597D-06 0.100000000000D+01
  </mgrwgt>
  </event>
  <event>
  8     66 0.29152272E-05 0.18513010E+03 0.75467711E-02 0.10363850E+00
        2 -1    0    0  501    0 0.00000000E+00 0.00000000E+00 0.19905190E+04 0.19905190E+04 0.32000000E+00 0.0000E+00 0.9000E+01
       -2 -1    0    0    0  501 0.00000000E+00 0.00000000E+00 -.30752387E+02 0.30754052E+02 0.32000000E+00 0.0000E+00 0.9000E+01
       25  2    1    2    0    0 -.45452738E+02 0.12531472E+03 0.11716290E+04 0.12167572E+04 0.30002286E+03 0.0000E+00 0.0000E+00
       23  2    3    3    0    0 -.64739025E+02 0.36317268E+02 0.97118748E+03 0.97846203E+03 0.93127573E+02 0.0000E+00 0.0000E+00
       23  1    1    2    0    0 0.45452738E+02 -.12531472E+03 0.78813760E+03 0.80451592E+03 0.91188000E+02 0.0000E+00 0.9000E+01
      -13  1    4    4    0    0 -.36261558E+01 -.49523566E+01 0.19757607E+01 0.64490027E+01 0.10565837E+00 0.0000E+00 0.9000E+01
       13  1    4    4    0    0 -.61112869E+02 0.41269624E+02 0.96921171E+03 0.97201303E+03 0.10565837E+00 0.0000E+00 0.9000E+01
       23  1    3    3    0    0 0.19286287E+02 0.88997456E+02 0.20044153E+03 0.23829512E+03 0.91188000E+02 0.0000E+00 0.9000E+01
#aMCatNLO 1  0  0  2  2 0.92433477D+02 0.00000000D+00  -5  7  0 0.00000000D+00 0.00000000D+00 0.00000000D+00 0.00000000D+00 0.00000000D+00
  <mgrwgt>
 0.8032043054D-03    4    2    0
 0.247416488755681D+03 0.000000000000000D+00 0.000000000000000D+00 0.247416488755681D+03
 0.247416488755681D+03 0.000000000000000D+00 0.000000000000000D+00 -.247416488755681D+03
 0.164864936603537D+03 0.454527386928397D+02 -.125314725620029D+03 0.330977954762149D+02
 0.185175434860883D+02 -.362608237369267D+01 -.495241536419235D+01 -.174706761586059D+02
 0.131913345531372D+03 -.611129430035048D+02 0.412696814910572D+02 0.109376196296800D+03
 0.179537151890366D+03 0.192862866843578D+02 0.889974594931644D+02 -.125003315614409D+03
 0.000000000000000D+00 0.000000000000000D+00 -.000000000000000D+00 0.000000000000000D+00
 0.351571084443800D+03 0.000000000000000D+00 0.000000000000000D+00 0.351571084443800D+03
 0.273082655284036D+03 0.000000000000000D+00 0.000000000000000D+00 -.273082655284036D+03
 0.142831428887798D+03 0.347990979519909D+02 -.988894557092537D+02 0.330977954762149D+02
 0.182331181530896D+02 -.489853271761237D+01 -.179623198950699D+01 -.174706761586059D+02
 0.145613456171715D+03 -.707219965150086D+02 0.651039592563073D+02 0.109376196296800D+03
 0.196714113635025D+03 0.625900959970184D+01 0.121310292405256D+03 -.125003315614409D+03
 0.121261622880209D+03 0.345624216809282D+02 -.857285639628025D+02 0.784884291597645D+02
0.537533463504D-05 0.000000000000D+00 0.000000000000D+00 0.807239763750D-07 0.000000000000D+00  7 2 -2 23 -13 13 23 21 0 0.30623382D+00 0.47312665D-02 0.34273153D+05 0.34273153D+05 0.34273153D+05 0.11620078D+01  1  2  2  2  7  2       -2 0.919912709827D-03 0.100000000000D+01
-.268090808294D-06 0.000000000000D+00 -.206427003567D-07 0.807239763750D-07 0.000000000000D+00  7 2 -2 23 -13 13 23 21 2 0.30623382D+00 0.47312665D-02 0.34273153D+05 0.34273153D+05 0.34273153D+05 0.11620078D+01  1  2  3  2  7  2       -2 -.619499762102D-04 0.100000000000D+01
0.338782240639D-06 0.000000000000D+00 0.000000000000D+00 0.807239763750D-07 0.000000000000D+00  7 2 -2 23 -13 13 23 21 2 0.30623382D+00 0.47312665D-02 0.34273153D+05 0.34273153D+05 0.34273153D+05 0.11620078D+01  1  2 15  2  7  2       -2 0.782852343261D-04 0.100000000000D+01
-.575751359607D-06 0.000000000000D+00 0.000000000000D+00 0.807239763750D-07 0.000000000000D+00  7 2 -2 23 -13 13 23 21 2 0.30623382D+00 0.47312665D-02 0.34273153D+05 0.34273153D+05 0.34273153D+05 0.11620078D+01  1  2  4  2  7  2       -2 -.133043662547D-03 0.100000000000D+01
  </mgrwgt>
  </event>
  <event>
  8     66 0.29152272E-05 0.28739349E+03 0.75467711E-02 0.92909298E-01
        2 -1    0    0  501    0 0.00000000E+00 0.00000000E+00 0.26749698E+03 0.26749718E+03 0.32000000E+00 0.0000E+00 0.9000E+01
       -2 -1    0    0    0  501 0.00000000E+00 0.00000000E+00 -.96583371E+03 0.96583376E+03 0.32000000E+00 0.0000E+00 0.9000E+01
       25  2    1    2    0    0 0.40536695E+03 0.25676257E+02 -.11600499E+03 0.51750475E+03 0.29895213E+03 0.0000E+00 0.0000E+00
       23  2    3    3    0    0 0.13943792E+03 -.37103664E+02 0.58236809E+02 0.18085208E+03 0.92175551E+02 0.0000E+00 0.0000E+00
       23  1    1    2    0    0 -.40536695E+03 -.25676257E+02 -.58233173E+03 0.71582619E+03 0.91188000E+02 0.0000E+00 0.9000E+01
      -11  1    4    4    0    0 0.20348470E+02 0.25648988E+02 -.31750451E+01 0.32893946E+02 0.51099893E-03 0.0000E+00 0.9000E+01
       11  1    4    4    0    0 0.11908945E+03 -.62752651E+02 0.61411854E+02 0.14795813E+03 0.51099893E-03 0.0000E+00 0.9000E+01
       23  1    3    3    0    0 0.26592902E+03 0.62779921E+02 -.17424180E+03 0.33665267E+03 0.91188000E+02 0.0000E+00 0.9000E+01
#aMCatNLO 1  0  0  2  1 0.25133525D+03 0.00000000D+00  -5  7  0 0.00000000D+00 0.00000000D+00 0.00000000D+00 0.00000000D+00 0.00000000D+00
  <mgrwgt>
 0.9112783419D-03    8    2    0
 0.508289046636288D+03 0.000000000000000D+00 0.000000000000000D+00 0.508289046636288D+03
 0.508289046636288D+03 0.000000000000000D+00 0.000000000000000D+00 -.508289046636288D+03
 0.468421413473968D+03 -.405366947131932D+03 -.256762573770001D+02 -.214759719773047D+03
 0.377264386401644D+02 0.203484698789147D+02 0.256489876129484D+02 0.187444226501594D+02
 0.221692261432383D+03 0.119089453868090D+03 -.627526511873548D+02 0.176145580487738D+03
 0.288737979726061D+03 0.265929023384927D+03 0.627799209514064D+02 0.198697166351490D+02
 0.000000000000000D+00 -.000000000000000D+00 0.000000000000000D+00 -.000000000000000D+00
 0.560389261584174D+03 0.000000000000000D+00 0.000000000000000D+00 0.560389261584174D+03
 0.952782358901590D+03 0.000000000000000D+00 0.000000000000000D+00 -.952782358901590D+03
 0.446294139170585D+03 -.358688331339676D+03 -.126823306366672D+03 -.214759719773047D+03
 0.352126256874086D+02 0.240706046454550D+02 0.175835610533229D+02 0.187444226501594D+02
 0.254791776466365D+03 0.143404789134792D+03 -.115441111752832D+03 0.176145580487738D+03
 0.310888369610929D+03 0.296528402501957D+03 -.352532066883198D+01 0.198697166351490D+02
 0.465984709550475D+03 -.105315464942528D+03 0.228206177735014D+03 -.392393097317416D+03
0.921453419404D-04 0.000000000000D+00 0.000000000000D+00 0.240596603634D-06 0.000000000000D+00  7 2 -2 23 -11 11 23 21 0 0.41153401D-01 0.14858982D+00 0.18996284D+06 0.18996284D+06 0.18996284D+06 0.10995469D+01  1  2  2  2  7  2       -2 0.425116738298D-03 0.100000000000D+01
-.497203573684D-05 0.000000000000D+00 -.353862375477D-06 0.240596603634D-06 0.000000000000D+00  7 2 -2 23 -11 11 23 21 2 0.41153401D-01 0.14858982D+00 0.18996284D+06 0.18996284D+06 0.18996284D+06 0.10995469D+01  1  2  3  2  7  2       -2 -.277329841069D-04 0.100000000000D+01
0.579317593676D-05 0.000000000000D+00 0.000000000000D+00 0.240596603634D-06 0.000000000000D+00  7 2 -2 23 -11 11 23 21 2 0.41153401D-01 0.14858982D+00 0.18996284D+06 0.18996284D+06 0.18996284D+06 0.10995469D+01  1  2 15  2  7  2       -2 0.323131338322D-04 0.100000000000D+01
0.454911679242D-04 0.000000000000D+00 0.000000000000D+00 0.240596603634D-06 0.000000000000D+00  7 2 -2 23 -11 11 23 21 2 0.41153401D-01 0.28012008D+00 0.34030790D+06 0.34030790D+06 0.34030790D+06 0.10805243D+01  1  2 12  2  7  2       -2 0.301816902945D-04 0.100000000000D+01
-.918492693938D-04 0.000000000000D+00 -.260281713840D-04 0.240596603634D-06 0.000000000000D+00  7 2 -2 23 -11 11 23 21 2 0.41153401D-01 0.28839395D+00 0.18996284D+06 0.18996284D+06 0.18996284D+06 0.10995469D+01  1  2  5  2  7  2       -2 -.576634504460D-04 0.100000000000D+01
0.927835195032D-04 0.000000000000D+00 0.211946733814D-04 0.240596603634D-06 0.000000000000D+00  7 2 -2 23 -11 11 23 21 2 0.41153401D-01 0.14858982D+00 0.18996284D+06 0.18996284D+06 0.18996284D+06 0.10995469D+01  1  2  6  2  7  2       -2 0.517527227872D-03 0.100000000000D+01
0.313718712294D-05 0.000000000000D+00 0.000000000000D+00 0.240596603634D-06 0.000000000000D+00  7 2 21 23 -11 11 23 2 2 0.41153401D-01 0.28012008D+00 0.34030790D+06 0.34030790D+06 0.34030790D+06 0.10805243D+01  1  2 12  4  7  2       -2 0.150858866458D-04 0.100000000000D+01
-.508305917866D-05 0.000000000000D+00 -.187125004390D-05 0.240596603634D-06 0.000000000000D+00  7 2 21 23 -11 11 23 2 2 0.41153401D-01 0.28839395D+00 0.18996284D+06 0.18996284D+06 0.18996284D+06 0.10995469D+01  1  2  5  4  7  2       -2 -.235499004711D-04 0.100000000000D+01
  </mgrwgt>
  </event>
  <event>
  8     66 0.29152272E-05 0.22706896E+03 0.75467711E-02 0.10358207E+00
        2 -1    0    0  501    0 0.00000000E+00 0.00000000E+00 0.40950867E+03 0.40950880E+03 0.32000000E+00 0.0000E+00 0.9000E+01
       -2 -1    0    0    0  501 0.00000000E+00 0.00000000E+00 -.43786337E+03 0.43786349E+03 0.32000000E+00 0.0000E+00 0.9000E+01
       25  2    1    2    0    0 0.10914763E+03 -.12897141E+03 -.33851482E+03 0.48259649E+03 0.29960017E+03 0.0000E+00 0.0000E+00
       23  2    3    3    0    0 -.98716841E+01 -.27633843E+02 0.14018040E+02 0.86326927E+02 0.79967202E+02 0.0000E+00 0.0000E+00
       23  1    1    2    0    0 -.10914763E+03 0.12897141E+03 0.31016012E+03 0.36477579E+03 0.91188000E+02 0.0000E+00 0.9000E+01
      -13  1    4    4    0    0 0.32335579E+02 -.20715590E+02 -.64010869E+01 0.38932125E+02 0.10565837E+00 0.0000E+00 0.9000E+01
       13  1    4    4    0    0 -.42207263E+02 -.69182537E+01 0.20419127E+02 0.47394801E+02 0.10565837E+00 0.0000E+00 0.9000E+01
       23  1    3    3    0    0 0.11901931E+03 -.10133757E+03 -.35253286E+03 0.39626956E+03 0.91188000E+02 0.0000E+00 0.9000E+01
#aMCatNLO 1  0  0  2  2 0.32234105D+02 0.00000000D+00  -5  7  0 0.00000000D+00 0.00000000D+00 0.00000000D+00 0.00000000D+00 0.00000000D+00
  <mgrwgt>
 0.4313052387D-02    4    2    0
 0.423448874689480D+03 0.000000000000000D+00 0.000000000000000D+00 0.423448874689480D+03
 0.423448874689480D+03 0.000000000000000D+00 0.000000000000000D+00 -.423448874689480D+03
 0.375364552286907D+03 -.109147626282702D+03 0.128971412554432D+03 0.322546843404359D+03
 0.387396102268506D+02 0.323357084100172D+02 -.207156134723908D+02 -.510124696649274D+01
 0.481050196883275D+02 -.422073927662973D+02 -.691822962149644D+01 0.220174252352572D+02
 0.384688567176874D+03 0.119019310638982D+03 -.101337569460545D+03 -.339463021673123D+03
 0.000000000000000D+00 0.000000000000000D+00 0.000000000000000D+00 0.000000000000000D+00
 0.497159337116994D+03 0.000000000000000D+00 0.000000000000000D+00 0.497159337116994D+03
 0.427294252608685D+03 0.000000000000000D+00 0.000000000000000D+00 -.427294252608685D+03
 0.375834835857666D+03 -.120335932246399D+03 0.120080680046513D+03 0.322546843404359D+03
 0.382946326515200D+02 0.311883663160176D+02 -.216273432450592D+02 -.510124696649274D+01
 0.495613927990853D+02 -.436620288090460D+02 -.807414902470370D+01 0.220174252352572D+02
 0.383820103461451D+03 0.107573201551894D+03 -.110433163957152D+03 -.339463021673123D+03
 0.769426249559567D+02 0.252363931875330D+02 0.200539761804022D+02 0.698650845083087D+02
0.239022136829D-03 0.000000000000D+00 0.000000000000D+00 0.108036175792D-07 0.000000000000D+00  7 2 -2 23 -13 13 23 21 0 0.63001353D-01 0.67363614D-01 0.51560313D+05 0.51560313D+05 0.51560313D+05 0.11461234D+01  1  2  2  2  7  2       -2 0.476618573087D-02 0.100000000000D+01
-.700893216069D-05 0.000000000000D+00 -.917907941396D-06 0.108036175792D-07 0.000000000000D+00  7 2 -2 23 -13 13 23 21 2 0.63001353D-01 0.67363614D-01 0.51560313D+05 0.51560313D+05 0.51560313D+05 0.11461234D+01  1  2  3  2  7  2       -2 -.183589326472D-03 0.100000000000D+01
0.148042154046D-04 0.000000000000D+00 0.000000000000D+00 0.108036175792D-07 0.000000000000D+00  7 2 -2 23 -13 13 23 21 2 0.63001353D-01 0.67363614D-01 0.51560313D+05 0.51560313D+05 0.51560313D+05 0.11461234D+01  1  2 15  2  7  2       -2 0.387776036742D-03 0.100000000000D+01
-.250946596860D-04 0.000000000000D+00 0.000000000000D+00 0.108036175792D-07 0.000000000000D+00  7 2 -2 23 -13 13 23 21 2 0.63001353D-01 0.67363614D-01 0.51560313D+05 0.51560313D+05 0.51560313D+05 0.11461234D+01  1  2  4  2  7  2       -2 -.657320054490D-03 0.100000000000D+01
  </mgrwgt>
  </event>
  <event>
  8     66 0.29152272E-05 0.40361467E+03 0.75467711E-02 0.84982096E-01
        2 -1    0    0  501    0 0.00000000E+00 0.00000000E+00 0.15918653E+04 0.15918653E+04 0.32000000E+00 0.0000E+00 0.9000E+01
       -2 -1    0    0    0  501 0.00000000E+00 0.00000000E+00 -.11186903E+03 0.11186949E+03 0.32000000E+00 0.0000E+00 0.9000E+01
       25  2    1    2    0    0 -.26712567E+03 -.24416282E+03 0.80340553E+03 0.93103703E+03 0.30066242E+03 0.0000E+00 0.0000E+00
       23  2    3    3    0    0 -.85531664E+02 -.20173755E+03 0.57779462E+03 0.62445617E+03 0.89917642E+02 0.0000E+00 0.0000E+00
       23  1    1    2    0    0 0.26712567E+03 0.24416282E+03 0.67659074E+03 0.77269780E+03 0.91188000E+02 0.0000E+00 0.9000E+01
      -13  1    4    4    0    0 -.94003494E+02 -.18968611E+03 0.56944307E+03 0.60752193E+03 0.10565837E+00 0.0000E+00 0.9000E+01
       13  1    4    4    0    0 0.84718298E+01 -.12051431E+02 0.83515565E+01 0.16934242E+02 0.10565837E+00 0.0000E+00 0.9000E+01
       23  1    3    3    0    0 -.18159401E+03 -.42425271E+02 0.22561091E+03 0.30658086E+03 0.91188000E+02 0.0000E+00 0.9000E+01
#aMCatNLO 1  0  0  2  2 0.11826359D+04 0.00000000D+00  -5  7  0 0.00000000D+00 0.00000000D+00 0.00000000D+00 0.00000000D+00 0.00000000D+00
  <mgrwgt>
 0.5138393500D-03    3    2    0
 0.421996265389981D+03 0.000000000000000D+00 0.000000000000000D+00 0.421996265389981D+03
 0.421996265389981D+03 0.000000000000000D+00 0.000000000000000D+00 -.421996265389981D+03
 0.373368677747293D+03 0.267125672665187D+03 0.244162816580032D+03 0.108310748145785D+02
 0.227825354540314D+03 -.940036355850020D+02 -.189686359553344D+03 0.841830960919208D+02
 0.195392048413319D+02 0.847197127906969D+01 -.120511860774590D+02 -.128364770324495D+02
 0.223259293651023D+03 -.181594008359255D+03 -.424252709492292D+02 -.821776938740499D+02
 0.000000000000000D+00 -.000000000000000D+00 -.000000000000000D+00 0.000000000000000D+00
 0.133328287897693D+04 0.000000000000000D+00 0.000000000000000D+00 0.133328287897693D+04
 0.130266068269267D+04 0.000000000000000D+00 0.000000000000000D+00 -.130266068269267D+04
 0.110003597561314D+04 0.993304066138666D+03 0.463674041013632D+03 0.108310748145785D+02
 0.189199874382173D+03 0.111530336420691D+03 -.127556978862374D+03 0.841830960919208D+02
 0.401135067324057D+02 0.378722518864071D+02 -.316398748712566D+01 -.128364770324495D+02
 0.123561897670107D+03 -.106606161226243D+02 0.924495025767872D+01 -.821776938740499D+02
 0.118303230727177D+04 -.113204603832314D+04 -.342198024921812D+03 0.306221962842596D+02
0.135311683835D-04 0.000000000000D+00 0.000000000000D+00 0.190852792520D-06 0.000000000000D+00  7 2 -2 23 -13 13 23 21 0 0.24490239D+00 0.17210658D-01 0.16290480D+06 0.16290480D+06 0.16290480D+06 0.11047345D+01  1  2  2  2  7  2       -2 0.507945615655D-03 0.100000000000D+01
-.749918720303D-06 0.000000000000D+00 -.519632494310D-07 0.190852792520D-06 0.000000000000D+00  7 2 -2 23 -13 13 23 21 2 0.24490239D+00 0.17210658D-01 0.16290480D+06 0.16290480D+06 0.16290480D+06 0.11047345D+01  1  2  3  2  7  2       -2 -.343567378448D-04 0.100000000000D+01
0.878563697292D-06 0.000000000000D+00 0.000000000000D+00 0.190852792520D-06 0.000000000000D+00  7 2 -2 23 -13 13 23 21 2 0.24490239D+00 0.17210658D-01 0.16290480D+06 0.16290480D+06 0.16290480D+06 0.11047345D+01  1  2 15  2  7  2       -2 0.402504722321D-04 0.100000000000D+01
  </mgrwgt>
  </event>
  <event>
  8     66 0.29152272E-05 0.23525902E+03 0.75467711E-02 0.87380763E-01
        2 -1    0    0  501    0 0.00000000E+00 0.00000000E+00 0.28336711E+04 0.28336711E+04 0.32000000E+00 0.0000E+00 0.9000E+01
       -2 -1    0    0    0  501 0.00000000E+00 0.00000000E+00 -.29927279E+03 0.29927296E+03 0.32000000E+00 0.0000E+00 0.9000E+01
       25  2    1    2    0    0 -.56348459E+03 -.62702328E+03 0.18026881E+04 0.20129494E+04 0.30266773E+03 0.0000E+00 0.0000E+00
       23  2    3    3    0    0 -.27508053E+03 -.13879579E+03 0.64824635E+03 0.72353324E+03 0.91342495E+02 0.0000E+00 0.0000E+00
       23  1    1    2    0    0 0.56348459E+03 0.62702328E+03 0.73171026E+03 0.11199947E+04 0.91188000E+02 0.0000E+00 0.9000E+01
      -13  1    4    4    0    0 -.12524402E+03 -.48987536E+02 0.38304432E+03 0.40596651E+03 0.10565837E+00 0.0000E+00 0.9000E+01
       13  1    4    4    0    0 -.14983651E+03 -.89808256E+02 0.26520203E+03 0.31756674E+03 0.10565837E+00 0.0000E+00 0.9000E+01
       23  1    3    3    0    0 -.28840407E+03 -.48822749E+03 0.11544417E+04 0.12894161E+04 0.91188000E+02 0.0000E+00 0.9000E+01
#aMCatNLO 1  0  0  2  1 0.25199458D+03 0.00000000D+00  -5  7  0 0.00000000D+00 0.00000000D+00 0.00000000D+00 0.00000000D+00 0.00000000D+00
  <mgrwgt>
 0.1442080770D-02    8    2    0
 0.920891396014319D+03 0.000000000000000D+00 0.000000000000000D+00 0.920891396014319D+03
 0.920891396014319D+03 0.000000000000000D+00 0.000000000000000D+00 -.920891396014319D+03
 0.898279472598576D+03 0.563484590658932D+03 0.627023278695348D+03 -.296509162779242D+03
 0.163473923768735D+03 -.125243984654381D+03 -.489874812321870D+02 0.929402751382058D+02
 0.175260227074442D+03 -.149836540625517D+03 -.898083111141497D+02 0.141288903452050D+02
 0.604769168586885D+03 -.288404065379034D+03 -.488227486349011D+03 0.189439997295831D+03
 0.000000000000000D+00 -.000000000000000D+00 -.000000000000000D+00 -.000000000000000D+00
 0.947505056471450D+03 0.000000000000000D+00 0.000000000000000D+00 0.947505056471450D+03
 0.180976593241124D+04 0.000000000000000D+00 0.000000000000000D+00 -.180976593241124D+04
 0.984013841058608D+03 0.691655533541910D+03 0.627425634923951D+03 -.296509162779242D+03
 0.147839979556789D+03 -.104045696251451D+03 -.489209352336729D+02 0.929402751382058D+02
 0.156353796423824D+03 -.127255956740634D+03 -.897374257920383D+02 0.141288903452050D+02
 0.570734319082282D+03 -.208360541193076D+03 -.487976212465936D+03 0.189439997295831D+03
 0.898329052761190D+03 -.251993339356750D+03 -.791061432303016D+00 -.862260875939794D+03
0.247534937996D-03 0.000000000000D+00 0.000000000000D+00 0.171242926841D-06 0.000000000000D+00  7 2 -2 23 -13 13 23 21 0 0.43594942D+00 0.46041982D-01 0.74946939D+06 0.74946939D+06 0.74946939D+06 0.10563043D+01  1  2  2  2  7  2       -2 0.298932039312D-03 0.100000000000D+01
-.136881197000D-04 0.000000000000D+00 -.950599339350D-06 0.171242926841D-06 0.000000000000D+00  7 2 -2 23 -13 13 23 21 2 0.43594942D+00 0.46041982D-01 0.74946939D+06 0.74946939D+06 0.74946939D+06 0.10563043D+01  1  2  3  2  7  2       -2 -.184441173178D-04 0.100000000000D+01
0.151190919801D-04 0.000000000000D+00 0.000000000000D+00 0.171242926841D-06 0.000000000000D+00  7 2 -2 23 -13 13 23 21 2 0.43594942D+00 0.46041982D-01 0.74946939D+06 0.74946939D+06 0.74946939D+06 0.10563043D+01  1  2 15  2  7  2       -2 0.203722872337D-04 0.100000000000D+01
0.960879841452D-03 0.000000000000D+00 0.000000000000D+00 0.171242926841D-06 0.000000000000D+00  7 2 -2 23 -13 13 23 21 2 0.43594942D+00 0.90525390D-01 0.99933699D+06 0.99933699D+06 0.99933699D+06 0.10478831D+01  1  2 12  2  7  2       -2 0.292306136568D-03 0.100000000000D+01
-.100515435525D-02 0.000000000000D+00 -.774806042916D-04 0.171242926841D-06 0.000000000000D+00  7 2 -2 23 -13 13 23 21 2 0.43594942D+00 0.91596203D-01 0.74946939D+06 0.74946939D+06 0.74946939D+06 0.10563043D+01  1  2  5  2  7  2       -2 -.309256136084D-03 0.100000000000D+01
0.861731587580D-03 0.000000000000D+00 0.621817558430D-04 0.171242926841D-06 0.000000000000D+00  7 2 -2 23 -13 13 23 21 2 0.43594942D+00 0.46041982D-01 0.74946939D+06 0.74946939D+06 0.74946939D+06 0.10563043D+01  1  2  6  2  7  2       -2 0.116114403191D-02 0.100000000000D+01
0.703575143608D-04 0.000000000000D+00 0.000000000000D+00 0.171242926841D-06 0.000000000000D+00  7 2 21 23 -13 13 23 2 2 0.43594942D+00 0.90525390D-01 0.99933699D+06 0.99933699D+06 0.99933699D+06 0.10478831D+01  1  2 12  4  7  2       -2 0.193564009511D-03 0.100000000000D+01
-.701987336030D-04 0.000000000000D+00 -.576794591752D-05 0.171242926841D-06 0.000000000000D+00  7 2 21 23 -13 13 23 2 2 0.43594942D+00 0.91596203D-01 0.74946939D+06 0.74946939D+06 0.74946939D+06 0.10563043D+01  1  2  5  4  7  2       -2 -.196537481097D-03 0.100000000000D+01
  </mgrwgt>
  </event>
  <event>
  8     66 0.29152272E-05 0.29183788E+03 0.75467711E-02 0.89097258E-01
        2 -1    0    0  501    0 0.00000000E+00 0.00000000E+00 0.24880742E+03 0.24880763E+03 0.32000000E+00 0.0000E+00 0.9000E+01
       -2 -1    0    0    0  501 0.00000000E+00 0.00000000E+00 -.63678692E+03 0.63678700E+03 0.32000000E+00 0.0000E+00 0.9000E+01
       25  2    1    2    0    0 0.26227367E+03 -.67558841E+02 -.43714345E+03 0.59562218E+03 0.30053237E+03 0.0000E+00 0.0000E+00
       23  2    3    3    0    0 0.12576712E+03 -.34911752E+02 -.38190360E+02 0.16298065E+03 0.89821986E+02 0.0000E+00 0.0000E+00
       23  1    1    2    0    0 -.26227367E+03 0.67558841E+02 0.49163955E+02 0.28997245E+03 0.91188000E+02 0.0000E+00 0.9000E+01
      -11  1    4    4    0    0 0.30790865E+02 -.88287452E+01 0.29438680E+02 0.43504712E+02 0.51099893E-03 0.0000E+00 0.9000E+01
       11  1    4    4    0    0 0.94976255E+02 -.26083007E+02 -.67629040E+02 0.11947594E+03 0.51099893E-03 0.0000E+00 0.9000E+01
       23  1    3    3    0    0 0.13650655E+03 -.32647088E+02 -.39895309E+03 0.43264153E+03 0.91188000E+02 0.0000E+00 0.9000E+01
#aMCatNLO 1  0  0  2  2 0.73697117D+03 0.00000000D+00  -5  7  0 0.00000000D+00 0.00000000D+00 0.00000000D+00 0.00000000D+00 0.00000000D+00
  <mgrwgt>
 0.4257776312D-03    3    2    0
 0.398042004451203D+03 0.000000000000000D+00 0.000000000000000D+00 0.398042004451203D+03
 0.398042004451203D+03 0.000000000000000D+00 0.000000000000000D+00 -.398042004451203D+03
 0.346537105258538D+03 -.262273669595020D+03 0.675588405398505D+02 0.196012854882124D+03
 0.627435583378927D+02 0.307908648032140D+02 -.882874516689200D+01 0.539511817882502D+02
 0.999499612587654D+02 0.949762549439997D+02 -.260830072669930D+02 -.170053663398079D+02
 0.286853384047209D+03 0.136506549847806D+03 -.326470881059656D+02 -.232958670330566D+03
 0.000000000000000D+00 -.000000000000000D+00 -.000000000000000D+00 0.000000000000000D+00
 0.102627310155211D+04 0.000000000000000D+00 0.000000000000000D+00 0.102627310155211D+04
 0.823045156984081D+03 0.000000000000000D+00 0.000000000000000D+00 -.823045156984081D+03
 0.333668717945687D+03 -.642335755698844D+02 0.245911712779172D+03 0.196012854882124D+03
 0.101213353853052D+03 0.785264783464939D+02 0.341614575264558D+02 0.539511817882502D+02
 0.185379065610494D+03 0.178049032890981D+03 0.487314823174395D+02 -.170053663398079D+02
 0.464578141771439D+03 0.355283815419518D+03 0.164381467588556D+03 -.232958670330566D+03
 0.764478979355522D+03 -.547625751087109D+03 -.493186120211623D+03 0.203227944568032D+03
0.284548953107D-04 0.000000000000D+00 0.000000000000D+00 0.203662159198D-06 0.000000000000D+00  7 2 -2 23 -11 11 23 21 0 0.38278087D-01 0.97967240D-01 0.85169346D+05 0.85169346D+05 0.85169346D+05 0.11274884D+01  1  2  2  2  7  2       -2 0.419255605526D-03 0.100000000000D+01
-.139568977108D-05 0.000000000000D+00 -.109274290339D-06 0.203662159198D-06 0.000000000000D+00  7 2 -2 23 -11 11 23 21 2 0.38278087D-01 0.97967240D-01 0.85169346D+05 0.85169346D+05 0.85169346D+05 0.11274884D+01  1  2  3  2  7  2       -2 -.261417672945D-04 0.100000000000D+01
0.174389593576D-05 0.000000000000D+00 0.000000000000D+00 0.203662159198D-06 0.000000000000D+00  7 2 -2 23 -11 11 23 21 2 0.38278087D-01 0.97967240D-01 0.85169346D+05 0.85169346D+05 0.85169346D+05 0.11274884D+01  1  2 15  2  7  2       -2 0.326637929741D-04 0.100000000000D+01
  </mgrwgt>
  </event>
  <event>
  8     66 0.29152272E-05 0.18970501E+03 0.75467711E-02 0.10037408E+00
        2 -1    0    0  501    0 0.00000000E+00 0.00000000E+00 0.26362197E+04 0.26362198E+04 0.32000000E+00 0.0000E+00 0.9000E+01
       -2 -1    0    0    0  501 0.00000000E+00 0.00000000E+00 -.42522660E+02 0.42523864E+02 0.32000000E+00 0.0000E+00 0.9000E+01
       25  2    1    2    0    0 0.10050723E+03 0.21236277E+02 0.58542103E+03 0.66577551E+03 0.29997761E+03 0.0000E+00 0.0000E+00
       23  2    3    3    0    0 -.55400976E+02 -.42815119E+01 0.88866733E+02 0.13677650E+03 0.87880126E+02 0.0000E+00 0.0000E+00
       23  1    1    2    0    0 -.10050723E+03 -.21236277E+02 0.20082760E+04 0.20129681E+04 0.91188000E+02 0.0000E+00 0.9000E+01
      -13  1    4    4    0    0 -.25604735E+02 -.12831090E+02 0.99860243E+02 0.10388608E+03 0.10565837E+00 0.0000E+00 0.9000E+01
       13  1    4    4    0    0 -.29796242E+02 0.85495778E+01 -.10993510E+02 0.32890420E+02 0.10565837E+00 0.0000E+00 0.9000E+01
       23  1    3    3    0    0 0.15590821E+03 0.25517788E+02 0.49655429E+03 0.52899900E+03 0.91188000E+02 0.0000E+00 0.9000E+01
#aMCatNLO 1  0  0  1  1 0.20980299D+03 0.00000000D+00  -5  7  0 0.00000000D+00 0.00000000D+00 0.00000000D+00 0.00000000D+00 0.00000000D+00
  <mgrwgt>
 0.8685400207D-03    6    2    0
 0.334814448024995D+03 0.000000000000000D+00 0.000000000000000D+00 0.334814448024995D+03
 0.334814448024995D+03 0.000000000000000D+00 0.000000000000000D+00 -.334814448024995D+03
 0.273831930012063D+03 -.100507229910170D+03 -.212362765399894D+02 0.236888142051544D+03
 0.287873261363657D+02 -.256047283750417D+02 -.128311204449350D+02 -.291039156289768D+01
 0.174154637535521D+03 -.297962480817536D+02 0.854960855708671D+01 -.171373643156991D+03
 0.192855002366041D+03 0.155908206366965D+03 0.255177884278377D+02 -.626041073316555D+02
 0.000000000000000D+00 -.000000000000000D+00 -.000000000000000D+00 0.000000000000000D+00
 0.563645941028282D+03 0.000000000000000D+00 0.000000000000000D+00 0.563645941028282D+03
 0.402579536055421D+03 0.000000000000000D+00 0.000000000000000D+00 -.402579536055421D+03
 0.260218345014734D+03 -.434955494853578D+02 0.372891548381180D+02 0.236888142051544D+03
 0.216897276892765D+02 -.202161314656044D+02 -.729944770177720D+01 -.291039156289768D+01
 0.177907085173766D+03 0.778753637356480D+01 0.471313023727986D+02 -.171373643156991D+03
 0.241911393709728D+03 0.202320995558536D+03 0.731629111230048D+02 -.626041073316555D+02
 0.264498925496199D+03 -.146396850981139D+03 -.150283920632144D+03 0.161066404972861D+03
0.121849481539D-04 0.000000000000D+00 0.000000000000D+00 0.933730506107D-07 0.000000000000D+00  7 2 -2 23 -13 13 23 21 0 0.40557236D+00 0.65420418D-02 0.35987992D+05 0.35987992D+05 0.35987992D+05 0.11600731D+01  1  2  2  1  7  1        2 0.573460392043D-03 0.100000000000D+01
-.411302628644D-06 0.000000000000D+00 -.467934092816D-07 0.933730506107D-07 0.000000000000D+00  7 2 -2 23 -13 13 23 21 2 0.40557236D+00 0.65420418D-02 0.35987992D+05 0.35987992D+05 0.35987992D+05 0.11600731D+01  1  2  3  1  7  1        2 -.260502507910D-04 0.100000000000D+01
0.734895640535D-06 0.000000000000D+00 0.000000000000D+00 0.933730506107D-07 0.000000000000D+00  7 2 -2 23 -13 13 23 21 2 0.40557236D+00 0.65420418D-02 0.35987992D+05 0.35987992D+05 0.35987992D+05 0.11600731D+01  1  2 15  1  7  1        2 0.465453279602D-04 0.100000000000D+01
-.326630550153D-05 0.000000000000D+00 -.276231901000D-05 0.933730506107D-07 0.000000000000D+00  7 2 -2 23 -13 13 23 21 2 0.70191244D+00 0.65420418D-02 0.35987992D+05 0.35987992D+05 0.35987992D+05 0.11600731D+01  1  2  5  1  7  1        2 -.803904107129D-05 0.100000000000D+01
0.446231920143D-05 0.000000000000D+00 0.239319109764D-05 0.933730506107D-07 0.000000000000D+00  7 2 -2 23 -13 13 23 21 2 0.40557236D+00 0.65420418D-02 0.35987992D+05 0.35987992D+05 0.35987992D+05 0.11600731D+01  1  2  6  1  7  1        2 0.282625313361D-03 0.100000000000D+01
-.610116772621D-07 0.000000000000D+00 -.167904777994D-06 0.933730506107D-07 0.000000000000D+00  7 21 -2 23 -13 13 23 -2 2 0.70191244D+00 0.65420418D-02 0.35987992D+05 0.35987992D+05 0.35987992D+05 0.11600731D+01  1  2  5  3  7  1        2 -.172081385577D-08 0.100000000000D+01
  </mgrwgt>
  </event>
  <event>
  8     66 0.29152272E-05 0.15781425E+03 0.75467711E-02 0.92461070E-01
        2 -1    0    0  501    0 0.00000000E+00 0.00000000E+00 0.60690819E+03 0.60690827E+03 0.32000000E+00 0.0000E+00 0.9000E+01
       -2 -1    0    0    0  501 0.00000000E+00 0.00000000E+00 -.60951256E+03 0.60951264E+03 0.32000000E+00 0.0000E+00 0.9000E+01
       25  2    1    2    0    0 -.20965664E+03 -.50247510E+03 0.15782766E+03 0.64153760E+03 0.30037275E+03 0.0000E+00 0.0000E+00
       23  2    3    3    0    0 -.26211878E+02 -.27740909E+03 0.16754409E+03 0.33704400E+03 0.88796254E+02 0.0000E+00 0.0000E+00
       23  1    1    2    0    0 0.20965664E+03 0.50247510E+03 -.16043203E+03 0.57488331E+03 0.91188000E+02 0.0000E+00 0.9000E+01
      -13  1    4    4    0    0 -.38475270E+02 -.26552102E+03 0.17285643E+03 0.31915688E+03 0.10565837E+00 0.0000E+00 0.9000E+01
       13  1    4    4    0    0 0.12263392E+02 -.11888070E+02 -.53123451E+01 0.17887123E+02 0.10565837E+00 0.0000E+00 0.9000E+01
       23  1    3    3    0    0 -.18344477E+03 -.22506601E+03 -.97164234E+01 0.30449360E+03 0.91188000E+02 0.0000E+00 0.9000E+01
#aMCatNLO 1  0  0  2  1 0.71975299D+02 0.00000000D+00  -5  7  0 0.00000000D+00 0.00000000D+00 0.00000000D+00 0.00000000D+00 0.00000000D+00
  <mgrwgt>
 0.6211953484D-03    9    2    0
 0.608209060893304D+03 0.000000000000000D+00 0.000000000000000D+00 0.608209060893304D+03
 0.608209060893304D+03 0.000000000000000D+00 0.000000000000000D+00 -.608209060893304D+03
 0.574541139839334D+03 0.209656643072015D+03 0.502475097235708D+03 -.159201566253667D+03
 0.319528125191170D+03 -.384753417215800D+02 -.265521374426388D+03 0.173540400455668D+03
 0.178753631908587D+02 0.122634637772515D+02 -.118877112531610D+02 -.527431384642731D+01
 0.304473493565246D+03 -.183444765127687D+03 -.225066011556159D+03 -.906452035557409D+01
 0.000000000000000D+00 0.000000000000000D+00 -.000000000000000D+00 -.000000000000000D+00
 0.623563758141749D+03 0.000000000000000D+00 0.000000000000000D+00 0.623563758141749D+03
 0.699897465396443D+03 0.000000000000000D+00 0.000000000000000D+00 -.699897465396443D+03
 0.564291066293744D+03 0.176018615907269D+03 0.503767271973279D+03 -.159201566253667D+03
 0.321758811132234D+03 -.574172255814423D+02 -.264793738893964D+03 0.173540400455668D+03
 0.171545342485579D+02 0.112287752293693D+02 -.118479646177154D+02 -.527431384642731D+01
 0.315341234012734D+03 -.201752417941767D+03 -.224362739442288D+03 -.906452035557409D+01
 0.104915577850922D+03 0.719222523865710D+02 -.276282901931208D+01 -.763337072546940D+02
0.698866996359D-04 0.000000000000D+00 0.000000000000D+00 0.334330558113D-06 0.000000000000D+00  7 2 -2 23 -13 13 23 21 0 0.93370503D-01 0.93771175D-01 0.32590192D+06 0.32590192D+06 0.32590192D+06 0.10819010D+01  1  2  2  2  7  2       -2 0.408914781675D-03 0.100000000000D+01
-.386365364272D-05 0.000000000000D+00 -.268383328192D-06 0.334330558113D-06 0.000000000000D+00  7 2 -2 23 -13 13 23 21 2 0.93370503D-01 0.93771175D-01 0.32590192D+06 0.32590192D+06 0.32590192D+06 0.10819010D+01  1  2  3  2  7  2       -2 -.264613181601D-04 0.100000000000D+01
0.445728825924D-05 0.000000000000D+00 0.000000000000D+00 0.334330558113D-06 0.000000000000D+00  7 2 -2 23 -13 13 23 21 2 0.93370503D-01 0.93771175D-01 0.32590192D+06 0.32590192D+06 0.32590192D+06 0.10819010D+01  1  2 15  2  7  2       -2 0.305269917196D-04 0.100000000000D+01
0.206649884567D-03 0.000000000000D+00 0.000000000000D+00 0.334330558113D-06 0.000000000000D+00  7 2 -2 23 -13 13 23 21 2 0.93370503D-01 0.10897207D+00 0.36955768D+06 0.36955768D+06 0.36955768D+06 0.10779147D+01  1  2 12  2  7  2       -2 0.971255961655D-03 0.100000000000D+01
-.209834976537D-03 0.000000000000D+00 0.000000000000D+00 0.334330558113D-06 0.000000000000D+00  7 2 -2 23 -13 13 23 21 2 0.93370503D-01 0.93771175D-01 0.32590192D+06 0.32590192D+06 0.32590192D+06 0.10819010D+01  1  2  4  2  7  2       -2 -.143711382766D-02 0.100000000000D+01
-.362337556382D-03 0.000000000000D+00 -.583099675370D-04 0.334330558113D-06 0.000000000000D+00  7 2 -2 23 -13 13 23 21 2 0.93370503D-01 0.10954159D+00 0.32590192D+06 0.32590192D+06 0.32590192D+06 0.10819010D+01  1  2  5  2  7  2       -2 -.170115943061D-02 0.100000000000D+01
0.367648298022D-03 0.000000000000D+00 0.576124991945D-04 0.334330558113D-06 0.000000000000D+00  7 2 -2 23 -13 13 23 21 2 0.93370503D-01 0.93771175D-01 0.32590192D+06 0.32590192D+06 0.32590192D+06 0.10819010D+01  1  2  6  2  7  2       -2 0.251794272586D-02 0.100000000000D+01
0.471983766088D-05 0.000000000000D+00 0.000000000000D+00 0.334330558113D-06 0.000000000000D+00  7 2 21 23 -13 13 23 2 2 0.93370503D-01 0.10897207D+00 0.36955768D+06 0.36955768D+06 0.36955768D+06 0.10779147D+01  1  2 12  4  7  2       -2 0.199805659768D-03 0.100000000000D+01
-.807518589135D-05 0.000000000000D+00 -.136894380879D-05 0.334330558113D-06 0.000000000000D+00  7 2 21 23 -13 13 23 2 2 0.93370503D-01 0.10954159D+00 0.32590192D+06 0.32590192D+06 0.32590192D+06 0.10819010D+01  1  2  5  4  7  2       -2 -.342516195863D-03 0.100000000000D+01
  </mgrwgt>
  </event>
  <event>
  8     66 0.29152272E-05 0.17686667E+03 0.75467711E-02 0.98557211E-01
        2 -1    0    0  501    0 0.00000000E+00 0.00000000E+00 0.20577464E+04 0.20577465E+04 0.32000000E+00 0.0000E+00 0.9000E+01
       -2 -1    0    0    0  501 0.00000000E+00 0.00000000E+00 -.33230031E+02 0.33231571E+02 0.32000000E+00 0.0000E+00 0.9000E+01
       25  2    1    2    0    0 -.76912518E+02 -.10051923E+03 0.92796149E+03 0.98338262E+03 0.29984865E+03 0.0000E+00 0.0000E+00
       23  2    3    3    0    0 0.17295596E+00 0.86137440E+01 0.84418714E+02 0.12446945E+03 0.91059861E+02 0.0000E+00 0.0000E+00
       23  1    1    2    0    0 0.76912518E+02 0.10051923E+03 0.10965549E+04 0.11075954E+04 0.91188000E+02 0.0000E+00 0.9000E+01
      -13  1    4    4    0    0 0.17511497E+02 0.31364459E+01 -.15080642E+02 0.23322237E+02 0.10565837E+00 0.0000E+00 0.9000E+01
       13  1    4    4    0    0 -.17338541E+02 0.54772980E+01 0.99499356E+02 0.10114721E+03 0.10565837E+00 0.0000E+00 0.9000E+01
       23  1    3    3    0    0 -.77085474E+02 -.10913297E+03 0.84354277E+03 0.85891317E+03 0.91188000E+02 0.0000E+00 0.9000E+01
#aMCatNLO 1  0  0  2  2 0.25093656D+03 0.00000000D+00  -5  7  0 0.00000000D+00 0.00000000D+00 0.00000000D+00 0.00000000D+00 0.00000000D+00
  <mgrwgt>
 0.5555226184D-03    5    2    0
 0.261496871995379D+03 0.000000000000000D+00 0.000000000000000D+00 0.261496871995379D+03
 0.261496871995379D+03 0.000000000000000D+00 0.000000000000000D+00 -.261496871995379D+03
 0.183490242686188D+03 0.769125184590676D+02 0.100519230863347D+03 0.966114203806194D+02
 0.151622052887992D+03 0.175115434213802D+02 0.313644262429662D+01 -.150574750528217D+03
 0.192324089610558D+02 -.173385876778746D+02 0.547730102518855D+01 0.626562887996256D+01
 0.168649039455523D+03 -.770854742025731D+02 -.109132974512832D+03 0.476977012676348D+02
 0.000000000000000D+00 -.000000000000000D+00 -.000000000000000D+00 -.000000000000000D+00
 0.330963722664470D+03 0.000000000000000D+00 0.000000000000000D+00 0.330963722664470D+03
 0.674708566123380D+03 0.000000000000000D+00 0.000000000000000D+00 -.674708566123380D+03
 0.260779594764376D+03 0.161555218950897D+03 0.155746237139904D+03 0.966114203806194D+02
 0.176030862408589D+03 0.799362800046043D+02 0.438668458257742D+02 -.150574750528217D+03
 0.158004316732920D+02 -.106640984660765D+02 0.983221947002676D+01 0.626562887996256D+01
 0.127468081357326D+03 -.206689663628890D+02 -.723227733441633D+02 0.476977012676348D+02
 0.425593318584266D+03 -.210158434126536D+03 -.137122529091541D+03 -.343744843458910D+03
0.398947618665D-05 0.000000000000D+00 0.000000000000D+00 0.353154793827D-06 0.000000000000D+00  7 2 -2 23 -13 13 23 21 0 0.31657650D+00 0.51124328D-02 0.31281820D+05 0.31281820D+05 0.31281820D+05 0.11656538D+01  1  2  2  2  7  2       -2 0.561828976535D-03 0.100000000000D+01
-.180433844804D-06 0.000000000000D+00 -.153206390099D-07 0.353154793827D-06 0.000000000000D+00  7 2 -2 23 -13 13 23 21 2 0.31657650D+00 0.51124328D-02 0.31281820D+05 0.31281820D+05 0.31281820D+05 0.11656538D+01  1  2  3  2  7  2       -2 -.345259305440D-04 0.100000000000D+01
0.253496663970D-06 0.000000000000D+00 0.000000000000D+00 0.353154793827D-06 0.000000000000D+00  7 2 -2 23 -13 13 23 21 2 0.31657650D+00 0.51124328D-02 0.31281820D+05 0.31281820D+05 0.31281820D+05 0.11656538D+01  1  2 15  2  7  2       -2 0.485064663055D-04 0.100000000000D+01
-.455191139125D-06 0.000000000000D+00 -.136278860109D-05 0.353154793827D-06 0.000000000000D+00  7 2 -2 23 -13 13 23 21 2 0.31657650D+00 0.17461527D-01 0.31281820D+05 0.31281820D+05 0.31281820D+05 0.11656538D+01  1  2  5  2  7  2       -2 -.134397856080D-04 0.100000000000D+01
-.171317730186D-07 0.000000000000D+00 -.195029963864D-06 0.353154793827D-06 0.000000000000D+00  7 2 21 23 -13 13 23 2 2 0.31657650D+00 0.17461527D-01 0.31281820D+05 0.31281820D+05 0.31281820D+05 0.11656538D+01  1  2  5  4  7  2       -2 -.684710827958D-05 0.100000000000D+01
  </mgrwgt>
  </event>
  <event>
  8     66 0.29152272E-05 0.10919040E+03 0.75467711E-02 0.10314428E+00
        2 -1    0    0  501    0 0.00000000E+00 0.00000000E+00 0.11876976E+04 0.11876976E+04 0.32000000E+00 0.0000E+00 0.9000E+01
       -2 -1    0    0    0  501 0.00000000E+00 0.00000000E+00 -.39560971E+02 0.39562265E+02 0.32000000E+00 0.0000E+00 0.9000E+01
       25  2    1    2    0    0 -.69352904E+02 -.30901473E+02 0.85183716E+03 0.90808385E+03 0.30532771E+03 0.0000E+00 0.0000E+00
       23  2    3    3    0    0 -.89048503E+02 0.55394513E+02 0.19648439E+03 0.24052306E+03 0.90813202E+02 0.0000E+00 0.0000E+00
       23  1    1    2    0    0 0.69352904E+02 0.30901473E+02 0.29629946E+03 0.31917604E+03 0.91188000E+02 0.0000E+00 0.9000E+01
      -13  1    4    4    0    0 0.10744597E+02 -.32018444E+00 -.25126889E+01 0.11039640E+02 0.10565837E+00 0.0000E+00 0.9000E+01
       13  1    4    4    0    0 -.99793099E+02 0.55714698E+02 0.19899708E+03 0.22948342E+03 0.10565837E+00 0.0000E+00 0.9000E+01
       23  1    3    3    0    0 0.19695598E+02 -.86295986E+02 0.65535277E+03 0.66756079E+03 0.91188000E+02 0.0000E+00 0.9000E+01
#aMCatNLO 1  0  0  1  2 0.12046255D+03 0.00000000D+00  -5  7  0 0.00000000D+00 0.00000000D+00 0.00000000D+00 0.00000000D+00 0.00000000D+00
  <mgrwgt>
 0.7839973601D-03    8    2    0
 0.216765519857120D+03 0.000000000000000D+00 0.000000000000000D+00 0.216765519857120D+03
 0.216765519857120D+03 0.000000000000000D+00 0.000000000000000D+00 -.216765519857120D+03
 0.118839687053696D+03 0.693561542145536D+02 0.309029206916399D+02 -.650793671709683D+01
 0.379052456963071D+02 0.107445898970713D+02 -.320954770120206D+00 -.363491186588711D+02
 0.122620607759943D+03 -.997938593504856D+02 0.557135570502350D+02 -.444184493669402D+02
 0.154165499204294D+03 0.196931152388607D+02 -.862955229717547D+02 0.872755047429082D+02
 0.000000000000000D+00 0.000000000000000D+00 -.000000000000000D+00 0.000000000000000D+00
 0.384092366438440D+03 0.000000000000000D+00 0.000000000000000D+00 0.384092366438440D+03
 0.247777983009476D+03 0.000000000000000D+00 0.000000000000000D+00 -.247777983009476D+03
 0.110459999641395D+03 0.418417011029123D+02 0.457501801666152D+02 -.650793671709683D+01
 0.366715825762337D+02 0.179586138246021D+01 0.450792893287175D+01 -.363491186588711D+02
 0.159020783762895D+03 -.133588972518944D+03 0.739499658264629D+02 -.444184493669402D+02
 0.143803618086737D+03 -.160612175497533D+02 -.670018864922941D+02 0.872755047429082D+02
 0.181914365380654D+03 0.106012627583324D+03 -.572061884336558D+02 0.136314383428964D+03
0.130144530730D-05 0.000000000000D+00 0.000000000000D+00 0.116810850755D-08 0.000000000000D+00  7 2 -2 23 -13 13 23 21 0 0.18272281D+00 0.60864061D-02 0.34370567D+05 0.34370567D+05 0.34370567D+05 0.11618951D+01  1  2  2  1  7  1        2 0.409328702007D-03 0.100000000000D+01
-.701538674786D-07 0.000000000000D+00 -.499789265846D-08 0.116810850755D-08 0.000000000000D+00  7 2 -2 23 -13 13 23 21 2 0.18272281D+00 0.60864061D-02 0.34370567D+05 0.34370567D+05 0.34370567D+05 0.11618951D+01  1  2  3  1  7  1        2 -.297873398212D-04 0.100000000000D+01
0.814405026953D-07 0.000000000000D+00 0.000000000000D+00 0.116810850755D-08 0.000000000000D+00  7 2 -2 23 -13 13 23 21 2 0.18272281D+00 0.60864061D-02 0.34370567D+05 0.34370567D+05 0.34370567D+05 0.11618951D+01  1  2 15  1  7  1        2 0.345796463714D-04 0.100000000000D+01
0.310466707131D-06 0.000000000000D+00 0.000000000000D+00 0.116810850755D-08 0.000000000000D+00  7 2 -2 23 -13 13 23 21 2 0.32814003D+00 0.60864061D-02 0.63143026D+05 0.63143026D+05 0.63143026D+05 0.11384855D+01  1  2 12  1  7  1        2 0.395652479664D-04 0.100000000000D+01
-.963389659181D-06 0.000000000000D+00 -.384822469368D-06 0.116810850755D-08 0.000000000000D+00  7 2 -2 23 -13 13 23 21 2 0.33969122D+00 0.60864061D-02 0.34370567D+05 0.34370567D+05 0.34370567D+05 0.11618951D+01  1  2  5  1  7  1        2 -.117629916480D-03 0.100000000000D+01
0.105611723332D-05 0.000000000000D+00 0.321092023794D-06 0.116810850755D-08 0.000000000000D+00  7 2 -2 23 -13 13 23 21 2 0.18272281D+00 0.60864061D-02 0.34370567D+05 0.34370567D+05 0.34370567D+05 0.11618951D+01  1  2  6  1  7  1        2 0.448427493031D-03 0.100000000000D+01
0.199459152461D-07 0.000000000000D+00 0.000000000000D+00 0.116810850755D-08 0.000000000000D+00  7 21 -2 23 -13 13 23 -2 2 0.32814003D+00 0.60864061D-02 0.63143026D+05 0.63143026D+05 0.63143026D+05 0.11384855D+01  1  2 12  3  7  1        2 0.478205675478D-06 0.100000000000D+01
-.437068612177D-07 0.000000000000D+00 -.260081562886D-07 0.116810850755D-08 0.000000000000D+00  7 21 -2 23 -13 13 23 -2 2 0.33969122D+00 0.60864061D-02 0.34370567D+05 0.34370567D+05 0.34370567D+05 0.11618951D+01  1  2  5  3  7  1        2 -.964678648064D-06 0.100000000000D+01
  </mgrwgt>
  </event>
  <event>
  9     66 0.29152272E-05 0.24157858E+03 0.75467711E-02 0.10336933E+00
        2 -1    0    0  501    0 0.00000000E+00 0.00000000E+00 0.22655784E+03 0.22655807E+03 0.32000000E+00 0.0000E+00 0.9000E+01
       21 -1    0    0  502  501 0.00000000E+00 0.00000000E+00 -.40404782E+03 0.40404852E+03 0.75000000E+00 0.0000E+00 0.9000E+01
       25  2    1    2    0    0 0.12376917E+02 -.15288133E+03 -.25052719E+03 0.42010536E+03 0.30033106E+03 0.0000E+00 0.0000E+00
       23  2    3    3    0    0 -.47696550E+02 0.89430156E+01 -.18957687E+03 0.21559097E+03 0.90471758E+02 0.0000E+00 0.0000E+00
       23  1    1    2    0    0 -.80175957E+01 0.16247349E+03 0.72023885E+02 0.19991150E+03 0.91188000E+02 0.0000E+00 0.9000E+01
      -11  1    4    4    0    0 -.66718627E+02 0.30443164E+02 -.14641251E+03 0.16375220E+03 0.51099893E-03 0.0000E+00 0.9000E+01
       11  1    4    4    0    0 0.19022077E+02 -.21500148E+02 -.43164365E+02 0.51838771E+02 0.51099893E-03 0.0000E+00 0.9000E+01
       23  1    3    3    0    0 0.60073467E+02 -.16182435E+03 -.60950320E+02 0.20451438E+03 0.91188000E+02 0.0000E+00 0.9000E+01
        2  1    1    2  502    0 -.43593217E+01 -.95921593E+01 0.10133245E+01 0.10589732E+02 0.32000000E+00 0.0000E+00 0.9000E+01
#aMCatNLO 2  0  0  2  2 0.10536280D+02 0.00000000D+00  -5  7  0 0.00000000D+00 0.00000000D+00 0.00000000D+00 0.00000000D+00 0.00000000D+00
  <mgrwgt>
 0.6456790403D-04    1    2    0
 0.296836007262481D+03 0.000000000000000D+00 0.000000000000000D+00 0.296836007262481D+03
 0.296836007262481D+03 0.000000000000000D+00 0.000000000000000D+00 -.296836007262481D+03
 0.227872425882816D+03 -.970001470774612D+01 0.158771531597842D+03 0.135307433655598D+03
 0.126994096336592D+03 -.676510023439553D+02 0.283915846969758D+02 -.103656935631922D+03
 0.413683634830801D+02 0.187191203972993D+02 -.221667682638256D+02 -.294884793361323D+02
 0.197437128822474D+03 0.586318966544021D+02 -.164996348030992D+03 -.216201868754457D+01
 0.000000000000000D+00 -.000000000000000D+00 -.000000000000000D+00 0.000000000000000D+00
 0.304682609921244D+03 0.000000000000000D+00 0.000000000000000D+00 0.304682609921244D+03
 0.300440932549458D+03 0.000000000000000D+00 0.000000000000000D+00 -.300440932549458D+03
 0.230402408824379D+03 -.801759573609104D+01 0.162473490773802D+03 0.135307433655598D+03
 0.126976067470825D+03 -.667186268577540D+02 0.304431640269377D+02 -.103656935631922D+03
 0.411541762120401D+02 0.190220772167829D+02 -.215001484760664D+02 -.294884793361323D+02
 0.195232851741240D+03 0.600734670284810D+02 -.161824347022906D+03 -.216201868754457D+01
 0.113580382222174D+02 -.435932165141887D+01 -.959215930176814D+01 0.424167737178636D+01
0.105445574738D-06 0.000000000000D+00 0.000000000000D+00 0.304682990098D-06 0.425038022115D-10  7 2 21 23 -11 11 23 2 2 0.34854864D-01 0.62160810D-01 0.61079799D+05 0.61079799D+05 0.61079799D+05 0.11397269D+01  1  2  1  4  7  2       -2 0.645679040284D-04 0.100000000000D+01
  </mgrwgt>
  </event>
  <event>
  8     66 0.29152272E-05 0.39069005E+03 0.75467711E-02 0.95780825E-01
        2 -1    0    0  501    0 0.00000000E+00 0.00000000E+00 0.12668490E+04 0.12668491E+04 0.32000000E+00 0.0000E+00 0.9000E+01
       -2 -1    0    0    0  501 0.00000000E+00 0.00000000E+00 -.15515486E+03 0.15515519E+03 0.32000000E+00 0.0000E+00 0.9000E+01
       25  2    1    2    0    0 -.24939592E+03 0.26551341E+03 0.40759319E+03 0.62402610E+03 0.30096622E+03 0.0000E+00 0.0000E+00
       23  2    3    3    0    0 -.40884429E+02 0.99700384E+02 0.75153441E+01 0.13479350E+03 0.80629425E+02 0.0000E+00 0.0000E+00
       23  1    1    2    0    0 0.24939592E+03 -.26551341E+03 0.70410097E+03 0.79797815E+03 0.91188000E+02 0.0000E+00 0.9000E+01
      -11  1    4    4    0    0 -.57662787E+01 0.86621390E+02 -.19024025E+02 0.88873105E+02 0.51099893E-03 0.0000E+00 0.9000E+01
       11  1    4    4    0    0 -.35118150E+02 0.13078993E+02 0.26539369E+02 0.45920395E+02 0.51099893E-03 0.0000E+00 0.9000E+01
       23  1    3    3    0    0 -.20851150E+03 0.16581303E+03 0.40007785E+03 0.48923260E+03 0.91188000E+02 0.0000E+00 0.9000E+01
#aMCatNLO 1  0  0  2  2 0.11444637D+03 0.00000000D+00  -5  7  0 0.00000000D+00 0.00000000D+00 0.00000000D+00 0.00000000D+00 0.00000000D+00
  <mgrwgt>
 0.4922666266D-03    4    2    0
 0.443348673983896D+03 0.000000000000000D+00 0.000000000000000D+00 0.443348673983896D+03
 0.443348673983896D+03 0.000000000000000D+00 0.000000000000000D+00 -.443348673983896D+03
 0.396960007165143D+03 0.249395924452812D+03 -.265513413716498D+03 0.128710123717946D+03
 0.166377886938618D+03 -.576627870506925D+01 0.866213903729255D+02 -.141933385860819D+03
 0.403692817880858D+02 -.351181503894245D+02 0.130789933323032D+02 -.150111411533303D+02
 0.282990172075945D+03 -.208511495358318D+03 0.165813030011270D+03 0.282344032962037D+02
 0.000000000000000D+00 0.000000000000000D+00 -.000000000000000D+00 0.000000000000000D+00
 0.533184592168926D+03 0.000000000000000D+00 0.000000000000000D+00 0.533184592168926D+03
 0.485031890489093D+03 0.000000000000000D+00 0.000000000000000D+00 -.485031890489093D+03
 0.365586533152489D+03 0.200525794436148D+03 -.261842264916722D+03 0.128710123717946D+03
 0.169337692599039D+03 -.272816396085376D+02 0.882376351287834D+02 -.141933385860819D+03
 0.453505855729415D+02 -.406117705705607D+02 0.134916768493622D+02 -.150111411533303D+02
 0.313777848782592D+03 -.246757201327945D+03 0.168686066721406D+03 0.282344032962037D+02
 0.124163822550957D+03 0.114124817070895D+03 -.857311378282926D+01 0.481527016798333D+02
0.228832558322D-04 0.000000000000D+00 0.000000000000D+00 0.392494666604D-08 0.000000000000D+00  7 2 -2 23 -11 11 23 21 0 0.19489988D+00 0.23870007D-01 0.15263871D+06 0.15263871D+06 0.15263871D+06 0.11069547D+01  1  2  2  2  7  2       -2 0.752795108197D-03 0.100000000000D+01
-.124657989400D-05 0.000000000000D+00 -.878777276952D-07 0.392494666604D-08 0.000000000000D+00  7 2 -2 23 -11 11 23 21 2 0.19489988D+00 0.23870007D-01 0.15263871D+06 0.15263871D+06 0.15263871D+06 0.11069547D+01  1  2  3  2  7  2       -2 -.502503187044D-04 0.100000000000D+01
0.144467272717D-05 0.000000000000D+00 0.000000000000D+00 0.392494666604D-08 0.000000000000D+00  7 2 -2 23 -11 11 23 21 2 0.19489988D+00 0.23870007D-01 0.15263871D+06 0.15263871D+06 0.15263871D+06 0.11069547D+01  1  2 15  2  7  2       -2 0.582355493723D-04 0.100000000000D+01
-.666112780228D-05 0.000000000000D+00 0.000000000000D+00 0.392494666604D-08 0.000000000000D+00  7 2 -2 23 -11 11 23 21 2 0.19489988D+00 0.23870007D-01 0.15263871D+06 0.15263871D+06 0.15263871D+06 0.11069547D+01  1  2  4  2  7  2       -2 -.268513712282D-03 0.100000000000D+01
  </mgrwgt>
  </event>
  <event>
  8     66 -.29152272E-05 0.39117690E+03 0.75467711E-02 0.97495148E-01
        2 -1    0    0  501    0 0.00000000E+00 0.00000000E+00 0.10658774E+04 0.10658774E+04 0.32000000E+00 0.0000E+00 0.9000E+01
       -2 -1    0    0    0  501 0.00000000E+00 0.00000000E+00 -.89448677E+03 0.89448683E+03 0.32000000E+00 0.0000E+00 0.9000E+01
       25  2    1    2    0    0 -.15586598E+03 0.30524984E+03 -.80309141E+03 0.92334828E+03 0.30024084E+03 0.0000E+00 0.0000E+00
       23  2    3    3    0    0 -.11701793E+03 0.30675805E+03 -.50439567E+03 0.60863278E+03 0.90692750E+02 0.0000E+00 0.0000E+00
       23  1    1    2    0    0 0.15586598E+03 -.30524984E+03 0.97448200E+03 0.10370160E+04 0.91188000E+02 0.0000E+00 0.9000E+01
      -13  1    4    4    0    0 -.85083573E+02 0.20661058E+03 -.26146002E+03 0.34393095E+03 0.10565837E+00 0.0000E+00 0.9000E+01
       13  1    4    4    0    0 -.31934361E+02 0.10014747E+03 -.24293565E+03 0.26470183E+03 0.10565837E+00 0.0000E+00 0.9000E+01
       23  1    3    3    0    0 -.38848049E+02 -.15082154E+01 -.29869575E+03 0.31471550E+03 0.91188000E+02 0.0000E+00 0.9000E+01
#aMCatNLO 1  0  0  2  2 0.11444637D+03 0.00000000D+00  -5  7  0 0.00000000D+00 0.00000000D+00 0.00000000D+00 0.00000000D+00 0.00000000D+00
  <mgrwgt>
 -.2995729071D-04    1    2    0
 0.976428849825920D+03 0.000000000000000D+00 0.000000000000000D+00 0.976428849825920D+03
 0.976428849825920D+03 0.000000000000000D+00 0.000000000000000D+00 -.976428849825920D+03
 0.955477678477406D+03 0.155865983322793D+03 -.305249837359721D+03 0.887215123157431D+03
 0.368199862425697D+03 -.850836455556454D+02 0.206610722596874D+03 -.292649827024144D+03
 0.287040202170736D+03 -.319342885477828D+02 0.100147330183976D+03 -.267100713466262D+03
 0.342139956578001D+03 -.388480492193653D+02 -.150821542112821D+01 -.327464582667026D+03
 0.000000000000000D+00 -.000000000000000D+00 0.000000000000000D+00 -.000000000000000D+00
 0.240886818166716D+04 0.000000000000000D+00 0.000000000000000D+00 0.240886818166716D+04
 0.305300271488011D+04 0.000000000000000D+00 0.000000000000000D+00 -.305300271488011D+04
 0.186716728300801D+04 0.115581867804936D+04 -.116401499994823D+04 0.887215123157431D+03
 0.335689915803938D+03 0.164276968384553D+03 -.754161611159026D+01 -.292649827024144D+03
 0.340269538904161D+03 0.190297013856599D+03 -.907061987359505D+02 -.267100713466262D+03
 0.498942382754038D+03 0.259114522474171D+03 -.257400196786967D+03 -.327464582667026D+03
 0.241980177607712D+04 -.176950718276468D+04 0.151966301158274D+04 -.644134533212946D+03
-.219759876557D-04 0.000000000000D+00 0.000000000000D+00 0.689704086070D-05 0.000000000000D+00  7 2 -2 23 -13 13 23 21 2 0.16398114D+00 0.13761336D+00 0.15301936D+06 0.15301936D+06 0.15301936D+06 0.11068695D+01  1  2 14  2  7  2       -2 -.299572907136D-04 0.100000000000D+01
  </mgrwgt>
  </event>
  <event>
  8     66 0.29152272E-05 0.44913408E+03 0.75467711E-02 0.88535818E-01
        2 -1    0    0  501    0 0.00000000E+00 0.00000000E+00 0.72874270E+03 0.72874277E+03 0.32000000E+00 0.0000E+00 0.9000E+01
       -2 -1    0    0    0  501 0.00000000E+00 0.00000000E+00 -.94455801E+03 0.94455807E+03 0.32000000E+00 0.0000E+00 0.9000E+01
       25  2    1    2    0    0 0.61028788E+03 0.11023100E+02 -.63244017E+03 0.92867722E+03 0.29981328E+03 0.0000E+00 0.0000E+00
       23  2    3    3    0    0 0.11223995E+03 -.23735630E+02 -.26039005E+03 0.29939473E+03 0.93129148E+02 0.0000E+00 0.0000E+00
       23  1    1    2    0    0 -.61028788E+03 -.11023100E+02 0.41662486E+03 0.74462362E+03 0.91188000E+02 0.0000E+00 0.9000E+01
      -13  1    4    4    0    0 0.64671330E+02 -.23720631E+02 -.53814887E+02 0.87413400E+02 0.10565837E+00 0.0000E+00 0.9000E+01
       13  1    4    4    0    0 0.47568617E+02 -.14998627E-01 -.20657516E+03 0.21198133E+03 0.10565837E+00 0.0000E+00 0.9000E+01
       23  1    3    3    0    0 0.49804794E+03 0.34758730E+02 -.37205012E+03 0.62928250E+03 0.91188000E+02 0.0000E+00 0.9000E+01
#aMCatNLO 1  0  0  2  1 0.45840760D+03 0.00000000D+00  -5  7  0 0.00000000D+00 0.00000000D+00 0.00000000D+00 0.00000000D+00 0.00000000D+00
  <mgrwgt>
 0.4962708465D-03    9    2    0
 0.829662499847052D+03 0.000000000000000D+00 0.000000000000000D+00 0.829662499847052D+03
 0.829662499847052D+03 0.000000000000000D+00 0.000000000000000D+00 -.829662499847052D+03
 0.805082398303622D+03 -.610287883521123D+03 -.110231002901846D+02 0.516981244535634D+03
 0.811502348060998D+02 0.646713522678614D+02 -.237206614374831D+02 -.428987998188715D+02
 0.186899296310111D+03 0.475685945656582D+02 -.149681395420167D-01 -.180744503507624D+03
 0.586193070274271D+03 0.498047936687603D+03 0.347587298672098D+02 -.293337941209139D+03
 0.000000000000000D+00 0.000000000000000D+00 0.000000000000000D+00 -.000000000000000D+00
 0.952576522992288D+03 0.000000000000000D+00 0.000000000000000D+00 0.952576522992288D+03
 0.143278613471904D+04 0.000000000000000D+00 0.000000000000000D+00 -.143278613471904D+04
 0.947847835905678D+03 -.765790100868232D+03 -.190777836494932D+03 0.516981244535634D+03
 0.774571371061493D+02 0.506013125488662D+02 -.399851001138317D+02 -.428987998188715D+02
 0.185305739476336D+03 0.145503333462320D+02 -.381828408341735D+02 -.180744503507624D+03
 0.510870330586969D+03 0.400727582417352D+03 -.777399528374372D+02 -.293337941209139D+03
 0.663881614636201D+03 0.299910872555782D+03 0.346685730280374D+03 -.480209611726757D+03
0.354595750867D-03 0.000000000000D+00 0.000000000000D+00 0.168420298427D-05 0.000000000000D+00  7 2 -2 23 -13 13 23 21 0 0.11211427D+00 0.14531663D+00 0.38510270D+06 0.38510270D+06 0.38510270D+06 0.10766179D+01  1  2  2  2  7  2       -2 0.541709275850D-03 0.100000000000D+01
-.176800268995D-04 0.000000000000D+00 -.136174105053D-05 0.168420298427D-05 0.000000000000D+00  7 2 -2 23 -13 13 23 21 2 0.11211427D+00 0.14531663D+00 0.38510270D+06 0.38510270D+06 0.38510270D+06 0.10766179D+01  1  2  3  2  7  2       -2 -.313068138937D-04 0.100000000000D+01
0.221938103208D-04 0.000000000000D+00 0.000000000000D+00 0.168420298427D-05 0.000000000000D+00  7 2 -2 23 -13 13 23 21 2 0.11211427D+00 0.14531663D+00 0.38510270D+06 0.38510270D+06 0.38510270D+06 0.10766179D+01  1  2 15  2  7  2       -2 0.392995719550D-04 0.100000000000D+01
0.388208940501D-04 0.000000000000D+00 0.000000000000D+00 0.168420298427D-05 0.000000000000D+00  7 2 -2 23 -13 13 23 21 2 0.11211427D+00 0.25506556D+00 0.78895992D+06 0.78895992D+06 0.78895992D+06 0.10547862D+01  1  2 12  2  7  2       -2 0.107372683609D-04 0.100000000000D+01
-.248811216991D-03 0.000000000000D+00 0.000000000000D+00 0.168420298427D-05 0.000000000000D+00  7 2 -2 23 -13 13 23 21 2 0.11211427D+00 0.14531663D+00 0.38510270D+06 0.38510270D+06 0.38510270D+06 0.10766179D+01  1  2  4  2  7  2       -2 -.440581143301D-03 0.100000000000D+01
-.218413889335D-03 0.000000000000D+00 -.103788611361D-03 0.168420298427D-05 0.000000000000D+00  7 2 -2 23 -13 13 23 21 2 0.11211427D+00 0.26668088D+00 0.38510270D+06 0.38510270D+06 0.38510270D+06 0.10766179D+01  1  2  5  2  7  2       -2 -.554833758054D-04 0.100000000000D+01
0.250413552481D-03 0.000000000000D+00 0.872144099419D-04 0.168420298427D-05 0.000000000000D+00  7 2 -2 23 -13 13 23 21 2 0.11211427D+00 0.14531663D+00 0.38510270D+06 0.38510270D+06 0.38510270D+06 0.10766179D+01  1  2  6  2  7  2       -2 0.443418470376D-03 0.100000000000D+01
0.241045820774D-05 0.000000000000D+00 0.000000000000D+00 0.168420298427D-05 0.000000000000D+00  7 2 21 23 -13 13 23 2 2 0.11211427D+00 0.25506556D+00 0.78895992D+06 0.78895992D+06 0.78895992D+06 0.10547862D+01  1  2 12  4  7  2       -2 0.477537104131D-05 0.100000000000D+01
-.881192793649D-05 0.000000000000D+00 -.688373899921D-05 0.168420298427D-05 0.000000000000D+00  7 2 21 23 -13 13 23 2 2 0.11211427D+00 0.26668088D+00 0.38510270D+06 0.38510270D+06 0.38510270D+06 0.10766179D+01  1  2  5  4  7  2       -2 -.162977780575D-04 0.100000000000D+01
  </mgrwgt>
  </event>
  <event>
  9     66 0.29152272E-05 0.23132372E+03 0.75467711E-02 0.10112874E+00
        2 -1    0    0  501    0 0.00000000E+00 0.00000000E+00 0.61071570E+03 0.61071578E+03 0.32000000E+00 0.0000E+00 0.9000E+01
       21 -1    0    0  502  501 0.00000000E+00 0.00000000E+00 -.22242241E+03 0.22242367E+03 0.75000000E+00 0.0000E+00 0.9000E+01
       25  2    1    2    0    0 -.20664696E+03 -.51025952E+02 0.41606903E+03 0.55576856E+03 0.30076344E+03 0.0000E+00 0.0000E+00
       23  2    3    3    0    0 -.20842497E+03 0.85132284E+01 0.37481468E+03 0.43929862E+03 0.94782852E+02 0.0000E+00 0.0000E+00
       23  1    1    2    0    0 0.98683608E+02 0.35910318E+02 0.45134066E+02 0.14622018E+03 0.91188000E+02 0.0000E+00 0.9000E+01
      -13  1    4    4    0    0 -.21326376E+03 -.54631078E+01 0.33887185E+03 0.40043154E+03 0.10565837E+00 0.0000E+00 0.9000E+01
       13  1    4    4    0    0 0.48387840E+01 0.13976336E+02 0.35942831E+02 0.38867082E+02 0.10565837E+00 0.0000E+00 0.9000E+01
       23  1    3    3    0    0 0.17780147E+01 -.59539180E+02 0.41254352E+02 0.11646995E+03 0.91188000E+02 0.0000E+00 0.9000E+01
        2  1    1    2  502    0 0.10796335E+03 0.15115633E+02 -.72909801E+02 0.13115071E+03 0.32000000E+00 0.0000E+00 0.9000E+01
#aMCatNLO 2  0  0  2  1 0.10901636D+03 0.00000000D+00  -5  7  0 0.00000000D+00 0.00000000D+00 0.00000000D+00 0.00000000D+00 0.00000000D+00
  <mgrwgt>
 0.1198593908D-03    2    2    0
 0.258937893988031D+03 0.000000000000000D+00 0.000000000000000D+00 0.258937893988031D+03
 0.258937893988031D+03 0.000000000000000D+00 0.000000000000000D+00 -.258937893988031D+03
 0.179629890906701D+03 0.133147081065149D+03 0.407354494146948D+02 -.675583031756032D+02
 0.196384059254529D+03 -.168699300129638D+03 0.776250778220993D+00 0.100531797456256D+03
 0.220919117318205D+02 0.920290755028132D+01 0.145873279562206D+02 0.138046702128370D+02
 0.119769926083013D+03 0.263493115142084D+02 -.560990281491364D+02 -.467781644934902D+02
 0.000000000000000D+00 0.000000000000000D+00 0.000000000000000D+00 -.000000000000000D+00
 0.277861917014839D+03 0.000000000000000D+00 0.000000000000000D+00 0.277861917014839D+03
 0.488866257614471D+03 0.000000000000000D+00 0.000000000000000D+00 -.488866257614471D+03
 0.154620121620631D+03 0.986836119264216D+02 0.359103198978697D+02 -.675583031756032D+02
 0.235834756488721D+03 -.213264024914283D+03 -.546312599786627D+01 0.100531797456256D+03
 0.202317533658119D+02 0.483904735203882D+01 0.139763566530973D+02 0.138046702128370D+02
 0.118539123260335D+03 0.177801380377880D+01 -.595391836764876D+02 -.467781644934902D+02
 0.237502419893811D+03 0.107963351832044D+03 0.151156331233868D+02 -.211004340599632D+03
-.175842026605D-06 0.000000000000D+00 0.000000000000D+00 0.111004076587D-07 0.000000000000D+00  7 2 21 23 -13 13 23 2 2 0.87557354D-01 0.34338725D-01 0.85597105D+05 0.85597105D+05 0.85597105D+05 0.11273071D+01  1  2 13  4  7  2       -2 -.131838470479D-03 0.100000000000D+01
0.361435043070D-06 0.000000000000D+00 0.000000000000D+00 0.111004076587D-07 0.677703656712D-12  7 2 21 23 -13 13 23 2 2 0.93956330D-01 0.34218923D-01 0.85597105D+05 0.85597105D+05 0.85597105D+05 0.11273071D+01  1  2  1  4  7  2       -2 0.251697861311D-03 0.100000000000D+01
  </mgrwgt>
  </event>
  <event>
  8     66 0.29152272E-05 0.75331247E+03 0.75467711E-02 0.87737465E-01
        2 -1    0    0  501    0 0.00000000E+00 0.00000000E+00 0.57656648E+03 0.57656657E+03 0.32000000E+00 0.0000E+00 0.9000E+01
       -2 -1    0    0    0  501 0.00000000E+00 0.00000000E+00 -.99628865E+03 0.99628870E+03 0.32000000E+00 0.0000E+00 0.9000E+01
       25  2    1    2    0    0 -.72270068E+03 -.57019094E+02 -.23945728E+03 0.82028758E+03 0.29997412E+03 0.0000E+00 0.0000E+00
       23  2    3    3    0    0 -.21559245E+03 -.12545433E+03 -.80101045E+02 0.27664082E+03 0.88854216E+02 0.0000E+00 0.0000E+00
       23  1    1    2    0    0 0.72270068E+03 0.57019094E+02 -.18026489E+03 0.75256769E+03 0.91188000E+02 0.0000E+00 0.9000E+01
      -11  1    4    4    0    0 -.13247122E+02 -.29329085E+02 0.12113583E+02 0.34386340E+02 0.51099893E-03 0.0000E+00 0.9000E+01
       11  1    4    4    0    0 -.20234533E+03 -.96125244E+02 -.92214629E+02 0.24225448E+03 0.51099893E-03 0.0000E+00 0.9000E+01
       23  1    3    3    0    0 -.50710823E+03 0.68435236E+02 -.15935623E+03 0.54364676E+03 0.91188000E+02 0.0000E+00 0.9000E+01
#aMCatNLO 1  0  0  1  1 0.37523768D+03 0.00000000D+00  -5  7  0 0.00000000D+00 0.00000000D+00 0.00000000D+00 0.00000000D+00 0.00000000D+00
  <mgrwgt>
 0.4759552777D-03    3    2    0
 0.757909459970869D+03 0.000000000000000D+00 0.000000000000000D+00 0.757909459970869D+03
 0.757909459970869D+03 0.000000000000000D+00 0.000000000000000D+00 -.757909459970869D+03
 0.730970483827864D+03 0.722700679685535D+03 0.570190935015495D+02 0.213341848184649D+02
 0.390343959120665D+02 -.132471218857488D+02 -.293290853624815D+02 0.220907803792519D+02
 0.225836153054557D+03 -.202345332337647D+03 -.961252440606729D+02 -.286054533598859D+02
 0.519977887147249D+03 -.507108225462140D+03 0.684352359216049D+02 -.148195118378309D+02
 0.000000000000000D+00 -.000000000000000D+00 0.000000000000000D+00 -.000000000000000D+00
 0.837568560906258D+03 0.000000000000000D+00 0.000000000000000D+00 0.837568560906258D+03
 0.140071534803029D+04 0.000000000000000D+00 0.000000000000000D+00 -.140071534803029D+04
 0.927735767717117D+03 0.922619635479674D+03 0.263868176018458D+02 0.213341848184649D+02
 0.380707828843437D+02 -.395386286719697D+01 -.307530307464141D+02 0.220907803792519D+02
 0.186744559696894D+03 -.152618200003490D+03 -.103744607773884D+03 -.286054533598859D+02
 0.409021915201079D+03 -.395138628527512D+03 0.512788658712732D+02 -.148195118378309D+02
 0.676710883437117D+03 -.370908944081476D+03 0.568319550471795D+02 -.563146787124036D+03
0.274096682204D-03 0.000000000000D+00 0.000000000000D+00 0.566526110120D-06 0.000000000000D+00  7 2 -2 23 -11 11 23 21 0 0.88702546D-01 0.15327519D+00 0.56747967D+06 0.56747967D+06 0.56747967D+06 0.10646462D+01  1  2  2  1  7  1        2 0.471339916476D-03 0.100000000000D+01
-.152269081781D-04 0.000000000000D+00 -.105260343098D-05 0.566526110120D-06 0.000000000000D+00  7 2 -2 23 -11 11 23 21 2 0.88702546D-01 0.15327519D+00 0.56747967D+06 0.56747967D+06 0.56747967D+06 0.10646462D+01  1  2  3  1  7  1        2 -.296792432624D-04 0.100000000000D+01
0.175948149820D-04 0.000000000000D+00 0.000000000000D+00 0.566526110120D-06 0.000000000000D+00  7 2 -2 23 -11 11 23 21 2 0.88702546D-01 0.15327519D+00 0.56747967D+06 0.56747967D+06 0.56747967D+06 0.10646462D+01  1  2 15  1  7  1        2 0.342946045185D-04 0.100000000000D+01
  </mgrwgt>
  </event>
  <event>
  8     66 0.29152272E-05 0.19788287E+03 0.75467711E-02 0.10331599E+00
        2 -1    0    0  501    0 0.00000000E+00 0.00000000E+00 0.40230307E+03 0.40230320E+03 0.32000000E+00 0.0000E+00 0.9000E+01
       -2 -1    0    0    0  501 0.00000000E+00 0.00000000E+00 -.13675830E+03 0.13675867E+03 0.32000000E+00 0.0000E+00 0.9000E+01
       25  2    1    2    0    0 0.46678955E+02 0.70023176E+02 0.27342903E+03 0.41472530E+03 0.30025235E+03 0.0000E+00 0.0000E+00
       23  2    3    3    0    0 -.60739161E+01 0.12414167E+03 0.25115097E+03 0.29421290E+03 0.89645824E+02 0.0000E+00 0.0000E+00
       23  1    1    2    0    0 -.46678955E+02 -.70023176E+02 -.78842573E+01 0.12433657E+03 0.91188000E+02 0.0000E+00 0.9000E+01
      -13  1    4    4    0    0 0.40879128E+02 0.41868791E+02 0.95134648E+02 0.11169025E+03 0.10565837E+00 0.0000E+00 0.9000E+01
       13  1    4    4    0    0 -.46953044E+02 0.82272877E+02 0.15601632E+03 0.18252265E+03 0.10565837E+00 0.0000E+00 0.9000E+01
       23  1    3    3    0    0 0.52752871E+02 -.54118492E+02 0.22278065E+02 0.12051241E+03 0.91188000E+02 0.0000E+00 0.9000E+01
#aMCatNLO 1  0  0  1  1 0.94696072D+02 0.00000000D+00  -5  7  0 0.00000000D+00 0.00000000D+00 0.00000000D+00 0.00000000D+00 0.00000000D+00
  <mgrwgt>
 0.2453766806D-03    4    2    0
 0.234560054164305D+03 0.000000000000000D+00 0.000000000000000D+00 0.234560054164305D+03
 0.234560054164305D+03 0.000000000000000D+00 0.000000000000000D+00 -.234560054164305D+03
 0.147336959598819D+03 -.466789576447759D+02 -.700231795693847D+02 -.794402766612444D+02
 0.744914016579896D+02 0.408792491212826D+02 0.418687354890647D+02 0.460962569065947D+02
 0.121422449576246D+03 -.469531628548258D+02 0.822729324419744D+02 0.759603603626424D+02
 0.125869297495555D+03 0.527528713783191D+02 -.541184883616543D+02 -.426163406079927D+02
 0.000000000000000D+00 -.000000000000000D+00 0.000000000000000D+00 -.000000000000000D+00
 0.270964403467832D+03 0.000000000000000D+00 0.000000000000000D+00 0.270964403467832D+03
 0.310071271835117D+03 0.000000000000000D+00 0.000000000000000D+00 -.310071271835117D+03
 0.158324084590564D+03 -.322658400705638D+02 -.969506184919194D+02 -.794402766612444D+02
 0.724367025036078D+02 0.478074857431698D+02 0.289249939622122D+02 0.460962569065947D+02
 0.104756860713514D+03 -.362879209012562D+02 0.623474964757379D+02 0.759603603626424D+02
 0.143064656600329D+03 0.654341625463232D+02 -.778104267384198D+02 -.426163406079927D+02
 0.102453370894934D+03 -.446878873176731D+02 0.834885547923891D+02 -.391068683672851D+02
0.206128905802D-05 0.000000000000D+00 0.000000000000D+00 0.612500476316D-07 0.000000000000D+00  7 2 -2 23 -13 13 23 21 0 0.61892819D-01 0.21039777D-01 0.39157630D+05 0.39157630D+05 0.39157630D+05 0.11567513D+01  1  2  2  1  7  1        2 0.355541122727D-03 0.100000000000D+01
-.110490450749D-06 0.000000000000D+00 -.791589273266D-08 0.612500476316D-07 0.000000000000D+00  7 2 -2 23 -13 13 23 21 2 0.61892819D-01 0.21039777D-01 0.39157630D+05 0.39157630D+05 0.39157630D+05 0.11567513D+01  1  2  3  1  7  1        2 -.255009115723D-04 0.100000000000D+01
0.130923883515D-06 0.000000000000D+00 0.000000000000D+00 0.612500476316D-07 0.000000000000D+00  7 2 -2 23 -13 13 23 21 2 0.61892819D-01 0.21039777D-01 0.39157630D+05 0.39157630D+05 0.39157630D+05 0.11567513D+01  1  2 15  1  7  1        2 0.302168952483D-04 0.100000000000D+01
-.497754364299D-06 0.000000000000D+00 0.000000000000D+00 0.612500476316D-07 0.000000000000D+00  7 2 -2 23 -13 13 23 21 2 0.61892819D-01 0.21039777D-01 0.39157630D+05 0.39157630D+05 0.39157630D+05 0.11567513D+01  1  2  4  1  7  1        2 -.114880425798D-03 0.100000000000D+01
  </mgrwgt>
  </event>
  <event>
  8     66 0.29152272E-05 0.94597024E+02 0.75467711E-02 0.10073121E+00
        2 -1    0    0  501    0 0.00000000E+00 0.00000000E+00 0.21631401E+03 0.21631425E+03 0.32000000E+00 0.0000E+00 0.9000E+01
       -2 -1    0    0    0  501 0.00000000E+00 0.00000000E+00 -.21781616E+03 0.21781639E+03 0.32000000E+00 0.0000E+00 0.9000E+01
       25  2    1    2    0    0 0.56201772E+02 -.27820104E+02 -.55078433E+02 0.31117428E+03 0.29977191E+03 0.0000E+00 0.0000E+00
       23  2    3    3    0    0 0.10538882E+03 0.40706040E+02 -.10544020E+03 0.17713415E+03 0.86574165E+02 0.0000E+00 0.0000E+00
       23  1    1    2    0    0 -.56201772E+02 0.27820104E+02 0.53576289E+02 0.12295636E+03 0.91188000E+02 0.0000E+00 0.9000E+01
      -13  1    4    4    0    0 0.93885113E+02 0.65734402E+02 -.88431463E+02 0.14476036E+03 0.10565837E+00 0.0000E+00 0.9000E+01
       13  1    4    4    0    0 0.11503706E+02 -.25028361E+02 -.17008733E+02 0.32373790E+02 0.10565837E+00 0.0000E+00 0.9000E+01
       23  1    3    3    0    0 -.49187047E+02 -.68526145E+02 0.50361763E+02 0.13404013E+03 0.91188000E+02 0.0000E+00 0.9000E+01
#aMCatNLO 1  0  0  2  1 0.18316708D+03 0.00000000D+00  -5  7  0 0.00000000D+00 0.00000000D+00 0.00000000D+00 0.00000000D+00 0.00000000D+00
  <mgrwgt>
 0.3811644003D-03    7    2    0
 0.217064021422524D+03 0.000000000000000D+00 0.000000000000000D+00 0.217064021422524D+03
 0.217064021422524D+03 0.000000000000000D+00 0.000000000000000D+00 -.217064021422524D+03
 0.123142491577807D+03 -.562017819383903D+02 0.278201092499801D+02 0.540020658517709D+02
 0.144455401498992D+03 0.938852352827463D+02 0.657345291344141D+02 -.879312077570594D+02
 0.323149635495984D+02 0.115035858189038D+02 -.250284933946537D+02 -.168967127250470D+02
 0.134215186218650D+03 -.491870391632598D+02 -.685261449897405D+02 0.508258546303355D+02
 0.000000000000000D+00 -.000000000000000D+00 -.000000000000000D+00 -.000000000000000D+00
 0.246830778139447D+03 0.000000000000000D+00 0.000000000000000D+00 0.246830778139447D+03
 0.982002284792163D+03 0.000000000000000D+00 0.000000000000000D+00 -.982002284792163D+03
 0.144263179649636D+03 -.536551983353666D+02 0.818627524210891D+02 0.540020658517709D+02
 0.186355216263477D+03 0.970356430173059D+02 0.132591301808263D+03 -.879312077570594D+02
 0.247536651906106D+02 0.120470673147516D+02 -.134949326997184D+02 -.168967127250470D+02
 0.115815093960959D+03 -.468059265681449D+02 -.179950655564022D+02 0.508258546303355D+02
 0.757645907866928D+03 -.862158542854604D+01 -.182964055973232D+03 -.735171506652716D+03
0.351051467559D-05 0.000000000000D+00 0.000000000000D+00 0.986063162679D-08 0.000000000000D+00  7 2 -2 23 -13 13 23 21 0 0.33279115D-01 0.33510214D-01 0.35540730D+05 0.35540730D+05 0.35540730D+05 0.11605677D+01  1  2  2  2  7  2       -2 0.536170335320D-03 0.100000000000D+01
-.190315954730D-06 0.000000000000D+00 -.134813006940D-07 0.986063162679D-08 0.000000000000D+00  7 2 -2 23 -13 13 23 21 2 0.33279115D-01 0.33510214D-01 0.35540730D+05 0.35540730D+05 0.35540730D+05 0.11605677D+01  1  2  3  2  7  2       -2 -.391514766929D-04 0.100000000000D+01
0.217491037665D-06 0.000000000000D+00 0.000000000000D+00 0.986063162679D-08 0.000000000000D+00  7 2 -2 23 -13 13 23 21 2 0.33279115D-01 0.33510214D-01 0.35540730D+05 0.35540730D+05 0.35540730D+05 0.11605677D+01  1  2 15  2  7  2       -2 0.447418888456D-04 0.100000000000D+01
0.118750679269D-07 0.000000000000D+00 0.000000000000D+00 0.986063162679D-08 0.000000000000D+00  7 2 -2 23 -13 13 23 21 2 0.33279115D-01 0.14349710D+00 0.91024084D+05 0.91024084D+05 0.91024084D+05 0.11250892D+01  1  2 12  2  7  2       -2 0.985996221751D-07 0.100000000000D+01
-.865606876577D-05 0.000000000000D+00 -.140032293984D-05 0.986063162679D-08 0.000000000000D+00  7 2 -2 23 -13 13 23 21 2 0.33279115D-01 0.15993792D+00 0.35540730D+05 0.35540730D+05 0.35540730D+05 0.11605677D+01  1  2  5  2  7  2       -2 -.583572914943D-04 0.100000000000D+01
0.207802782727D-08 0.000000000000D+00 0.000000000000D+00 0.986063162679D-08 0.000000000000D+00  7 2 21 23 -13 13 23 2 2 0.33279115D-01 0.14349710D+00 0.91024084D+05 0.91024084D+05 0.91024084D+05 0.11250892D+01  1  2 12  4  7  2       -2 0.154794034065D-06 0.100000000000D+01
-.167127682421D-05 0.000000000000D+00 -.265925718091D-06 0.986063162679D-08 0.000000000000D+00  7 2 21 23 -13 13 23 2 2 0.33279115D-01 0.15993792D+00 0.35540730D+05 0.35540730D+05 0.35540730D+05 0.11605677D+01  1  2  5  4  7  2       -2 -.102492449310D-03 0.100000000000D+01
  </mgrwgt>
  </event>
  <event>
  8     66 0.29152272E-05 0.13457881E+03 0.75467711E-02 0.10641066E+00
        2 -1    0    0  501    0 0.00000000E+00 0.00000000E+00 0.40647424E+03 0.40647437E+03 0.32000000E+00 0.0000E+00 0.9000E+01
       -2 -1    0    0    0  501 0.00000000E+00 0.00000000E+00 -.11836275E+03 0.11836318E+03 0.32000000E+00 0.0000E+00 0.9000E+01
       25  2    1    2    0    0 -.23328736E+02 -.79232893E+02 0.23694613E+03 0.39158881E+03 0.30062642E+03 0.0000E+00 0.0000E+00
       23  2    3    3    0    0 -.70086672E+02 -.75119734E+01 0.24029691E+03 0.26646218E+03 0.91054465E+02 0.0000E+00 0.0000E+00
       23  1    1    2    0    0 0.23328736E+02 0.79232893E+02 0.51165355E+02 0.13324874E+03 0.91188000E+02 0.0000E+00 0.9000E+01
      -13  1    4    4    0    0 -.53447995E+02 0.36491956E+02 0.16974468E+03 0.18166348E+03 0.10565837E+00 0.0000E+00 0.9000E+01
       13  1    4    4    0    0 -.16638676E+02 -.44003930E+02 0.70552232E+02 0.84798702E+02 0.10565837E+00 0.0000E+00 0.9000E+01
       23  1    3    3    0    0 0.46757936E+02 -.71720919E+02 -.33507807E+01 0.12512663E+03 0.91188000E+02 0.0000E+00 0.9000E+01
#aMCatNLO 1  0  0  2  1 0.38402670D+02 0.00000000D+00  -5  7  0 0.00000000D+00 0.00000000D+00 0.00000000D+00 0.00000000D+00 0.00000000D+00
  <mgrwgt>
 0.3557312248D-03    9    2    0
 0.219343465662213D+03 0.000000000000000D+00 0.000000000000000D+00 0.219343465662213D+03
 0.219343465662213D+03 0.000000000000000D+00 0.000000000000000D+00 -.219343465662213D+03
 0.125813250866165D+03 0.233287488655146D+02 0.792329367745322D+02 -.262989345024720D+02
 0.105857816140250D+03 -.534480356726380D+02 0.364920448334401D+02 0.837706117000088D+02
 0.551158633461254D+02 -.166386284384405D+02 -.440040486206240D+02 0.287151204258323D+02
 0.151900000971885D+03 0.467579152455639D+02 -.717209329873483D+02 -.861867976233690D+02
 0.000000000000000D+00 -.000000000000000D+00 0.000000000000000D+00 -.000000000000000D+00
 0.234557851528228D+03 0.000000000000000D+00 0.000000000000000D+00 0.234557851528228D+03
 0.245829415931223D+03 0.000000000000000D+00 0.000000000000000D+00 -.245829415931223D+03
 0.126429282609241D+03 0.339558829278647D+02 0.763182561102595D+02 -.262989345024720D+02
 0.100905491652405D+03 -.447369695379420D+02 0.341028799015747D+02 0.837706117000088D+02
 0.549408560383024D+02 -.120018707305070D+02 -.452757619496306D+02 0.287151204258323D+02
 0.158088978576390D+03 0.598179428234737D+02 -.753028780002622D+02 -.861867976233690D+02
 0.400226585831122D+02 -.370349854828893D+02 0.101575039380587D+02 -.112715644029952D+02
0.120492817772D-05 0.000000000000D+00 0.000000000000D+00 0.591578049597D-07 0.000000000000D+00  7 2 -2 23 -13 13 23 21 0 0.62534541D-01 0.18209697D-01 0.32378021D+05 0.32378021D+05 0.32378021D+05 0.11642746D+01  1  2  2  2  7  2       -2 0.259405906532D-03 0.100000000000D+01
-.637489612386D-07 0.000000000000D+00 -.462724146731D-08 0.591578049597D-07 0.000000000000D+00  7 2 -2 23 -13 13 23 21 2 0.62534541D-01 0.18209697D-01 0.32378021D+05 0.32378021D+05 0.32378021D+05 0.11642746D+01  1  2  3  2  7  2       -2 -.186038419209D-04 0.100000000000D+01
0.815476103842D-07 0.000000000000D+00 0.000000000000D+00 0.591578049597D-07 0.000000000000D+00  7 2 -2 23 -13 13 23 21 2 0.62534541D-01 0.18209697D-01 0.32378021D+05 0.32378021D+05 0.32378021D+05 0.11642746D+01  1  2 15  2  7  2       -2 0.237980168326D-04 0.100000000000D+01
0.149897043282D-05 0.000000000000D+00 0.000000000000D+00 0.591578049597D-07 0.000000000000D+00  7 2 -2 23 -13 13 23 21 2 0.62534541D-01 0.20978902D-01 0.39538951D+05 0.39538951D+05 0.39538951D+05 0.11563718D+01  1  2 12  2  7  2       -2 0.343582217204D-03 0.100000000000D+01
-.140591864648D-05 0.000000000000D+00 0.000000000000D+00 0.591578049597D-07 0.000000000000D+00  7 2 -2 23 -13 13 23 21 2 0.62534541D-01 0.18209697D-01 0.32378021D+05 0.32378021D+05 0.32378021D+05 0.11642746D+01  1  2  4  2  7  2       -2 -.410288854039D-03 0.100000000000D+01
-.356991646815D-05 0.000000000000D+00 -.965696169265D-06 0.591578049597D-07 0.000000000000D+00  7 2 -2 23 -13 13 23 21 2 0.62534541D-01 0.21755294D-01 0.32378021D+05 0.32378021D+05 0.32378021D+05 0.11642746D+01  1  2  5  2  7  2       -2 -.779721577898D-03 0.100000000000D+01
0.369812322853D-05 0.000000000000D+00 0.950613267938D-06 0.591578049597D-07 0.000000000000D+00  7 2 -2 23 -13 13 23 21 2 0.62534541D-01 0.18209697D-01 0.32378021D+05 0.32378021D+05 0.32378021D+05 0.11642746D+01  1  2  6  2  7  2       -2 0.107922229023D-02 0.100000000000D+01
0.326196012272D-07 0.000000000000D+00 0.000000000000D+00 0.591578049597D-07 0.000000000000D+00  7 2 21 23 -13 13 23 2 2 0.62534541D-01 0.20978902D-01 0.39538951D+05 0.39538951D+05 0.39538951D+05 0.11563718D+01  1  2 12  4  7  2       -2 0.973205084870D-04 0.100000000000D+01
-.842177826766D-07 0.000000000000D+00 -.252364178058D-07 0.591578049597D-07 0.000000000000D+00  7 2 21 23 -13 13 23 2 2 0.62534541D-01 0.21755294D-01 0.32378021D+05 0.32378021D+05 0.32378021D+05 0.11642746D+01  1  2  5  4  7  2       -2 -.238983440663D-03 0.100000000000D+01
  </mgrwgt>
  </event>
  <event>
  8     66 0.29152272E-05 0.28234445E+03 0.75467711E-02 0.96331170E-01
        2 -1    0    0  501    0 0.00000000E+00 0.00000000E+00 0.97894781E+02 0.97895304E+02 0.32000000E+00 0.0000E+00 0.9000E+01
       -2 -1    0    0    0  501 0.00000000E+00 0.00000000E+00 -.20163309E+04 0.20163309E+04 0.32000000E+00 0.0000E+00 0.9000E+01
       25  2    1    2    0    0 0.28211810E+03 -.26491390E+03 -.99764639E+03 0.11112611E+04 0.29972153E+03 0.0000E+00 0.0000E+00
       23  2    3    3    0    0 0.18359257E+03 -.12108363E+03 -.79139701E+03 0.82621994E+03 0.89233829E+02 0.0000E+00 0.0000E+00
       23  1    1    2    0    0 -.28211810E+03 0.26491390E+03 -.92078969E+03 0.10029651E+04 0.91188000E+02 0.0000E+00 0.9000E+01
      -13  1    4    4    0    0 0.81022594E+02 -.75798053E+01 -.34003680E+03 0.34963860E+03 0.10565837E+00 0.0000E+00 0.9000E+01
       13  1    4    4    0    0 0.10256997E+03 -.11350383E+03 -.45136021E+03 0.47658134E+03 0.10565837E+00 0.0000E+00 0.9000E+01
       23  1    3    3    0    0 0.98525535E+02 -.14383027E+03 -.20624937E+03 0.28504120E+03 0.91188000E+02 0.0000E+00 0.9000E+01
#aMCatNLO 1  0  0  1  2 0.35299585D+02 0.00000000D+00  -5  7  0 0.00000000D+00 0.00000000D+00 0.00000000D+00 0.00000000D+00 0.00000000D+00
  <mgrwgt>
 0.2096147439D-03    9    2    0
 0.444284647878197D+03 0.000000000000000D+00 0.000000000000000D+00 0.444284647878197D+03
 0.444284647878197D+03 0.000000000000000D+00 0.000000000000000D+00 -.444284647878197D+03
 0.398414425323559D+03 -.282118099673798D+03 0.264913902162175D+03 -.254716556108268D+02
 0.977708140320027D+02 0.810225640784979D+02 -.757965688977006D+01 -.541943261611354D+02
 0.159464325172653D+03 0.102570000910671D+03 -.113503974380255D+03 -.450012634916060D+02
 0.232919731228180D+03 0.985255346846288D+02 -.143830270892149D+03 0.124667245263568D+03
 0.000000000000000D+00 0.000000000000000D+00 -.000000000000000D+00 0.000000000000000D+00
 0.467994064359639D+03 0.000000000000000D+00 0.000000000000000D+00 0.467994064359639D+03
 0.457971085904745D+03 0.000000000000000D+00 0.000000000000000D+00 -.457971085904745D+03
 0.413981064816916D+03 -.295170667545852D+03 0.274391221550411D+03 -.254716556108268D+02
 0.950664490187371D+02 0.779242929842113D+02 -.533003788761478D+01 -.541943261611354D+02
 0.153643576061072D+03 0.975393696704323D+02 -.109851290904059D+03 -.450012634916060D+02
 0.226579090680716D+03 0.911428748435975D+02 -.138469806504298D+03 0.124667245263568D+03
 0.366949696869436D+02 0.285641300476113D+02 -.207400862544396D+02 0.100229784548937D+02
0.116119586028D-03 0.000000000000D+00 0.000000000000D+00 0.177538537196D-06 0.000000000000D+00  7 2 -2 23 -13 13 23 21 0 0.15060778D-01 0.31020479D+00 0.17168854D+06 0.17168854D+06 0.17168854D+06 0.11029531D+01  1  2  2  1  7  1        2 0.141955730219D-03 0.100000000000D+01
-.641293207699D-05 0.000000000000D+00 -.445929785335D-06 0.177538537196D-06 0.000000000000D+00  7 2 -2 23 -13 13 23 21 2 0.15060778D-01 0.31020479D+00 0.17168854D+06 0.17168854D+06 0.17168854D+06 0.11029531D+01  1  2  3  1  7  1        2 -.953714066417D-05 0.100000000000D+01
0.755316242218D-05 0.000000000000D+00 0.000000000000D+00 0.177538537196D-06 0.000000000000D+00  7 2 -2 23 -13 13 23 21 2 0.15060778D-01 0.31020479D+00 0.17168854D+06 0.17168854D+06 0.17168854D+06 0.11029531D+01  1  2 15  1  7  1        2 0.112328606657D-04 0.100000000000D+01
0.294705816263D-03 0.000000000000D+00 0.000000000000D+00 0.177538537196D-06 0.000000000000D+00  7 2 -2 23 -13 13 23 21 2 0.16086626D-01 0.31020479D+00 0.18606581D+06 0.18606581D+06 0.18606581D+06 0.11002423D+01  1  2 12  1  7  1        2 0.400730841875D-03 0.100000000000D+01
-.267588686755D-03 0.000000000000D+00 0.000000000000D+00 0.177538537196D-06 0.000000000000D+00  7 2 -2 23 -13 13 23 21 2 0.15060778D-01 0.31020479D+00 0.17168854D+06 0.17168854D+06 0.17168854D+06 0.11029531D+01  1  2  4  1  7  1        2 -.397950721306D-03 0.100000000000D+01
-.104775332895D-02 0.000000000000D+00 -.193418119193D-03 0.177538537196D-06 0.000000000000D+00  7 2 -2 23 -13 13 23 21 2 0.16420281D-01 0.31020479D+00 0.17168854D+06 0.17168854D+06 0.17168854D+06 0.11029531D+01  1  2  5  1  7  1        2 -.140153765530D-02 0.100000000000D+01
0.106122364739D-02 0.000000000000D+00 0.192698040380D-03 0.177538537196D-06 0.000000000000D+00  7 2 -2 23 -13 13 23 21 2 0.15060778D-01 0.31020479D+00 0.17168854D+06 0.17168854D+06 0.17168854D+06 0.11029531D+01  1  2  6  1  7  1        2 0.157822335865D-02 0.100000000000D+01
0.353995747592D-05 0.000000000000D+00 0.000000000000D+00 0.177538537196D-06 0.000000000000D+00  7 21 -2 23 -13 13 23 -2 2 0.16086626D-01 0.31020479D+00 0.18606581D+06 0.18606581D+06 0.18606581D+06 0.11002423D+01  1  2 12  3  7  1        2 0.379925550382D-04 0.100000000000D+01
-.144990798002D-04 0.000000000000D+00 -.276611070136D-05 0.177538537196D-06 0.000000000000D+00  7 21 -2 23 -13 13 23 -2 2 0.16420281D-01 0.31020479D+00 0.17168854D+06 0.17168854D+06 0.17168854D+06 0.11029531D+01  1  2  5  3  7  1        2 -.151495085268D-03 0.100000000000D+01
  </mgrwgt>
  </event>
  <event>
  9     66 0.29152272E-05 0.19505244E+03 0.75467711E-02 0.10324428E+00
        2 -1    0    0  501    0 0.00000000E+00 0.00000000E+00 0.16303613E+04 0.16303613E+04 0.32000000E+00 0.0000E+00 0.9000E+01
       21 -1    0    0  502  501 0.00000000E+00 0.00000000E+00 -.64455412E+02 0.64459775E+02 0.75000000E+00 0.0000E+00 0.9000E+01
       25  2    1    2    0    0 -.78728769E+02 -.14019555E+03 0.11776298E+04 0.12255603E+04 0.29888664E+03 0.0000E+00 0.0000E+00
       23  2    3    3    0    0 -.18430654E+02 -.30539124E+01 0.85178000E+03 0.85551031E+03 0.77586739E+02 0.0000E+00 0.0000E+00
       23  1    1    2    0    0 -.71398427E+01 0.15141620E+03 0.25727868E+03 0.31222655E+03 0.91188000E+02 0.0000E+00 0.9000E+01
      -13  1    4    4    0    0 -.31498195E+02 0.17195130E+02 0.75220101E+03 0.75305656E+03 0.10565837E+00 0.0000E+00 0.9000E+01
       13  1    4    4    0    0 0.13067541E+02 -.20249042E+02 0.99578988E+02 0.10245375E+03 0.10565837E+00 0.0000E+00 0.9000E+01
       23  1    3    3    0    0 -.60298115E+02 -.13714163E+03 0.32584975E+03 0.37005000E+03 0.91188000E+02 0.0000E+00 0.9000E+01
        2  1    1    2  502    0 0.85868612E+02 -.11220654E+02 0.13099745E+03 0.15703425E+03 0.32000000E+00 0.0000E+00 0.9000E+01
#aMCatNLO 2  0  0  2  1 0.86598624D+02 0.00000000D+00  -5  7  0 0.00000000D+00 0.00000000D+00 0.00000000D+00 0.00000000D+00 0.00000000D+00
  <mgrwgt>
 0.6137240334D-03    2    2    0
 0.273096533168509D+03 0.000000000000000D+00 0.000000000000000D+00 0.273096533168509D+03
 0.273096533168509D+03 0.000000000000000D+00 0.000000000000000D+00 -.273096533168509D+03
 0.198930476485106D+03 0.240753742800977D+02 0.147337236150226D+03 -.947111309587038D+02
 0.138784924482800D+03 -.953934629359379D+01 0.143257729995325D+02 0.137713573637290D+03
 0.293201877869396D+02 0.174296663862548D+02 -.208191082407292D+02 0.110654811728215D+02
 0.179157477582173D+03 -.319656943727587D+02 -.140843900909030D+03 -.540679238514077D+02
 0.000000000000000D+00 0.000000000000000D+00 -.000000000000000D+00 -.000000000000000D+00
 0.303299027244219D+03 0.000000000000000D+00 0.000000000000000D+00 0.303299027244219D+03
 0.346486956815204D+03 0.000000000000000D+00 0.000000000000000D+00 -.346486956815204D+03
 0.200657153752695D+03 -.713984272288056D+01 0.151416202325077D+03 -.947111309587038D+02
 0.142312489304276D+03 -.314982762162185D+02 0.171951982667588D+02 0.137713573637290D+03
 0.265185610929175D+02 0.130676227904052D+02 -.202491096955005D+02 0.110654811728215D+02
 0.183527335708505D+03 -.602981158338928D+02 -.137141636440372D+03 -.540679238514077D+02
 0.967704442010292D+02 0.858686119825867D+02 -.112206544559635D+02 -.431879295709847D+02
-.560787769719D-06 0.000000000000D+00 0.000000000000D+00 0.512172944027D-09 0.000000000000D+00  7 2 21 23 -13 13 23 2 2 0.22584781D+00 0.10258604D-01 0.62216614D+05 0.62216614D+05 0.62216614D+05 0.11390373D+01  1  2 13  4  7  2       -2 -.107544664968D-02 0.100000000000D+01
0.101426485738D-05 0.000000000000D+00 0.000000000000D+00 0.512172944027D-09 0.178811146105D-13  7 2 21 23 -13 13 23 2 2 0.25082494D+00 0.99165470D-02 0.62216614D+05 0.62216614D+05 0.62216614D+05 0.11390373D+01  1  2  1  4  7  2       -2 0.168917068309D-02 0.100000000000D+01
  </mgrwgt>
  </event>
  <event>
  8     66 0.29152272E-05 0.40988039E+03 0.75467711E-02 0.87322365E-01
        2 -1    0    0  501    0 0.00000000E+00 0.00000000E+00 0.22890100E+03 0.22890123E+03 0.32000000E+00 0.0000E+00 0.9000E+01
       -2 -1    0    0    0  501 0.00000000E+00 0.00000000E+00 -.95056578E+03 0.95056584E+03 0.32000000E+00 0.0000E+00 0.9000E+01
       25  2    1    2    0    0 -.26965068E+03 0.27656322E+03 -.20964407E+03 0.53164057E+03 0.29915274E+03 0.0000E+00 0.0000E+00
       23  2    3    3    0    0 -.39941863E+02 0.57604386E+02 0.35392339E+02 0.12046275E+03 0.91351184E+02 0.0000E+00 0.0000E+00
       23  1    1    2    0    0 0.26965068E+03 -.27656322E+03 -.51202071E+03 0.64782649E+03 0.91188000E+02 0.0000E+00 0.9000E+01
      -11  1    4    4    0    0 -.11181046E+02 0.62522021E+02 -.12164463E+02 0.64668331E+02 0.51099893E-03 0.0000E+00 0.9000E+01
       11  1    4    4    0    0 -.28760817E+02 -.49176352E+01 0.47556802E+02 0.55794419E+02 0.51099893E-03 0.0000E+00 0.9000E+01
       23  1    3    3    0    0 -.22970882E+03 0.21895883E+03 -.24503641E+03 0.41117782E+03 0.91188000E+02 0.0000E+00 0.9000E+01
#aMCatNLO 1  0  0  1  1 0.83468698D+03 0.00000000D+00  -5  7  0 0.00000000D+00 0.00000000D+00 0.00000000D+00 0.00000000D+00 0.00000000D+00
  <mgrwgt>
 0.5236767711D-03    3    2    0
 0.466460743752210D+03 0.000000000000000D+00 0.000000000000000D+00 0.466460743752210D+03
 0.466460743752210D+03 0.000000000000000D+00 0.000000000000000D+00 -.466460743752210D+03
 0.422953807802818D+03 0.269650677826092D+03 -.276563218582505D+03 -.146205233374588D+03
 0.723485343352185D+02 -.111810456575585D+02 0.625220210909915D+02 0.346452235835690D+02
 0.107327090215733D+03 -.287608169673559D+02 -.491763517845929D+01 0.103284735395884D+03
 0.330292055150651D+03 -.229708815201178D+03 0.218958832669972D+03 0.827527439513493D+01
 0.000000000000000D+00 -.000000000000000D+00 0.000000000000000D+00 -.000000000000000D+00
 0.853329573197866D+03 0.000000000000000D+00 0.000000000000000D+00 0.853329573197866D+03
 0.139178036856646D+04 0.000000000000000D+00 0.000000000000000D+00 -.139178036856646D+04
 0.829408772682829D+03 0.299221501394851D+03 -.754118149692825D+03 -.146205233374588D+03
 0.406290943940101D+02 -.851341443124613D+01 0.194410279780610D+02 0.346452235835690D+02
 0.146815159130160D+03 -.227600023998522D+02 -.101827975897467D+03 0.103284735395884D+03
 0.234963597304583D+03 -.216361981440371D+03 0.341372746306038D+01 0.827527439513493D+01
 0.993293318252746D+03 -.515861031233815D+02 0.833091370149170D+03 -.538450795368596D+03
0.900732682293D-04 0.000000000000D+00 0.000000000000D+00 0.349073017570D-06 0.000000000000D+00  7 2 -2 23 -11 11 23 21 0 0.35215560D-01 0.14624091D+00 0.16800193D+06 0.16800193D+06 0.16800193D+06 0.11036883D+01  1  2  2  1  7  1        2 0.518322413637D-03 0.100000000000D+01
-.490233814382D-05 0.000000000000D+00 -.345905066837D-06 0.349073017570D-06 0.000000000000D+00  7 2 -2 23 -11 11 23 21 2 0.35215560D-01 0.14624091D+00 0.16800193D+06 0.16800193D+06 0.16800193D+06 0.11036883D+01  1  2  3  1  7  1        2 -.343637247921D-04 0.100000000000D+01
0.566619220248D-05 0.000000000000D+00 0.000000000000D+00 0.349073017570D-06 0.000000000000D+00  7 2 -2 23 -11 11 23 21 2 0.35215560D-01 0.14624091D+00 0.16800193D+06 0.16800193D+06 0.16800193D+06 0.11036883D+01  1  2 15  1  7  1        2 0.397180822198D-04 0.100000000000D+01
  </mgrwgt>
  </event>
  <event>
  8     66 0.29152272E-05 0.34135563E+03 0.75467711E-02 0.88113485E-01
        2 -1    0    0  501    0 0.00000000E+00 0.00000000E+00 0.41122090E+03 0.41122103E+03 0.32000000E+00 0.0000E+00 0.9000E+01
       -2 -1    0    0    0  501 0.00000000E+00 0.00000000E+00 -.16455325E+04 0.16455326E+04 0.32000000E+00 0.0000E+00 0.9000E+01
       25  2    1    2    0    0 0.28134966E+03 -.16762806E+03 0.26726589E+03 0.51717342E+03 0.29796055E+03 0.0000E+00 0.0000E+00
       23  2    3    3    0    0 0.34931184E+02 -.29277626E+02 -.20582531E+02 0.10360979E+03 0.90741289E+02 0.0000E+00 0.0000E+00
       23  1    1    2    0    0 -.28134966E+03 0.16762806E+03 -.15015775E+04 0.15395802E+04 0.91188000E+02 0.0000E+00 0.9000E+01
      -11  1    4    4    0    0 0.99336587E+01 -.11102781E+02 0.36097558E+02 0.39051031E+02 0.51099893E-03 0.0000E+00 0.9000E+01
       11  1    4    4    0    0 0.24997525E+02 -.18174844E+02 -.56680089E+02 0.64558762E+02 0.51099893E-03 0.0000E+00 0.9000E+01
       23  1    3    3    0    0 0.24641848E+03 -.13835043E+03 0.28784842E+03 0.41356363E+03 0.91188000E+02 0.0000E+00 0.9000E+01
#aMCatNLO 1  0  0  1  1 0.83349317D+03 0.00000000D+00  -5  7  0 0.00000000D+00 0.00000000D+00 0.00000000D+00 0.00000000D+00 0.00000000D+00
  <mgrwgt>
 0.1012872385D-02    5    2    0
 0.822604115272955D+03 0.000000000000000D+00 0.000000000000000D+00 0.822604115272955D+03
 0.822604115272955D+03 0.000000000000000D+00 0.000000000000000D+00 -.822604115272955D+03
 0.798149690851418D+03 -.281349664767217D+03 0.167628055405612D+03 -.722129405881330D+03
 0.759016271818032D+02 0.993365866929046D+01 -.111027810643123D+02 0.744251818064654D+02
 0.381839642230612D+02 0.249975252582657D+02 -.181748444751253D+02 -.224235118359145D+02
 0.732972948289627D+03 0.246418480839661D+03 -.138350429866174D+03 0.670127735910779D+03
 0.000000000000000D+00 0.000000000000000D+00 0.000000000000000D+00 0.000000000000000D+00
 0.173358142603394D+04 0.000000000000000D+00 0.000000000000000D+00 0.173358142603394D+04
 0.113618500338648D+04 0.000000000000000D+00 0.000000000000000D+00 -.113618500338648D+04
 0.101457051621168D+04 -.703282116233837D+03 0.704376828775850D+02 -.722129405881330D+03
 0.814449005752551D+02 -.266906399552933D+02 -.195390348166090D+02 0.744251818064654D+02
 0.325303832386715D+02 0.853790955908858D+01 -.219662479946001D+02 -.224235118359145D+02
 0.715748370916780D+03 -.907888473089341D+02 -.216024725190043D+03 0.670127735910779D+03
 0.102547225847803D+04 0.812223693938976D+03 0.187092325123667D+03 0.597396422647456D+03
0.149200883553D-02 0.000000000000D+00 0.000000000000D+00 0.475973814554D-06 0.000000000000D+00  7 2 -2 23 -11 11 23 21 0 0.63264766D-01 0.25315886D+00 0.11652367D+06 0.11652367D+06 0.11652367D+06 0.11163124D+01  1  2  2  1  7  1        2 0.831868639999D-03 0.100000000000D+01
-.492402363780D-05 0.000000000000D+00 -.572970678338D-05 0.475973814554D-06 0.000000000000D+00  7 2 -2 23 -11 11 23 21 2 0.63264766D-01 0.25315886D+00 0.11652367D+06 0.11652367D+06 0.11652367D+06 0.11163124D+01  1  2  3  1  7  1        2 -.342117259871D-05 0.100000000000D+01
0.901882858288D-04 0.000000000000D+00 0.000000000000D+00 0.475973814554D-06 0.000000000000D+00  7 2 -2 23 -11 11 23 21 2 0.63264766D-01 0.25315886D+00 0.11652367D+06 0.11652367D+06 0.11652367D+06 0.11163124D+01  1  2 15  1  7  1        2 0.626621062160D-04 0.100000000000D+01
0.544779054624D-03 0.000000000000D+00 -.475930457698D-03 0.475973814554D-06 0.000000000000D+00  7 2 -2 23 -11 11 23 21 2 0.17198114D+00 0.25315886D+00 0.11652367D+06 0.11652367D+06 0.11652367D+06 0.11163124D+01  1  2  5  1  7  1        2 0.110837400987D-03 0.100000000000D+01
0.883533644747D-04 0.000000000000D+00 -.531571323402D-04 0.475973814554D-06 0.000000000000D+00  7 21 -2 23 -11 11 23 -2 2 0.17198114D+00 0.25315886D+00 0.11652367D+06 0.11652367D+06 0.11652367D+06 0.11163124D+01  1  2  5  3  7  1        2 0.109254107507D-04 0.100000000000D+01
  </mgrwgt>
  </event>
  <event>
  8     66 0.29152272E-05 0.12636808E+03 0.75467711E-02 0.10586550E+00
        2 -1    0    0  501    0 0.00000000E+00 0.00000000E+00 0.18985965E+04 0.18985965E+04 0.32000000E+00 0.0000E+00 0.9000E+01
       -2 -1    0    0    0  501 0.00000000E+00 0.00000000E+00 -.69460431E+02 0.69461168E+02 0.32000000E+00 0.0000E+00 0.9000E+01
       25  2    1    2    0    0 0.24505400E+01 -.15439741E+03 0.38362086E+03 0.51146096E+03 0.30096974E+03 0.0000E+00 0.0000E+00
       23  2    3    3    0    0 0.28968343E+02 -.10029116E+03 0.37741102E+03 0.40198725E+03 0.90869056E+02 0.0000E+00 0.0000E+00
       23  1    1    2    0    0 -.24505400E+01 0.15439741E+03 0.14455152E+04 0.14565967E+04 0.91188000E+02 0.0000E+00 0.9000E+01
      -13  1    4    4    0    0 0.92425930E+01 -.22703210E+02 0.25208526E+03 0.25327426E+03 0.10565837E+00 0.0000E+00 0.9000E+01
       13  1    4    4    0    0 0.19725750E+02 -.77587946E+02 0.12532577E+03 0.14871299E+03 0.10565837E+00 0.0000E+00 0.9000E+01
       23  1    3    3    0    0 -.26517803E+02 -.54106257E+02 0.62098344E+01 0.10947372E+03 0.91188000E+02 0.0000E+00 0.9000E+01
#aMCatNLO 1  0  0  2  1 0.20262691D+02 0.00000000D+00  -5  7  0 0.00000000D+00 0.00000000D+00 0.00000000D+00 0.00000000D+00 0.00000000D+00
  <mgrwgt>
 0.1808417265D-03    9    2    0
 0.363150221857987D+03 0.000000000000000D+00 0.000000000000000D+00 0.363150221857987D+03
 0.363150221857987D+03 0.000000000000000D+00 0.000000000000000D+00 -.363150221857987D+03
 0.306515577511580D+03 -.245054004969888D+01 0.154397413401966D+03 0.248579929804287D+03
 0.514388764136621D+02 0.924257867688465D+01 -.227031360055307D+02 0.452227858674803D+02
 0.873438817628058D+02 0.197257638608930D+02 -.775880198020342D+02 -.349277411908992D+02
 0.281002108027927D+03 -.265178024880787D+02 -.541062575944014D+02 -.258874974480868D+03
 0.000000000000000D+00 -.000000000000000D+00 -.000000000000000D+00 -.000000000000000D+00
 0.367786841401840D+03 0.000000000000000D+00 0.000000000000000D+00 0.367786841401840D+03
 0.386125068551079D+03 0.000000000000000D+00 0.000000000000000D+00 -.386125068551079D+03
 0.307056474542117D+03 0.605121729115805D+01 0.155369972909906D+03 0.248579929804287D+03
 0.516430874237555D+02 0.106708996700449D+02 -.225397430613907D+02 0.452227858674803D+02
 0.876786055390923D+02 0.221509048223390D+02 -.773105955230781D+02 -.349277411908992D+02
 0.280204870561325D+03 -.187416243945828D+02 -.532167008078400D+02 -.258874974480868D+03
 0.273288718866288D+02 -.201313973889592D+02 -.230293351759684D+01 -.183382271492395D+02
0.408273054569D-05 0.000000000000D+00 0.000000000000D+00 0.198494119199D-06 0.000000000000D+00  7 2 -2 23 -13 13 23 21 0 0.29209183D+00 0.10686279D-01 0.38651109D+05 0.38651109D+05 0.38651109D+05 0.11572618D+01  1  2  2  2  7  2       -2 0.230747202690D-03 0.100000000000D+01
-.122969222257D-06 0.000000000000D+00 -.156787603031D-07 0.198494119199D-06 0.000000000000D+00  7 2 -2 23 -13 13 23 21 2 0.29209183D+00 0.10686279D-01 0.38651109D+05 0.38651109D+05 0.38651109D+05 0.11572618D+01  1  2  3  2  7  2       -2 -.930776427581D-05 0.100000000000D+01
0.241072809104D-06 0.000000000000D+00 0.000000000000D+00 0.198494119199D-06 0.000000000000D+00  7 2 -2 23 -13 13 23 21 2 0.29209183D+00 0.10686279D-01 0.38651109D+05 0.38651109D+05 0.38651109D+05 0.11572618D+01  1  2 15  2  7  2       -2 0.182472397505D-04 0.100000000000D+01
0.201157656939D-04 0.000000000000D+00 0.000000000000D+00 0.198494119199D-06 0.000000000000D+00  7 2 -2 23 -13 13 23 21 2 0.29209183D+00 0.11427827D-01 0.42664510D+05 0.42664510D+05 0.42664510D+05 0.11534059D+01  1  2 12  2  7  2       -2 0.136137159039D-02 0.100000000000D+01
-.203799513620D-04 0.000000000000D+00 0.000000000000D+00 0.198494119199D-06 0.000000000000D+00  7 2 -2 23 -13 13 23 21 2 0.29209183D+00 0.10686279D-01 0.38651109D+05 0.38651109D+05 0.38651109D+05 0.11572618D+01  1  2  4  2  7  2       -2 -.154259561660D-02 0.100000000000D+01
-.455741273101D-04 0.000000000000D+00 -.736971667297D-05 0.198494119199D-06 0.000000000000D+00  7 2 -2 23 -13 13 23 21 2 0.29209183D+00 0.11515100D-01 0.38651109D+05 0.38651109D+05 0.38651109D+05 0.11572618D+01  1  2  5  2  7  2       -2 -.307515397910D-02 0.100000000000D+01
0.460167046454D-04 0.000000000000D+00 0.734920329595D-05 0.198494119199D-06 0.000000000000D+00  7 2 -2 23 -13 13 23 21 2 0.29209183D+00 0.10686279D-01 0.38651109D+05 0.38651109D+05 0.38651109D+05 0.11572618D+01  1  2  6  2  7  2       -2 0.348308813969D-02 0.100000000000D+01
0.266416151472D-06 0.000000000000D+00 0.000000000000D+00 0.198494119199D-06 0.000000000000D+00  7 2 21 23 -13 13 23 2 2 0.29209183D+00 0.11427827D-01 0.42664510D+05 0.42664510D+05 0.42664510D+05 0.11534059D+01  1  2 12  4  7  2       -2 0.261436857305D-03 0.100000000000D+01
-.558598626743D-06 0.000000000000D+00 -.925971979695D-07 0.198494119199D-06 0.000000000000D+00  7 2 21 23 -13 13 23 2 2 0.29209183D+00 0.11515100D-01 0.38651109D+05 0.38651109D+05 0.38651109D+05 0.11572618D+01  1  2  5  4  7  2       -2 -.546991943354D-03 0.100000000000D+01
  </mgrwgt>
  </event>
  <event>
  8     66 0.29152272E-05 0.23242433E+03 0.75467711E-02 0.83451487E-01
        2 -1    0    0  501    0 0.00000000E+00 0.00000000E+00 0.18343125E+04 0.18343126E+04 0.32000000E+00 0.0000E+00 0.9000E+01
       -2 -1    0    0    0  501 0.00000000E+00 0.00000000E+00 -.22188376E+03 0.22188399E+03 0.32000000E+00 0.0000E+00 0.9000E+01
       25  2    1    2    0    0 0.10227930E+03 -.15519838E+03 -.70691289E+02 0.36039113E+03 0.30056101E+03 0.0000E+00 0.0000E+00
       23  2    3    3    0    0 0.22755093E+02 -.10995333E+03 0.74098828E+02 0.16635340E+03 0.97853403E+02 0.0000E+00 0.0000E+00
       23  1    1    2    0    0 -.10227930E+03 0.15519838E+03 0.16831201E+04 0.16958054E+04 0.91188000E+02 0.0000E+00 0.9000E+01
      -13  1    4    4    0    0 -.18046783E+02 -.67032033E+02 0.81063174E+02 0.10672502E+03 0.10565837E+00 0.0000E+00 0.9000E+01
       13  1    4    4    0    0 0.40801877E+02 -.42921292E+02 -.69643462E+01 0.59628380E+02 0.10565837E+00 0.0000E+00 0.9000E+01
       23  1    3    3    0    0 0.79524206E+02 -.45245050E+02 -.14479012E+03 0.19403774E+03 0.91188000E+02 0.0000E+00 0.9000E+01
#aMCatNLO 1  0  0  1  1 0.15041293D+04 0.00000000D+00  -5  7  0 0.00000000D+00 0.00000000D+00 0.00000000D+00 0.00000000D+00 0.00000000D+00
  <mgrwgt>
 0.7919729444D-03    3    2    0
 0.637968978542428D+03 0.000000000000000D+00 0.000000000000000D+00 0.637968978542428D+03
 0.637968978542428D+03 0.000000000000000D+00 0.000000000000000D+00 -.637968978542428D+03
 0.605827263353204D+03 -.102279299418779D+03 0.155198375608654D+03 0.569353871328607D+03
 0.695480238297905D+02 -.180468512434321D+02 -.670320613613424D+02 -.423574414663612D+01
 0.104893211176469D+03 0.408019441738981D+02 -.429212636995879D+02 -.865768573290337D+02
 0.495669458725392D+03 0.795242064883133D+02 -.452450505477238D+02 -.478541269852937D+03
 0.000000000000000D+00 0.000000000000000D+00 0.000000000000000D+00 -.000000000000000D+00
 0.158357791324349D+04 0.000000000000000D+00 0.000000000000000D+00 0.158357791324349D+04
 0.193302626106161D+04 0.000000000000000D+00 0.000000000000000D+00 -.193302626106161D+04
 0.842319129560793D+03 -.449155981900993D+03 -.418666141222019D+03 0.569353871328607D+03
 0.186142294701742D+03 -.792927376186127D+02 -.168355796185638D+03 -.423574414663612D+01
 0.180569702007359D+03 -.275754165552633D+02 -.156043139739811D+03 -.865768573290337D+02
 0.763384271322927D+03 -.222058826196114D+03 -.544176832578510D+03 -.478541269852937D+03
 0.154418877671229D+04 0.778082962270982D+03 0.128724190972598D+04 -.349448347818118D+03
0.802149437611D-04 0.000000000000D+00 0.000000000000D+00 0.750435384916D-07 0.000000000000D+00  7 2 -2 23 -13 13 23 21 0 0.28220195D+00 0.34135982D-01 0.54021070D+05 0.54021070D+05 0.54021070D+05 0.11443522D+01  1  2  2  1  7  1        2 0.723771009153D-03 0.100000000000D+01
0.106782762188D-05 0.000000000000D+00 -.308046505122D-06 0.750435384916D-07 0.000000000000D+00  7 2 -2 23 -13 13 23 21 2 0.28220195D+00 0.34135982D-01 0.54021070D+05 0.54021070D+05 0.54021070D+05 0.11443522D+01  1  2  3  1  7  1        2 0.126173015737D-04 0.100000000000D+01
0.470423939804D-05 0.000000000000D+00 0.000000000000D+00 0.750435384916D-07 0.000000000000D+00  7 2 -2 23 -13 13 23 21 2 0.28220195D+00 0.34135982D-01 0.54021070D+05 0.54021070D+05 0.54021070D+05 0.11443522D+01  1  2 15  1  7  1        2 0.555846336465D-04 0.100000000000D+01
  </mgrwgt>
  </event>
  <event>
  8     66 0.29152272E-05 0.90132337E+02 0.75467711E-02 0.10095538E+00
        2 -1    0    0  501    0 0.00000000E+00 0.00000000E+00 0.18805032E+04 0.18805032E+04 0.32000000E+00 0.0000E+00 0.9000E+01
       -2 -1    0    0    0  501 0.00000000E+00 0.00000000E+00 -.35525804E+02 0.35527245E+02 0.32000000E+00 0.0000E+00 0.9000E+01
       25  2    1    2    0    0 -.61613373E+02 0.13832584E+02 0.17262801E+04 0.17535748E+04 0.30165220E+03 0.0000E+00 0.0000E+00
       23  2    3    3    0    0 -.44246122E+02 0.89293758E+02 0.13831857E+04 0.13902223E+04 0.97899482E+02 0.0000E+00 0.0000E+00
       23  1    1    2    0    0 0.61613373E+02 -.13832584E+02 0.11869733E+03 0.16245570E+03 0.91188000E+02 0.0000E+00 0.9000E+01
      -11  1    4    4    0    0 -.29886787E+02 0.10828708E+03 0.12391857E+04 0.12442670E+04 0.51099893E-03 0.0000E+00 0.9000E+01
       11  1    4    4    0    0 -.14359336E+02 -.18993324E+02 0.14399997E+03 0.14595522E+03 0.51099893E-03 0.0000E+00 0.9000E+01
       23  1    3    3    0    0 -.17367251E+02 -.75461174E+02 0.34309440E+03 0.36335248E+03 0.91188000E+02 0.0000E+00 0.9000E+01
#aMCatNLO 1  0  0  1  2 0.17560720D+03 0.00000000D+00  -5  7  0 0.00000000D+00 0.00000000D+00 0.00000000D+00 0.00000000D+00 0.00000000D+00
  <mgrwgt>
 0.6728546239D-03    8    2    0
 0.258472036018737D+03 0.000000000000000D+00 0.000000000000000D+00 0.258472036018737D+03
 0.258472036018737D+03 0.000000000000000D+00 0.000000000000000D+00 -.258472036018737D+03
 0.178503234505318D+03 0.616133732310077D+02 -.138325835790875D+02 -.139859233715493D+03
 0.189157775984314D+03 -.298867866720760D+02 0.108287081716501D+03 0.152188541392162D+03
 0.270396215879157D+02 -.143593355702509D+02 -.189933238958558D+02 0.128142212009048D+02
 0.122243439959926D+03 -.173672509886808D+02 -.754611742415574D+02 -.251435288775740D+02
 0.000000000000000D+00 -.000000000000000D+00 -.000000000000000D+00 0.000000000000000D+00
 0.422661709004851D+03 0.000000000000000D+00 0.000000000000000D+00 0.422661709004851D+03
 0.324483763566250D+03 0.000000000000000D+00 0.000000000000000D+00 -.324483763566250D+03
 0.204802864793284D+03 0.117543638941415D+03 0.158697754382826D+02 -.139859233715493D+03
 0.208060677779860D+03 0.280735059106948D+02 0.139067507970133D+03 0.152188541392162D+03
 0.212229166283014D+02 -.731708763516413D+01 -.152534636645400D+02 0.128142212009048D+02
 0.111870554377325D+03 0.167935879172683D+02 -.573196995206491D+02 -.251435288775740D+02
 0.201188458992331D+03 -.155093645134215D+03 -.823641202232266D+02 0.981779454386018D+02
0.273970425540D-05 0.000000000000D+00 0.000000000000D+00 0.148658295745D-08 0.000000000000D+00  7 2 -2 23 -11 11 23 21 0 0.28930829D+00 0.54656212D-02 0.33616089D+05 0.33616089D+05 0.33616089D+05 0.11627777D+01  1  2  2  1  7  1        2 0.433105647046D-03 0.100000000000D+01
-.130381901899D-06 0.000000000000D+00 -.105211857214D-07 0.148658295745D-08 0.000000000000D+00  7 2 -2 23 -11 11 23 21 2 0.28930829D+00 0.54656212D-02 0.33616089D+05 0.33616089D+05 0.33616089D+05 0.11627777D+01  1  2  3  1  7  1        2 -.278676826058D-04 0.100000000000D+01
0.169206066538D-06 0.000000000000D+00 0.000000000000D+00 0.148658295745D-08 0.000000000000D+00  7 2 -2 23 -11 11 23 21 2 0.28930829D+00 0.54656212D-02 0.33616089D+05 0.33616089D+05 0.33616089D+05 0.11627777D+01  1  2 15  1  7  1        2 0.361659163470D-04 0.100000000000D+01
0.296251219097D-08 0.000000000000D+00 0.000000000000D+00 0.148658295745D-08 0.000000000000D+00  7 2 -2 23 -11 11 23 21 2 0.49095219D+00 0.54656212D-02 0.87917461D+05 0.87917461D+05 0.87917461D+05 0.11263404D+01  1  2 12  1  7  1        2 0.103307745375D-06 0.100000000000D+01
-.906625346230D-06 0.000000000000D+00 -.735655809023D-06 0.148658295745D-08 0.000000000000D+00  7 2 -2 23 -11 11 23 21 2 0.50625356D+00 0.54656212D-02 0.33616089D+05 0.33616089D+05 0.33616089D+05 0.11627777D+01  1  2  5  1  7  1        2 -.301316832462D-04 0.100000000000D+01
0.122351047933D-05 0.000000000000D+00 0.633818623830D-06 0.148658295745D-08 0.000000000000D+00  7 2 -2 23 -11 11 23 21 2 0.28930829D+00 0.54656212D-02 0.33616089D+05 0.33616089D+05 0.33616089D+05 0.11627777D+01  1  2  6  1  7  1        2 0.261511768169D-03 0.100000000000D+01
0.174738880202D-09 0.000000000000D+00 0.000000000000D+00 0.148658295745D-08 0.000000000000D+00  7 21 -2 23 -11 11 23 -2 2 0.49095219D+00 0.54656212D-02 0.87917461D+05 0.87917461D+05 0.87917461D+05 0.11263404D+01  1  2 12  3  7  1        2 0.345796178514D-09 0.100000000000D+01
-.186820104043D-07 0.000000000000D+00 -.454683679619D-07 0.148658295745D-08 0.000000000000D+00  7 21 -2 23 -11 11 23 -2 2 0.50625356D+00 0.54656212D-02 0.33616089D+05 0.33616089D+05 0.33616089D+05 0.11627777D+01  1  2  5  3  7  1        2 -.329953071308D-07 0.100000000000D+01
  </mgrwgt>
  </event>
  <event>
  8     66 0.29152272E-05 0.58832050E+03 0.75467711E-02 0.84676992E-01
        2 -1    0    0  501    0 0.00000000E+00 0.00000000E+00 0.17657057E+04 0.17657057E+04 0.32000000E+00 0.0000E+00 0.9000E+01
       -2 -1    0    0    0  501 0.00000000E+00 0.00000000E+00 -.55909569E+03 0.55909578E+03 0.32000000E+00 0.0000E+00 0.9000E+01
       25  2    1    2    0    0 0.43163379E+03 0.34437374E+03 0.15470147E+04 0.16697507E+04 0.29985316E+03 0.0000E+00 0.0000E+00
       23  2    3    3    0    0 0.16099793E+03 0.14755915E+02 0.54048683E+03 0.57279797E+03 0.99163681E+02 0.0000E+00 0.0000E+00
       23  1    1    2    0    0 -.43163379E+03 -.34437374E+03 -.34040467E+03 0.65505083E+03 0.91188000E+02 0.0000E+00 0.9000E+01
      -13  1    4    4    0    0 0.16842005E+03 0.22747886E+02 0.43934757E+03 0.47107226E+03 0.10565837E+00 0.0000E+00 0.9000E+01
       13  1    4    4    0    0 -.74221168E+01 -.79919702E+01 0.10113925E+03 0.10172571E+03 0.10565837E+00 0.0000E+00 0.9000E+01
       23  1    3    3    0    0 0.27063586E+03 0.32961782E+03 0.10065279E+04 0.10969527E+04 0.91188000E+02 0.0000E+00 0.9000E+01
#aMCatNLO 1  0  0  2  2 0.11018813D+04 0.00000000D+00  -5  7  0 0.00000000D+00 0.00000000D+00 0.00000000D+00 0.00000000D+00 0.00000000D+00
  <mgrwgt>
 0.7849375412D-03    3    2    0
 0.993578682554077D+03 0.000000000000000D+00 0.000000000000000D+00 0.993578682554077D+03
 0.993578682554077D+03 0.000000000000000D+00 0.000000000000000D+00 -.993578682554077D+03
 0.973047679983407D+03 -.431633790033424D+03 -.344373736627077D+03 -.795993427736673D+03
 0.284340261544305D+03 0.168420244606998D+03 0.227479198796879D+02 0.227961702228138D+03
 0.575978171267170D+02 -.742231617436342D+01 -.799200520766466D+01 0.565556859487282D+02
 0.672171606453724D+03 0.270635861600789D+03 0.329617821955053D+03 0.511476039559807D+03
 0.000000000000000D+00 0.000000000000000D+00 -.000000000000000D+00 0.000000000000000D+00
 0.232931662362272D+04 0.000000000000000D+00 0.000000000000000D+00 0.232931662362272D+04
 0.139049015363293D+04 0.000000000000000D+00 0.000000000000000D+00 -.139049015363293D+04
 0.968139901185060D+03 -.522513388306259D+03 0.149512002740089D+03 -.795993427736673D+03
 0.320632820508872D+03 0.140097525465256D+03 0.176667912375836D+03 0.227961702228138D+03
 0.622464814484891D+02 -.130330061537669D+02 0.224993242161136D+02 0.565556859487282D+02
 0.921190447158101D+03 0.196040235325322D+03 0.735008214703176D+03 0.511476039559807D+03
 0.144759712695513D+04 0.199408633669448D+03 -.108368745403521D+04 0.938826469989796D+03
0.553298851255D-03 0.000000000000D+00 0.000000000000D+00 0.178407874670D-06 0.000000000000D+00  7 2 -2 23 -13 13 23 21 0 0.27164704D+00 0.86014731D-01 0.34612102D+06 0.34612102D+06 0.34612102D+06 0.10799866D+01  1  2  2  2  7  2       -2 0.764205074274D-03 0.100000000000D+01
-.204752201110D-04 0.000000000000D+00 -.212481327575D-05 0.178407874670D-06 0.000000000000D+00  7 2 -2 23 -13 13 23 21 2 0.27164704D+00 0.86014731D-01 0.34612102D+06 0.34612102D+06 0.34612102D+06 0.10799866D+01  1  2  3  2  7  2       -2 -.329849238182D-04 0.100000000000D+01
0.333447912354D-04 0.000000000000D+00 0.000000000000D+00 0.178407874670D-06 0.000000000000D+00  7 2 -2 23 -13 13 23 21 2 0.27164704D+00 0.86014731D-01 0.34612102D+06 0.34612102D+06 0.34612102D+06 0.10799866D+01  1  2 15  2  7  2       -2 0.537173907129D-04 0.100000000000D+01
  </mgrwgt>
  </event>
  <event>
  8     66 0.29152272E-05 0.14448697E+03 0.75467711E-02 0.10014906E+00
        2 -1    0    0  501    0 0.00000000E+00 0.00000000E+00 0.65323135E+03 0.65323143E+03 0.32000000E+00 0.0000E+00 0.9000E+01
       -2 -1    0    0    0  501 0.00000000E+00 0.00000000E+00 -.18477480E+03 0.18477507E+03 0.32000000E+00 0.0000E+00 0.9000E+01
       25  2    1    2    0    0 -.24773400E+03 -.22362552E+02 0.41208227E+03 0.56714578E+03 0.29995054E+03 0.0000E+00 0.0000E+00
       23  2    3    3    0    0 -.39585910E+02 0.89538469E+02 0.16472523E+03 0.21310027E+03 0.93237035E+02 0.0000E+00 0.0000E+00
       23  1    1    2    0    0 0.24773400E+03 0.22362552E+02 0.56374289E+02 0.27086072E+03 0.91188000E+02 0.0000E+00 0.9000E+01
      -13  1    4    4    0    0 -.35409931E+02 0.57833583E+02 0.29164116E+02 0.73818313E+02 0.10565837E+00 0.0000E+00 0.9000E+01
       13  1    4    4    0    0 -.41759781E+01 0.31704886E+02 0.13556111E+03 0.13928196E+03 0.10565837E+00 0.0000E+00 0.9000E+01
       23  1    3    3    0    0 -.20814809E+03 -.11190102E+03 0.24735704E+03 0.35404551E+03 0.91188000E+02 0.0000E+00 0.9000E+01
#aMCatNLO 1  0  0  2  1 0.13586505D+02 0.00000000D+00  -5  7  0 0.00000000D+00 0.00000000D+00 0.00000000D+00 0.00000000D+00 0.00000000D+00
  <mgrwgt>
 0.2310869369D-03    9    2    0
 0.347420264030256D+03 0.000000000000000D+00 0.000000000000000D+00 0.347420264030256D+03
 0.347420264030256D+03 0.000000000000000D+00 0.000000000000000D+00 -.347420264030256D+03
 0.288662123779606D+03 0.247734001285946D+03 0.223625516926338D+02 -.114622647193307D+03
 0.693656982031251D+02 -.354099703371199D+02 0.578336162760691D+02 -.145947564681196D+02
 0.765854918120220D+02 -.417593778947837D+01 0.317048533535649D+02 0.695895205724011D+02
 0.260227214265760D+03 -.208148093159348D+03 -.111901021322268D+03 0.596278830890256D+02
 0.000000000000000D+00 0.000000000000000D+00 0.000000000000000D+00 -.000000000000000D+00
 0.351501256268103D+03 0.000000000000000D+00 0.000000000000000D+00 0.351501256268103D+03
 0.358981834928673D+03 0.000000000000000D+00 0.000000000000000D+00 -.358981834928673D+03
 0.283855179992914D+03 0.242174706953093D+03 0.217157069282093D+02 -.114622647193307D+03
 0.699360072026173D+02 -.367626267132958D+02 0.576762296290221D+02 -.145947564681196D+02
 0.766095890159570D+02 -.566350251294802D+01 0.315317696138836D+02 0.695895205724011D+02
 0.264572570438737D+03 -.213244037770569D+03 -.112493953607232D+03 0.596278830890256D+02
 0.155097445465498D+02 0.134954600437195D+02 0.157024743611675D+01 -.748057866056980D+01
0.281736917627D-05 0.000000000000D+00 0.000000000000D+00 0.136378348777D-06 0.000000000000D+00  7 2 -2 23 -13 13 23 21 0 0.10049716D+00 0.28426919D-01 0.95488540D+05 0.95488540D+05 0.95488540D+05 0.11233710D+01  1  2  2  2  7  2       -2 0.170362325509D-03 0.100000000000D+01
-.153908528058D-06 0.000000000000D+00 -.108194394672D-07 0.136378348777D-06 0.000000000000D+00  7 2 -2 23 -13 13 23 21 2 0.10049716D+00 0.28426919D-01 0.95488540D+05 0.95488540D+05 0.95488540D+05 0.11233710D+01  1  2  3  2  7  2       -2 -.117446181160D-04 0.100000000000D+01
0.180561863763D-06 0.000000000000D+00 0.000000000000D+00 0.136378348777D-06 0.000000000000D+00  7 2 -2 23 -13 13 23 21 2 0.10049716D+00 0.28426919D-01 0.95488540D+05 0.95488540D+05 0.95488540D+05 0.11233710D+01  1  2 15  2  7  2       -2 0.137785096314D-04 0.100000000000D+01
0.683553975424D-05 0.000000000000D+00 0.000000000000D+00 0.136378348777D-06 0.000000000000D+00  7 2 -2 23 -13 13 23 21 2 0.10049716D+00 0.29536045D-01 0.99687972D+05 0.99687972D+05 0.99687972D+05 0.11218334D+01  1  2 12  2  7  2       -2 0.486391100086D-03 0.100000000000D+01
-.667939885448D-05 0.000000000000D+00 0.000000000000D+00 0.136378348777D-06 0.000000000000D+00  7 2 -2 23 -13 13 23 21 2 0.10049716D+00 0.28426919D-01 0.95488540D+05 0.95488540D+05 0.95488540D+05 0.11233710D+01  1  2  4  2  7  2       -2 -.509698778748D-03 0.100000000000D+01
-.614367302482D-04 0.000000000000D+00 -.847031661700D-05 0.136378348777D-06 0.000000000000D+00  7 2 -2 23 -13 13 23 21 2 0.10049716D+00 0.29684405D-01 0.95488540D+05 0.95488540D+05 0.95488540D+05 0.11233710D+01  1  2  5  2  7  2       -2 -.434688188634D-02 0.100000000000D+01
0.617534388966D-04 0.000000000000D+00 0.846238775564D-05 0.136378348777D-06 0.000000000000D+00  7 2 -2 23 -13 13 23 21 2 0.10049716D+00 0.28426919D-01 0.95488540D+05 0.95488540D+05 0.95488540D+05 0.11233710D+01  1  2  6  2  7  2       -2 0.471234808324D-02 0.100000000000D+01
0.124928752608D-06 0.000000000000D+00 0.000000000000D+00 0.136378348777D-06 0.000000000000D+00  7 2 21 23 -13 13 23 2 2 0.10049716D+00 0.29536045D-01 0.99687972D+05 0.99687972D+05 0.99687972D+05 0.11218334D+01  1  2 12  4  7  2       -2 0.105807880778D-03 0.100000000000D+01
-.462152221895D-06 0.000000000000D+00 -.644940001727D-07 0.136378348777D-06 0.000000000000D+00  7 2 21 23 -13 13 23 2 2 0.10049716D+00 0.29684405D-01 0.95488540D+05 0.95488540D+05 0.95488540D+05 0.11233710D+01  1  2  5  4  7  2       -2 -.389275679176D-03 0.100000000000D+01
  </mgrwgt>
  </event>
  <event>
  9     66 0.29152272E-05 0.29625169E+03 0.75467711E-02 0.10016960E+00
        2 -1    0    0  501    0 0.00000000E+00 0.00000000E+00 0.11011183E+04 0.11011184E+04 0.32000000E+00 0.0000E+00 0.9000E+01
       21 -1    0    0  502  501 0.00000000E+00 0.00000000E+00 -.44306841E+03 0.44306904E+03 0.75000000E+00 0.0000E+00 0.9000E+01
       25  2    1    2    0    0 -.74959369E+02 -.21474746E+03 -.33555383E+03 0.50506832E+03 0.30126776E+03 0.0000E+00 0.0000E+00
       23  2    3    3    0    0 -.10890077E+03 -.17013319E+03 -.93637939E+02 0.24052910E+03 0.91002765E+02 0.0000E+00 0.0000E+00
       23  1    1    2    0    0 0.99794883E+02 0.23552875E+03 0.89939324E+03 0.93949787E+03 0.91188000E+02 0.0000E+00 0.9000E+01
      -13  1    4    4    0    0 -.11089853E+03 -.17889120E+03 -.95854461E+02 0.23127610E+03 0.10565837E+00 0.0000E+00 0.9000E+01
       13  1    4    4    0    0 0.19977540E+01 0.87580141E+01 0.22165221E+01 0.92529976E+01 0.10565837E+00 0.0000E+00 0.9000E+01
       23  1    3    3    0    0 0.33941405E+02 -.44614270E+02 -.24191589E+03 0.26453922E+03 0.91188000E+02 0.0000E+00 0.9000E+01
        2  1    1    2  502    0 -.24835514E+02 -.20781286E+02 0.94210512E+02 0.99621221E+02 0.32000000E+00 0.0000E+00 0.9000E+01
#aMCatNLO 2  0  0  2  1 0.32383091D+02 0.00000000D+00  -5  7  0 0.00000000D+00 0.00000000D+00 0.00000000D+00 0.00000000D+00 0.00000000D+00
  <mgrwgt>
 0.8034493256D-04    1    2    0
 0.664794695853529D+03 0.000000000000000D+00 0.000000000000000D+00 0.664794695853529D+03
 0.664794695853529D+03 0.000000000000000D+00 0.000000000000000D+00 -.664794695853529D+03
 0.633790007534869D+03 0.879080067269744D+02 0.225582322097178D+03 0.578583892462955D+03
 0.296792747706515D+03 -.116395413668787D+03 -.183490886412603D+03 -.202161166823830D+03
 0.893860254645651D+01 0.182936448862319D+01 0.861723855994419D+01 -.151500516576497D+01
 0.390068033919217D+03 0.266580424531897D+02 -.507086742445198D+02 -.374907720473359D+03
 0.000000000000000D+00 -.000000000000000D+00 -.000000000000000D+00 0.000000000000000D+00
 0.729169969582815D+03 0.000000000000000D+00 0.000000000000000D+00 0.729169969582815D+03
 0.669076821726854D+03 0.000000000000000D+00 0.000000000000000D+00 -.669076821726854D+03
 0.639145821580529D+03 0.997948826936418D+02 0.235528747014941D+03 0.578583892462955D+03
 0.291838668063631D+03 -.110898680471949D+03 -.178891457244784D+03 -.202161166823830D+03
 0.911011037018763D+01 0.199790622253544D+01 0.875826701069682D+01 -.151500516576497D+01
 0.389889089790801D+03 0.339414053508328D+02 -.446142704319984D+02 -.374907720473359D+03
 0.682631015045190D+02 -.248355137950611D+02 -.207812863488553D+02 0.600931478559617D+02
0.108818025477D-05 0.000000000000D+00 0.000000000000D+00 0.797832297533D-06 0.636741734068D-11  7 2 21 23 -13 13 23 2 2 0.16940278D+00 0.68164385D-01 0.99366862D+05 0.99366862D+05 0.99366862D+05 0.11219485D+01  1  2  1  4  7  2       -2 0.803449325644D-04 0.100000000000D+01
  </mgrwgt>
  </event>
  <event>
  8     66 0.29152272E-05 0.12544513E+03 0.75467711E-02 0.10328417E+00
        2 -1    0    0  501    0 0.00000000E+00 0.00000000E+00 0.95020200E+03 0.95020205E+03 0.32000000E+00 0.0000E+00 0.9000E+01
       -2 -1    0    0    0  501 0.00000000E+00 0.00000000E+00 -.77267321E+02 0.77267983E+02 0.32000000E+00 0.0000E+00 0.9000E+01
       25  2    1    2    0    0 -.73458022E+02 -.15687907E+03 0.58113560E+03 0.67608837E+03 0.29894778E+03 0.0000E+00 0.0000E+00
       23  2    3    3    0    0 -.49002834E+01 -.68044795E+02 0.59913063E+02 0.13518184E+03 0.10015212E+03 0.0000E+00 0.0000E+00
       23  1    1    2    0    0 0.73458022E+02 0.15687907E+03 0.29179907E+03 0.35138166E+03 0.91188000E+02 0.0000E+00 0.9000E+01
      -11  1    4    4    0    0 0.16716160E+02 -.56342350E+01 -.23121593E+02 0.29082342E+02 0.51099893E-03 0.0000E+00 0.9000E+01
       11  1    4    4    0    0 -.21616443E+02 -.62410560E+02 0.83034655E+02 0.10609949E+03 0.51099893E-03 0.0000E+00 0.9000E+01
       23  1    3    3    0    0 -.68557739E+02 -.88834272E+02 0.52122254E+03 0.54090654E+03 0.91188000E+02 0.0000E+00 0.9000E+01
#aMCatNLO 1  0  0  1  2 0.73950189D+02 0.00000000D+00  -5  7  0 0.00000000D+00 0.00000000D+00 0.00000000D+00 0.00000000D+00 0.00000000D+00
  <mgrwgt>
 0.3515017131D-03    9    2    0
 0.270961123364002D+03 0.000000000000000D+00 0.000000000000000D+00 0.270961123364002D+03
 0.270961123364002D+03 0.000000000000000D+00 0.000000000000000D+00 -.270961123364002D+03
 0.196176850362458D+03 0.734580218777534D+02 0.156879066456241D+03 -.127664718603132D+02
 0.923838719513895D+02 0.167161595014902D+02 -.563423523701434D+01 -.906840956372475D+02
 0.674086002907438D+02 -.216164427305459D+02 -.624105592616975D+02 -.134748242836944D+02
 0.185952924123412D+03 -.685577386486977D+02 -.888342719575290D+02 0.116925391781255D+03
 0.000000000000000D+00 0.000000000000000D+00 -.000000000000000D+00 0.000000000000000D+00
 0.434201061511484D+03 0.000000000000000D+00 0.000000000000000D+00 0.434201061511484D+03
 0.281978271502189D+03 0.000000000000000D+00 0.000000000000000D+00 -.281978271502189D+03
 0.213532660596072D+03 0.622232399299517D+02 0.182335491350688D+03 -.127664718603132D+02
 0.916156543023144D+02 0.116706467646175D+02 0.579818211090861D+01 -.906840956372475D+02
 0.614328816199285D+02 -.251494482292749D+02 -.544052691236311D+02 -.134748242836944D+02
 0.180363363749710D+03 -.786026204688789D+02 -.660739922460854D+02 0.116925391781255D+03
 0.169234772745647D+03 0.298581820035846D+02 -.676544120918805D+02 0.152222790009294D+03
0.232500591438D-05 0.000000000000D+00 0.000000000000D+00 0.100808072529D-08 0.000000000000D+00  7 2 -2 23 -11 11 23 21 0 0.14618498D+00 0.11887335D-01 0.44952812D+05 0.44952812D+05 0.44952812D+05 0.11513826D+01  1  2  2  1  7  1        2 0.366462550803D-03 0.100000000000D+01
-.119717763804D-06 0.000000000000D+00 -.892863489935D-08 0.100808072529D-08 0.000000000000D+00  7 2 -2 23 -11 11 23 21 2 0.14618498D+00 0.11887335D-01 0.44952812D+05 0.44952812D+05 0.44952812D+05 0.11513826D+01  1  2  3  1  7  1        2 -.250151696739D-04 0.100000000000D+01
0.149372149213D-06 0.000000000000D+00 0.000000000000D+00 0.100808072529D-08 0.000000000000D+00  7 2 -2 23 -11 11 23 21 2 0.14618498D+00 0.11887335D-01 0.44952812D+05 0.44952812D+05 0.44952812D+05 0.11513826D+01  1  2 15  1  7  1        2 0.312114889084D-04 0.100000000000D+01
0.475481422448D-05 0.000000000000D+00 0.000000000000D+00 0.100808072529D-08 0.000000000000D+00  7 2 -2 23 -11 11 23 21 2 0.23572313D+00 0.11887335D-01 0.61851409D+05 0.61851409D+05 0.61851409D+05 0.11392573D+01  1  2 12  1  7  1        2 0.457953168744D-03 0.100000000000D+01
-.504737999011D-05 0.000000000000D+00 0.000000000000D+00 0.100808072529D-08 0.000000000000D+00  7 2 -2 23 -11 11 23 21 2 0.14618498D+00 0.11887335D-01 0.44952812D+05 0.44952812D+05 0.44952812D+05 0.11513826D+01  1  2  4  1  7  1        2 -.105465607483D-02 0.100000000000D+01
-.545772340434D-05 0.000000000000D+00 -.806282718349D-06 0.100808072529D-08 0.000000000000D+00  7 2 -2 23 -11 11 23 21 2 0.23761183D+00 0.11887335D-01 0.44952812D+05 0.44952812D+05 0.44952812D+05 0.11513826D+01  1  2  5  1  7  1        2 -.531203805429D-03 0.100000000000D+01
0.529845881693D-05 0.000000000000D+00 0.719688076090D-06 0.100808072529D-08 0.000000000000D+00  7 2 -2 23 -11 11 23 21 2 0.14618498D+00 0.11887335D-01 0.44952812D+05 0.44952812D+05 0.44952812D+05 0.11513826D+01  1  2  6  1  7  1        2 0.110711929545D-02 0.100000000000D+01
0.258702996640D-06 0.000000000000D+00 0.000000000000D+00 0.100808072529D-08 0.000000000000D+00  7 21 -2 23 -11 11 23 -2 2 0.23572313D+00 0.11887335D-01 0.61851409D+05 0.61851409D+05 0.61851409D+05 0.11392573D+01  1  2 12  3  7  1        2 0.908978869591D-05 0.100000000000D+01
-.265620319699D-06 0.000000000000D+00 -.444385175101D-07 0.100808072529D-08 0.000000000000D+00  7 21 -2 23 -11 11 23 -2 2 0.23761183D+00 0.11887335D-01 0.44952812D+05 0.44952812D+05 0.44952812D+05 0.11513826D+01  1  2  5  3  7  1        2 -.945952958760D-05 0.100000000000D+01
  </mgrwgt>
  </event>
  <event>
  8     66 0.29152272E-05 0.12502754E+03 0.75467711E-02 0.91981373E-01
        2 -1    0    0  501    0 0.00000000E+00 0.00000000E+00 0.88251722E+03 0.88251727E+03 0.32000000E+00 0.0000E+00 0.9000E+01
       -2 -1    0    0    0  501 0.00000000E+00 0.00000000E+00 -.86199620E+02 0.86200214E+02 0.32000000E+00 0.0000E+00 0.9000E+01
       25  2    1    2    0    0 -.29318644E+01 0.17100958E+02 0.81949707E+03 0.87304316E+03 0.30054594E+03 0.0000E+00 0.0000E+00
       23  2    3    3    0    0 0.15244735E+02 -.19058389E+02 0.74655724E+02 0.12155013E+03 0.92764931E+02 0.0000E+00 0.0000E+00
       23  1    1    2    0    0 0.29318644E+01 -.17100958E+02 -.23179474E+02 0.95674333E+02 0.91188000E+02 0.0000E+00 0.9000E+01
      -13  1    4    4    0    0 -.19425138E+02 -.50359308E+01 0.81147902E+02 0.83592402E+02 0.10565837E+00 0.0000E+00 0.9000E+01
       13  1    4    4    0    0 0.34669873E+02 -.14022459E+02 -.64921777E+01 0.37957727E+02 0.10565837E+00 0.0000E+00 0.9000E+01
       23  1    3    3    0    0 -.18176600E+02 0.36159347E+02 0.74484135E+03 0.75149303E+03 0.91188000E+02 0.0000E+00 0.9000E+01
#aMCatNLO 1  0  0  2  2 0.61400406D+03 0.00000000D+00  -5  7  0 0.00000000D+00 0.00000000D+00 0.00000000D+00 0.00000000D+00 0.00000000D+00
  <mgrwgt>
 0.8637816323D-03    5    2    0
 0.275813278151549D+03 0.000000000000000D+00 0.000000000000000D+00 0.275813278151549D+03
 0.275813278151549D+03 0.000000000000000D+00 0.000000000000000D+00 -.275813278151549D+03
 0.201476201194434D+03 0.293186444924145D+01 -.171009580907655D+02 -.178819377325191D+03
 0.296539118874645D+02 -.194252070087830D+02 -.503591915967263D+01 0.218324378188208D+02
 0.760300251358825D+02 0.346699422367107D+02 -.140224702277598D+02 -.661961491038388D+02
 0.244466418085318D+03 -.181765996771692D+02 0.361593474781979D+02 0.223183088610209D+03
 0.000000000000000D+00 0.000000000000000D+00 -.000000000000000D+00 -.000000000000000D+00
 0.699817267725304D+03 0.000000000000000D+00 0.000000000000000D+00 0.699817267725304D+03
 0.740968935005699D+03 0.000000000000000D+00 0.000000000000000D+00 -.740968935005699D+03
 0.283080203079294D+03 -.968363152086028D+02 0.174543714814556D+03 -.178819377325191D+03
 0.493836479999090D+02 -.356987169758633D+02 0.262238623193352D+02 0.218324378188208D+02
 0.821004248435170D+02 0.211153003995776D+01 0.485189761247975D+02 -.661961491038388D+02
 0.410840380011144D+03 -.153101586297637D+03 0.295336722632415D+03 0.223183088610209D+03
 0.615381546797140D+03 0.283525088442145D+03 -.544623275891104D+03 -.411516672803955D+02
0.446466222016D-05 0.000000000000D+00 0.000000000000D+00 0.115911455460D-06 0.000000000000D+00  7 2 -2 23 -13 13 23 21 0 0.13577193D+00 0.13261530D-01 0.15631886D+05 0.15631886D+05 0.15631886D+05 0.11945517D+01  1  2  2  2  7  2       -2 0.651267947666D-03 0.100000000000D+01
-.592553605372D-07 0.000000000000D+00 -.171454784980D-07 0.115911455460D-06 0.000000000000D+00  7 2 -2 23 -13 13 23 21 2 0.13577193D+00 0.13261530D-01 0.15631886D+05 0.15631886D+05 0.15631886D+05 0.11945517D+01  1  2  3  2  7  2       -2 -.123341344925D-04 0.100000000000D+01
0.276194488172D-06 0.000000000000D+00 0.000000000000D+00 0.115911455460D-06 0.000000000000D+00  7 2 -2 23 -13 13 23 21 2 0.13577193D+00 0.13261530D-01 0.15631886D+05 0.15631886D+05 0.15631886D+05 0.11945517D+01  1  2 15  2  7  2       -2 0.574904942326D-04 0.100000000000D+01
0.860047295134D-05 0.000000000000D+00 -.239728202513D-05 0.115911455460D-06 0.000000000000D+00  7 2 -2 23 -13 13 23 21 2 0.13577193D+00 0.92505432D-01 0.15631886D+05 0.15631886D+05 0.15631886D+05 0.11945517D+01  1  2  5  2  7  2       -2 0.526273944895D-04 0.100000000000D+01
0.181826984624D-05 0.000000000000D+00 -.569255064013D-06 0.115911455460D-06 0.000000000000D+00  7 2 21 23 -13 13 23 2 2 0.13577193D+00 0.92505432D-01 0.15631886D+05 0.15631886D+05 0.15631886D+05 0.11945517D+01  1  2  5  4  7  2       -2 0.114729930382D-03 0.100000000000D+01
  </mgrwgt>
  </event>
  <event>
  8     66 0.29152272E-05 0.20292216E+03 0.75467711E-02 0.10254996E+00
        2 -1    0    0  501    0 0.00000000E+00 0.00000000E+00 0.23250755E+03 0.23250777E+03 0.32000000E+00 0.0000E+00 0.9000E+01
       -2 -1    0    0    0  501 0.00000000E+00 0.00000000E+00 -.27130603E+03 0.27130622E+03 0.32000000E+00 0.0000E+00 0.9000E+01
       25  2    1    2    0    0 0.28975667E+02 -.37656819E+02 0.10977381E+03 0.32313029E+03 0.30017539E+03 0.0000E+00 0.0000E+00
       23  2    3    3    0    0 -.66940143E+02 -.10593035E+03 0.56677356E+02 0.16503031E+03 0.91216542E+02 0.0000E+00 0.0000E+00
       23  1    1    2    0    0 -.28975667E+02 0.37656819E+02 -.14857229E+03 0.18068370E+03 0.91188000E+02 0.0000E+00 0.9000E+01
      -11  1    4    4    0    0 -.86598483E+02 -.63644661E+02 0.31277086E+02 0.11192943E+03 0.51099893E-03 0.0000E+00 0.9000E+01
       11  1    4    4    0    0 0.19658340E+02 -.42285692E+02 0.25400269E+02 0.53100883E+02 0.51099893E-03 0.0000E+00 0.9000E+01
       23  1    3    3    0    0 0.95915810E+02 0.68273534E+02 0.53096452E+02 0.15809998E+03 0.91188000E+02 0.0000E+00 0.9000E+01
#aMCatNLO 1  0  0  2  1 0.10392667D+03 0.00000000D+00  -5  7  0 0.00000000D+00 0.00000000D+00 0.00000000D+00 0.00000000D+00 0.00000000D+00
  <mgrwgt>
 0.3058935739D-03    4    2    0
 0.251158920411836D+03 0.000000000000000D+00 0.000000000000000D+00 0.251158920411836D+03
 0.251158920411836D+03 0.000000000000000D+00 0.000000000000000D+00 -.251158920411836D+03
 0.169746307662029D+03 -.289756672480649D+02 0.376568191741171D+02 -.135058995620838D+03
 0.114678613560618D+03 -.865984831259036D+02 -.636446608028126D+02 0.400155504744487D+02
 0.552209324226182D+02 0.196583400555721D+02 -.422856922236425D+02 0.295773777919924D+02
 0.162671987178406D+03 0.959158103183964D+02 0.682735338523379D+02 0.654660673543967D+02
 0.000000000000000D+00 0.000000000000000D+00 -.000000000000000D+00 0.000000000000000D+00
 0.329619249822935D+03 0.000000000000000D+00 0.000000000000000D+00 0.329619249822935D+03
 0.293395528674961D+03 0.000000000000000D+00 0.000000000000000D+00 -.293395528674961D+03
 0.180430512844491D+03 -.644204166863719D+02 0.429999562461489D+02 -.135058995620838D+03
 0.132861081788609D+03 -.111654346232425D+03 -.598676017698739D+02 0.400155504744487D+02
 0.510645739884532D+02 0.890016611871709D+01 -.406639457336743D+02 0.295773777919924D+02
 0.148599937334519D+03 0.644089979726182D+02 0.730230445622186D+02 0.654660673543967D+02
 0.110058672541823D+03 0.102765598827461D+03 -.154914533048193D+02 0.362237211479741D+02
0.469876363712D-05 0.000000000000D+00 0.000000000000D+00 0.559685865566D-06 0.000000000000D+00  7 2 -2 23 -11 11 23 21 0 0.35770424D-01 0.41739421D-01 0.41177404D+05 0.41177404D+05 0.41177404D+05 0.11547860D+01  1  2  2  2  7  2       -2 0.445705127791D-03 0.100000000000D+01
-.246607139999D-06 0.000000000000D+00 -.180444895794D-07 0.559685865566D-06 0.000000000000D+00  7 2 -2 23 -11 11 23 21 2 0.35770424D-01 0.41739421D-01 0.41177404D+05 0.41177404D+05 0.41177404D+05 0.11547860D+01  1  2  3  2  7  2       -2 -.311941181559D-04 0.100000000000D+01
0.285369129958D-06 0.000000000000D+00 0.000000000000D+00 0.559685865566D-06 0.000000000000D+00  7 2 -2 23 -11 11 23 21 2 0.35770424D-01 0.41739421D-01 0.41177404D+05 0.41177404D+05 0.41177404D+05 0.11547860D+01  1  2 15  2  7  2       -2 0.360972450271D-04 0.100000000000D+01
-.114405136739D-05 0.000000000000D+00 0.000000000000D+00 0.559685865566D-06 0.000000000000D+00  7 2 -2 23 -11 11 23 21 2 0.35770424D-01 0.41739421D-01 0.41177404D+05 0.41177404D+05 0.41177404D+05 0.11547860D+01  1  2  4  2  7  2       -2 -.144714680730D-03 0.100000000000D+01
  </mgrwgt>
  </event>
  <event>
  8     66 0.29152272E-05 0.33074490E+03 0.75467711E-02 0.96126281E-01
        2 -1    0    0  501    0 0.00000000E+00 0.00000000E+00 0.92665026E+02 0.92665579E+02 0.32000000E+00 0.0000E+00 0.9000E+01
       -2 -1    0    0    0  501 0.00000000E+00 0.00000000E+00 -.12555649E+04 0.12555649E+04 0.32000000E+00 0.0000E+00 0.9000E+01
       25  2    1    2    0    0 0.22249281E+03 -.14528760E+03 -.72825743E+03 0.83069709E+03 0.29847485E+03 0.0000E+00 0.0000E+00
       23  2    3    3    0    0 0.99971643E+02 -.17991733E+03 -.54471451E+03 0.58942151E+03 0.91319433E+02 0.0000E+00 0.0000E+00
       23  1    1    2    0    0 -.22249281E+03 0.14528760E+03 -.43464242E+03 0.51753341E+03 0.91188000E+02 0.0000E+00 0.9000E+01
      -13  1    4    4    0    0 0.10988765E+03 -.18308686E+03 -.50340917E+03 0.54682438E+03 0.10565837E+00 0.0000E+00 0.9000E+01
       13  1    4    4    0    0 -.99160078E+01 0.31695322E+01 -.41305342E+02 0.42597132E+02 0.10565837E+00 0.0000E+00 0.9000E+01
       23  1    3    3    0    0 0.12252117E+03 0.34629725E+02 -.18354291E+03 0.24127558E+03 0.91188000E+02 0.0000E+00 0.9000E+01
#aMCatNLO 1  0  0  2  1 0.19104821D+03 0.00000000D+00  -5  7  0 0.00000000D+00 0.00000000D+00 0.00000000D+00 0.00000000D+00 0.00000000D+00
  <mgrwgt>
 0.4042733144D-03    4    2    0
 0.341097277009861D+03 0.000000000000000D+00 0.000000000000000D+00 0.341097277009861D+03
 0.341097277009861D+03 0.000000000000000D+00 0.000000000000000D+00 -.341097277009861D+03
 0.281897165676032D+03 -.222492810344170D+03 0.145287603491431D+03 0.232211603726072D+02
 0.222562670898100D+03 0.109887811483037D+03 -.183087110037935D+03 -.627528605142567D+02
 0.137740539782060D+02 -.991616803236495D+01 0.316978148201211D+01 -.901923832176136D+01
 0.163960663467384D+03 0.122521166893498D+03 0.346297250644921D+02 0.485509384634109D+02
 0.000000000000000D+00 0.000000000000000D+00 0.000000000000000D+00 0.000000000000000D+00
 0.515529914258648D+03 0.000000000000000D+00 0.000000000000000D+00 0.515529914258648D+03
 0.410787984137593D+03 0.000000000000000D+00 0.000000000000000D+00 -.410787984137593D+03
 0.335296650746946D+03 -.301122310431084D+03 0.113554940578185D+03 0.232211603726072D+02
 0.221776613174062D+03 0.532797009577891D+02 -.205932557197943D+03 -.627528605142567D+02
 0.165469898607080D+02 -.137790202770370D+02 0.161084255923681D+01 -.901923832176136D+01
 0.134820870356256D+03 0.844568797690567D+02 0.192680454020528D+02 0.485509384634109D+02
 0.217876774258270D+03 0.177164749981275D+03 0.714987286584687D+02 0.104741930121055D+03
0.652337986260D-04 0.000000000000D+00 0.000000000000D+00 0.648776396528D-07 0.000000000000D+00  7 2 -2 23 -13 13 23 21 0 0.14256204D-01 0.19316387D+00 0.10939219D+06 0.10939219D+06 0.10939219D+06 0.11185367D+01  1  2  2  2  7  2       -2 0.494523586080D-03 0.100000000000D+01
-.361991433869D-05 0.000000000000D+00 -.250514963177D-06 0.648776396528D-07 0.000000000000D+00  7 2 -2 23 -13 13 23 21 2 0.14256204D-01 0.19316387D+00 0.10939219D+06 0.10939219D+06 0.10939219D+06 0.11185367D+01  1  2  3  2  7  2       -2 -.343331097179D-04 0.100000000000D+01
0.402835105648D-05 0.000000000000D+00 0.000000000000D+00 0.648776396528D-07 0.000000000000D+00  7 2 -2 23 -13 13 23 21 2 0.14256204D-01 0.19316387D+00 0.10939219D+06 0.10939219D+06 0.10939219D+06 0.11185367D+01  1  2 15  2  7  2       -2 0.382069313978D-04 0.100000000000D+01
-.992398178101D-05 0.000000000000D+00 0.000000000000D+00 0.648776396528D-07 0.000000000000D+00  7 2 -2 23 -13 13 23 21 2 0.14256204D-01 0.19316387D+00 0.10939219D+06 0.10939219D+06 0.10939219D+06 0.11185367D+01  1  2  4  2  7  2       -2 -.941240934030D-04 0.100000000000D+01
  </mgrwgt>
  </event>
  <event>
  8     66 0.29152272E-05 0.69321389E+03 0.75467711E-02 0.87334730E-01
        2 -1    0    0  501    0 0.00000000E+00 0.00000000E+00 0.20003859E+04 0.20003859E+04 0.32000000E+00 0.0000E+00 0.9000E+01
       -2 -1    0    0    0  501 0.00000000E+00 0.00000000E+00 -.33924854E+03 0.33924869E+03 0.32000000E+00 0.0000E+00 0.9000E+01
       25  2    1    2    0    0 0.64313124E+03 -.20786728E+03 0.26502752E+03 0.78584423E+03 0.30080720E+03 0.0000E+00 0.0000E+00
       23  2    3    3    0    0 0.12715877E+03 -.28310649E+02 0.15410645E+03 0.22096645E+03 0.90036265E+02 0.0000E+00 0.0000E+00
       23  1    1    2    0    0 -.64313124E+03 0.20786728E+03 0.13961098E+04 0.15537904E+04 0.91188000E+02 0.0000E+00 0.9000E+01
      -11  1    4    4    0    0 0.11812045E+03 -.49058740E+02 0.10012253E+03 0.16243067E+03 0.51099893E-03 0.0000E+00 0.9000E+01
       11  1    4    4    0    0 0.90383221E+01 0.20748092E+02 0.53983917E+02 0.58535783E+02 0.51099893E-03 0.0000E+00 0.9000E+01
       23  1    3    3    0    0 0.51597247E+03 -.17955663E+03 0.11092108E+03 0.56487778E+03 0.91188000E+02 0.0000E+00 0.9000E+01
#aMCatNLO 1  0  0  1  1 0.52702168D+03 0.00000000D+00  -5  7  0 0.00000000D+00 0.00000000D+00 0.00000000D+00 0.00000000D+00 0.00000000D+00
  <mgrwgt>
 0.5025582422D-03    3    2    0
 0.823788920682287D+03 0.000000000000000D+00 0.000000000000000D+00 0.823788920682287D+03
 0.823788920682287D+03 0.000000000000000D+00 0.000000000000000D+00 -.823788920682287D+03
 0.798852399517837D+03 -.643131242689121D+03 0.207867275342444D+03 0.415960701737871D+03
 0.129712316634516D+03 0.118120452634514D+03 -.490587403712468D+02 -.215889728634089D+02
 0.286952401500259D+02 0.903832205792240D+01 0.207480915480253D+02 0.176420588016164D+02
 0.690317885062195D+03 0.515972467996684D+03 -.179556626519223D+03 -.412013787676078D+03
 0.000000000000000D+00 0.000000000000000D+00 0.000000000000000D+00 -.000000000000000D+00
 0.978794174377919D+03 0.000000000000000D+00 0.000000000000000D+00 0.978794174377919D+03
 0.147462280539749D+04 0.000000000000000D+00 0.000000000000000D+00 -.147462280539749D+04
 0.833219574505401D+03 -.715257113793337D+03 -.363808159986251D+02 0.415960701737871D+03
 0.140536430319791D+03 0.106177397059059D+03 -.895028762191215D+02 -.215889728634089D+02
 0.229436528233815D+02 0.675625349854197D+01 0.130200616274889D+02 0.176420588016164D+02
 0.733116688010715D+03 0.453066873037133D+03 -.392581041591371D+03 -.412013787676078D+03
 0.723600634116116D+03 0.149256590198603D+03 0.505444672181629D+03 -.495828631019566D+03
0.168452167475D-03 0.000000000000D+00 0.000000000000D+00 0.719711903559D-06 0.000000000000D+00  7 2 -2 23 -11 11 23 21 0 0.30775169D+00 0.52192096D-01 0.48054550D+06 0.48054550D+06 0.48054550D+06 0.10697306D+01  1  2  2  1  7  1        2 0.496926843615D-03 0.100000000000D+01
-.901957443779D-05 0.000000000000D+00 -.646900677577D-06 0.719711903559D-06 0.000000000000D+00  7 2 -2 23 -11 11 23 21 2 0.30775169D+00 0.52192096D-01 0.48054550D+06 0.48054550D+06 0.48054550D+06 0.10697306D+01  1  2  3  1  7  1        2 -.304474393661D-04 0.100000000000D+01
0.106877875890D-04 0.000000000000D+00 0.000000000000D+00 0.719711903559D-06 0.000000000000D+00  7 2 -2 23 -11 11 23 21 2 0.30775169D+00 0.52192096D-01 0.48054550D+06 0.48054550D+06 0.48054550D+06 0.10697306D+01  1  2 15  1  7  1        2 0.360788379561D-04 0.100000000000D+01
  </mgrwgt>
  </event>
  <event>
  9     66 0.29152272E-05 0.17951969E+03 0.75467711E-02 0.10437677E+00
        2 -1    0    0  501    0 0.00000000E+00 0.00000000E+00 0.76825436E+03 0.76825442E+03 0.32000000E+00 0.0000E+00 0.9000E+01
       21 -1    0    0  502  501 0.00000000E+00 0.00000000E+00 -.19727820E+03 0.19727962E+03 0.75000000E+00 0.0000E+00 0.9000E+01
       25  2    1    2    0    0 -.35519447E+02 0.58851591E+02 0.10490853E+03 0.32489567E+03 0.29971028E+03 0.0000E+00 0.0000E+00
       23  2    3    3    0    0 0.16624116E+02 -.37414855E+00 -.64877283E+02 0.11664315E+03 0.95499010E+02 0.0000E+00 0.0000E+00
       23  1    1    2    0    0 -.30213927E+02 -.13676763E+03 0.37081564E+01 0.16717437E+03 0.91188000E+02 0.0000E+00 0.9000E+01
      -11  1    4    4    0    0 -.29713326E+01 0.31802264E+02 -.71575224E+02 0.78378731E+02 0.51099893E-03 0.0000E+00 0.9000E+01
       11  1    4    4    0    0 0.19595448E+02 -.32176412E+02 0.66979417E+01 0.38264416E+02 0.51099893E-03 0.0000E+00 0.9000E+01
       23  1    3    3    0    0 -.52143562E+02 0.59225739E+02 0.16978581E+03 0.20825252E+03 0.91188000E+02 0.0000E+00 0.9000E+01
        2  1    1    2  502    0 0.65733373E+02 0.77916044E+02 0.46235948E+03 0.47346402E+03 0.32000000E+00 0.0000E+00 0.9000E+01
#aMCatNLO 2  0  0  2  1 0.10194011D+03 0.00000000D+00  -5  7  0 0.00000000D+00 0.00000000D+00 0.00000000D+00 0.00000000D+00 0.00000000D+00
  <mgrwgt>
 0.1288987901D-03    1    2    0
 0.234490696983646D+03 0.000000000000000D+00 0.000000000000000D+00 0.234490696983646D+03
 0.234490696983646D+03 0.000000000000000D+00 0.000000000000000D+00 -.234490696983646D+03
 0.147588525701003D+03 -.817487017101438D+01 -.110643977613084D+03 -.340323859028142D+02
 0.103681467844997D+03 0.108998069874282D+02 0.482442058948529D+02 -.911237487140696D+02
 0.359977614860968D+02 0.247017814876283D+02 -.261236986246077D+02 -.179253828914433D+01
 0.181713638935195D+03 -.274267183040421D+02 0.885234703428385D+02 0.126948672906028D+03
 0.000000000000000D+00 0.000000000000000D+00 0.000000000000000D+00 0.000000000000000D+00
 0.613815135994602D+03 0.000000000000000D+00 0.000000000000000D+00 0.613815135994602D+03
 0.246915507888283D+03 0.000000000000000D+00 0.000000000000000D+00 -.246915507888283D+03
 0.170562956128488D+03 -.302139269637353D+02 -.136767635010921D+03 -.340323859028142D+02
 0.965595690682228D+02 -.297133250683615D+01 0.318022637884444D+02 -.911237487140696D+02
 0.377162603695246D+02 0.195954481625282D+02 -.321764123863023D+02 -.179253828914433D+01
 0.175093849558121D+03 -.521435621727334D+02 0.592257391715671D+02 0.126948672906028D+03
 0.380798008758529D+03 0.657333734807767D+02 0.779160444372115D+02 0.366899628106320D+03
0.182589913942D-06 0.000000000000D+00 0.000000000000D+00 0.101659696136D-07 0.144828282207D-12  7 2 21 23 -11 11 23 2 2 0.11819306D+00 0.30350599D-01 0.52733960D+05 0.52733960D+05 0.52733960D+05 0.11452673D+01  1  2  1  4  7  2       -2 0.128898790089D-03 0.100000000000D+01
  </mgrwgt>
  </event>
  <event>
  8     66 0.29152272E-05 0.27182651E+03 0.75467711E-02 0.95253933E-01
        2 -1    0    0  501    0 0.00000000E+00 0.00000000E+00 0.13585131E+04 0.13585131E+04 0.32000000E+00 0.0000E+00 0.9000E+01
       -2 -1    0    0    0  501 0.00000000E+00 0.00000000E+00 -.20873281E+03 0.20873305E+03 0.32000000E+00 0.0000E+00 0.9000E+01
       25  2    1    2    0    0 0.19161926E+02 0.18847409E+03 0.12743552E+04 0.13228617E+04 0.30015364E+03 0.0000E+00 0.0000E+00
       23  2    3    3    0    0 -.23526626E+02 -.32118744E+02 0.23183191E+03 0.25250961E+03 0.91814775E+02 0.0000E+00 0.0000E+00
       23  1    1    2    0    0 -.19161926E+02 -.18847409E+03 -.12457486E+03 0.24438455E+03 0.91188000E+02 0.0000E+00 0.9000E+01
      -11  1    4    4    0    0 -.52465673E+02 -.32973910E+02 0.10085326E+03 0.11836936E+03 0.51099893E-03 0.0000E+00 0.9000E+01
       11  1    4    4    0    0 0.28939047E+02 0.85516673E+00 0.13097865E+03 0.13414025E+03 0.51099893E-03 0.0000E+00 0.9000E+01
       23  1    3    3    0    0 0.42688552E+02 0.22059283E+03 0.10425233E+04 0.10703520E+04 0.91188000E+02 0.0000E+00 0.9000E+01
#aMCatNLO 1  0  0  1  1 0.31529656D+03 0.00000000D+00  -5  7  0 0.00000000D+00 0.00000000D+00 0.00000000D+00 0.00000000D+00 0.00000000D+00
  <mgrwgt>
 0.5020115861D-03    4    2    0
 0.532509605118523D+03 0.000000000000000D+00 0.000000000000000D+00 0.532509605118523D+03
 0.532509605118523D+03 0.000000000000000D+00 0.000000000000000D+00 -.532509605118523D+03
 0.494117359812943D+03 -.191619257285262D+02 -.188474087391429D+03 -.447154394934072D+03
 0.653085315402715D+02 -.524656732301631D+02 -.329739102500960D+02 0.206222856946312D+02
 0.559934720018217D+02 0.289390472894770D+02 0.855166727647216D+00 0.479277491508221D+02
 0.449599846882009D+03 0.426885516692122D+02 0.220592830913878D+03 0.378604360088619D+03
 0.000000000000000D+00 -.000000000000000D+00 -.000000000000000D+00 -.000000000000000D+00
 0.654443465336120D+03 0.000000000000000D+00 0.000000000000000D+00 0.654443465336120D+03
 0.806171971965550D+03 0.000000000000000D+00 0.000000000000000D+00 -.806171971965550D+03
 0.497952517540432D+03 0.121341791001158D+03 -.158020806315591D+03 -.447154394934072D+03
 0.508627039866012D+02 -.360127088360117D+02 -.294078355519454D+02 0.206222856946312D+02
 0.668222501875794D+02 0.463330492991809D+02 0.462520530430852D+01 0.479277491508221D+02
 0.495073038140062D+03 0.176479582391211D+03 0.249591180273147D+03 0.378604360088619D+03
 0.349904927446996D+03 -.308141713855539D+03 -.667877437099187D+02 -.151728506629430D+03
0.340971419163D-04 0.000000000000D+00 0.000000000000D+00 0.220822097094D-05 0.000000000000D+00  7 2 -2 23 -11 11 23 21 0 0.20900204D+00 0.32112762D-01 0.73889650D+05 0.73889650D+05 0.73889650D+05 0.11326685D+01  1  2  2  1  7  1        2 0.607805139737D-03 0.100000000000D+01
-.852855706556D-06 0.000000000000D+00 -.130942002942D-06 0.220822097094D-05 0.000000000000D+00  7 2 -2 23 -11 11 23 21 2 0.20900204D+00 0.32112762D-01 0.73889650D+05 0.73889650D+05 0.73889650D+05 0.11326685D+01  1  2  3  1  7  1        2 -.195041756972D-04 0.100000000000D+01
0.201509585509D-05 0.000000000000D+00 0.000000000000D+00 0.220822097094D-05 0.000000000000D+00  7 2 -2 23 -11 11 23 21 2 0.20900204D+00 0.32112762D-01 0.73889650D+05 0.73889650D+05 0.73889650D+05 0.11326685D+01  1  2 15  1  7  1        2 0.460837434776D-04 0.100000000000D+01
-.578825651056D-05 0.000000000000D+00 0.000000000000D+00 0.220822097094D-05 0.000000000000D+00  7 2 -2 23 -11 11 23 21 2 0.20900204D+00 0.32112762D-01 0.73889650D+05 0.73889650D+05 0.73889650D+05 0.11326685D+01  1  2  4  1  7  1        2 -.132373121379D-03 0.100000000000D+01
  </mgrwgt>
  </event>
  <event>
  9     66 0.29152272E-05 0.55146273E+03 0.75467711E-02 0.90537061E-01
        2 -1    0    0  501    0 0.00000000E+00 0.00000000E+00 0.22240213E+04 0.22240213E+04 0.32000000E+00 0.0000E+00 0.9000E+01
       -2 -1    0    0    0  502 0.00000000E+00 0.00000000E+00 -.33043652E+03 0.33043668E+03 0.32000000E+00 0.0000E+00 0.9000E+01
       25  2    1    2    0    0 -.33102373E+03 0.60386616E+03 0.16045813E+04 0.17707943E+04 0.29461850E+03 0.0000E+00 0.0000E+00
       23  2    3    3    0    0 -.23741053E+03 0.51827507E+03 0.11012195E+04 0.12437481E+04 0.96188315E+02 0.0000E+00 0.0000E+00
       23  1    1    2    0    0 0.98378959E+02 -.38381303E+03 0.13567557E+03 0.42861868E+03 0.91188000E+02 0.0000E+00 0.9000E+01
      -11  1    4    4    0    0 -.16196727E+03 0.42662416E+03 0.92248771E+03 0.10291866E+04 0.51099893E-03 0.0000E+00 0.9000E+01
       11  1    4    4    0    0 -.75443262E+02 0.91650908E+02 0.17873179E+03 0.21456148E+03 0.51099893E-03 0.0000E+00 0.9000E+01
       23  1    3    3    0    0 -.93613199E+02 0.85591099E+02 0.50336181E+03 0.52704614E+03 0.91188000E+02 0.0000E+00 0.9000E+01
       21  1    1    2  501  502 0.23264477E+03 -.22005314E+03 0.15332785E+03 0.35504502E+03 0.75000000E+00 0.0000E+00 0.9000E+01
#aMCatNLO 2  0  0  2  1 0.32022956D+03 0.00000000D+00  -5  7  0 0.00000000D+00 0.00000000D+00 0.00000000D+00 0.00000000D+00 0.00000000D+00
  <mgrwgt>
 0.1002666645D-03    2    2    0
 0.653141689145926D+03 0.000000000000000D+00 0.000000000000000D+00 0.653141689145926D+03
 0.653141689145926D+03 0.000000000000000D+00 0.000000000000000D+00 -.653141689145926D+03
 0.623100423979345D+03 0.199156122148261D+03 -.479135741112349D+03 -.332723109535281D+03
 0.403189698237899D+03 -.836421381830249D+02 0.352538286382873D+03 0.176869110133927D+03
 0.942754936688885D+02 -.566750301292908D+02 0.738984851529341D+02 0.146568604570758D+02
 0.185717762405720D+03 -.588389538359449D+02 0.526989695765417D+02 0.141197138944278D+03
 0.000000000000000D+00 0.000000000000000D+00 -.000000000000000D+00 -.000000000000000D+00
 0.759257334300481D+03 0.000000000000000D+00 0.000000000000000D+00 0.759257334300481D+03
 0.967916106277406D+03 0.000000000000000D+00 0.000000000000000D+00 -.967916106277406D+03
 0.525367279224315D+03 0.983789590063611D+02 -.383813026800235D+03 -.332723109535281D+03
 0.489412147499390D+03 -.161967267899516D+03 0.426624157930096D+03 0.176869110133927D+03
 0.119609357356207D+03 -.754432623270356D+02 0.916509082233273D+02 0.146568604570758D+02
 0.210573385313406D+03 -.936131991490487D+02 0.855910985872877D+02 0.141197138944278D+03
 0.382211271184570D+03 0.232644770369239D+03 -.220053137940476D+03 -.208658771976925D+03
-.333932911553D-04 0.000000000000D+00 0.000000000000D+00 0.153604482724D-08 0.000000000000D+00  7 2 -2 23 -11 11 23 21 2 0.29433629D+00 0.52547540D-01 0.53149234D+06 0.53149234D+06 0.53149234D+06 0.10666406D+01  1  2 13  2  7  2       -2 -.122857681412D-03 0.100000000000D+01
0.845334114867D-04 0.000000000000D+00 0.000000000000D+00 0.153604482724D-08 0.103987774560D-12  7 2 -2 23 -11 11 23 21 2 0.34215697D+00 0.50836378D-01 0.53149234D+06 0.53149234D+06 0.53149234D+06 0.10666406D+01  1  2  1  2  7  2       -2 0.223124345904D-03 0.100000000000D+01
  </mgrwgt>
  </event>
  <event>
  8     66 0.29152272E-05 0.30995730E+03 0.75467711E-02 0.95281355E-01
        2 -1    0    0  501    0 0.00000000E+00 0.00000000E+00 0.38032209E+03 0.38032222E+03 0.32000000E+00 0.0000E+00 0.9000E+01
       -2 -1    0    0    0  501 0.00000000E+00 0.00000000E+00 -.32803178E+03 0.32803194E+03 0.32000000E+00 0.0000E+00 0.9000E+01
       25  2    1    2    0    0 0.14168908E+03 -.18506682E+03 -.12703004E+03 0.40046366E+03 0.29984827E+03 0.0000E+00 0.0000E+00
       23  2    3    3    0    0 0.19266838E+03 -.17097176E+03 -.93553034E+02 0.28985841E+03 0.94410157E+02 0.0000E+00 0.0000E+00
       23  1    1    2    0    0 -.14168908E+03 0.18506682E+03 0.17932035E+03 0.30789050E+03 0.91188000E+02 0.0000E+00 0.9000E+01
      -13  1    4    4    0    0 0.34977096E+02 -.66258875E+02 0.74705953E+01 0.75295795E+02 0.10565837E+00 0.0000E+00 0.9000E+01
       13  1    4    4    0    0 0.15769128E+03 -.10471289E+03 -.10102363E+03 0.21456261E+03 0.10565837E+00 0.0000E+00 0.9000E+01
       23  1    3    3    0    0 -.50979300E+02 -.14095059E+02 -.33477008E+02 0.11060525E+03 0.91188000E+02 0.0000E+00 0.9000E+01
#aMCatNLO 1  0  0  2  1 0.27048101D+03 0.00000000D+00  -5  7  0 0.00000000D+00 0.00000000D+00 0.00000000D+00 0.00000000D+00 0.00000000D+00
  <mgrwgt>
 0.3366383931D-03    5    2    0
 0.353210752660143D+03 0.000000000000000D+00 0.000000000000000D+00 0.353210752660143D+03
 0.353210752660143D+03 0.000000000000000D+00 0.000000000000000D+00 -.353210752660143D+03
 0.295459302079979D+03 -.141689081111558D+03 0.185066823421496D+03 0.157020454094452D+03
 0.749486223450326D+02 0.349769436694190D+02 -.662588250802705D+02 0.191768139865123D+01
 0.222627718052353D+03 0.157691438611098D+03 -.104712939740930D+03 -.117182384703389D+03
 0.113385862842922D+03 -.509793011689591D+02 -.140950586002954D+02 -.417557507897142D+02
 0.000000000000000D+00 0.000000000000000D+00 -.000000000000000D+00 -.000000000000000D+00
 0.497997935819834D+03 0.000000000000000D+00 0.000000000000000D+00 0.497997935819834D+03
 0.530911554409679D+03 0.000000000000000D+00 0.000000000000000D+00 -.530911554409679D+03
 0.401645653080008D+03 -.186354299338420D+03 0.305974886891270D+03 0.157020454094452D+03
 0.518160344367973D+02 0.268548222919941D+02 -.442723665786463D+02 0.191768139865123D+01
 0.179856950776851D+03 0.131903262192100D+03 -.349047400943729D+02 -.117182384703389D+03
 0.123114648966351D+03 -.661324669763970D+02 0.269243297727323D+02 -.417557507897142D+02
 0.272476202969505D+03 0.937286818307225D+02 -.253722109990983D+03 -.329136185898455D+02
0.899564603106D-05 0.000000000000D+00 0.000000000000D+00 0.852386300416D-07 0.000000000000D+00  7 2 -2 23 -13 13 23 21 0 0.58511113D-01 0.50466451D-01 0.96073530D+05 0.96073530D+05 0.96073530D+05 0.11231524D+01  1  2  2  2  7  2       -2 0.346485467411D-03 0.100000000000D+01
-.489389287768D-06 0.000000000000D+00 -.345456493673D-07 0.852386300416D-07 0.000000000000D+00  7 2 -2 23 -13 13 23 21 2 0.58511113D-01 0.50466451D-01 0.96073530D+05 0.96073530D+05 0.96073530D+05 0.11231524D+01  1  2  3  2  7  2       -2 -.237785030167D-04 0.100000000000D+01
0.584654052991D-06 0.000000000000D+00 0.000000000000D+00 0.852386300416D-07 0.000000000000D+00  7 2 -2 23 -13 13 23 21 2 0.58511113D-01 0.50466451D-01 0.96073530D+05 0.96073530D+05 0.96073530D+05 0.11231524D+01  1  2 15  2  7  2       -2 0.284072383893D-04 0.100000000000D+01
-.171767939867D-05 0.000000000000D+00 -.278998782384D-05 0.852386300416D-07 0.000000000000D+00  7 2 -2 23 -13 13 23 21 2 0.58511113D-01 0.10154456D+00 0.96073530D+05 0.96073530D+05 0.96073530D+05 0.11231524D+01  1  2  5  2  7  2       -2 -.183824074597D-04 0.100000000000D+01
0.382723739623D-07 0.000000000000D+00 -.211024048429D-06 0.852386300416D-07 0.000000000000D+00  7 2 21 23 -13 13 23 2 2 0.58511113D-01 0.10154456D+00 0.96073530D+05 0.96073530D+05 0.96073530D+05 0.11231524D+01  1  2  5  4  7  2       -2 0.390659772889D-05 0.100000000000D+01
  </mgrwgt>
  </event>
  <event>
  9     66 0.29152272E-05 0.21588520E+03 0.75467711E-02 0.10460559E+00
        2 -1    0    0  501    0 0.00000000E+00 0.00000000E+00 0.19700638E+04 0.19700638E+04 0.32000000E+00 0.0000E+00 0.9000E+01
       -2 -1    0    0    0  502 0.00000000E+00 0.00000000E+00 -.10620065E+03 0.10620114E+03 0.32000000E+00 0.0000E+00 0.9000E+01
       25  2    1    2    0    0 -.52593192E+02 -.16638714E+03 0.19909807E+03 0.39950999E+03 0.29919470E+03 0.0000E+00 0.0000E+00
       23  2    3    3    0    0 -.47519137E+02 -.79582210E+01 0.19159841E+03 0.21648823E+03 0.88520077E+02 0.0000E+00 0.0000E+00
       23  1    1    2    0    0 0.45250774E+02 0.14783980E+03 0.15358464E+04 0.15463000E+04 0.91188000E+02 0.0000E+00 0.9000E+01
      -13  1    4    4    0    0 -.21121965E+02 0.21335282E+02 0.11542149E+02 0.32164640E+02 0.10565837E+00 0.0000E+00 0.9000E+01
       13  1    4    4    0    0 -.26397172E+02 -.29293503E+02 0.18005626E+03 0.18432359E+03 0.10565837E+00 0.0000E+00 0.9000E+01
       23  1    3    3    0    0 -.50740553E+01 -.15842892E+03 0.74996632E+01 0.18302176E+03 0.91188000E+02 0.0000E+00 0.9000E+01
       21  1    1    2  501  502 0.73424184E+01 0.18547337E+02 0.12891866E+03 0.13045497E+03 0.75000000E+00 0.0000E+00 0.9000E+01
#aMCatNLO 2  0  0  2  1 0.19947802D+02 0.00000000D+00  -5  7  0 0.00000000D+00 0.00000000D+00 0.00000000D+00 0.00000000D+00 0.00000000D+00
  <mgrwgt>
 0.1351670888D-03    2    2    0
 0.440382292241854D+03 0.000000000000000D+00 0.000000000000000D+00 0.440382292241854D+03
 0.440382292241854D+03 0.000000000000000D+00 0.000000000000000D+00 -.440382292241854D+03
 0.394284720668790D+03 0.485223086087758D+02 0.156103870605124D+03 0.347019245515633D+03
 0.485963133869840D+02 -.207180805429066D+02 0.223555687207098D+02 -.378495886450198D+02
 0.516982045388341D+02 -.259628253944446D+02 -.281963735234759D+02 0.346929469806376D+02
 0.386185345889101D+03 -.184140267142463D+01 -.150263065802358D+03 -.343862603851251D+03
 0.000000000000000D+00 0.000000000000000D+00 0.000000000000000D+00 0.000000000000000D+00
 0.471531490901604D+03 0.000000000000000D+00 0.000000000000000D+00 0.471531490901604D+03
 0.443700464250978D+03 0.000000000000000D+00 0.000000000000000D+00 -.443700464250978D+03
 0.390694058615420D+03 0.452507739599144D+02 0.147839801106396D+03 0.347019245515633D+03
 0.483107213446717D+02 -.211219573485090D+02 0.213353545555979D+02 -.378495886450198D+02
 0.525216643849467D+02 -.263971796996588D+02 -.292935754640428D+02 0.346929469806376D+02
 0.389464002879842D+03 -.507405530717906D+01 -.158428917280170D+03 -.343862603851251D+03
 0.342415079277022D+02 0.734241839543258D+01 0.185473370822184D+02 0.278310266506262D+02
-.541663953793D-06 0.000000000000D+00 0.000000000000D+00 0.818144762631D-07 0.000000000000D+00  7 2 -2 23 -13 13 23 21 2 0.28306237D+00 0.16216265D-01 0.46606421D+05 0.46606421D+05 0.46606421D+05 0.11499900D+01  1  2  8  2  7  2       -2 -.225465210662D-04 0.100000000000D+01
0.453143348657D-05 0.000000000000D+00 0.000000000000D+00 0.818144762631D-07 0.144543861728D-08  7 2 -2 23 -13 13 23 21 2 0.30308399D+00 0.16338451D-01 0.51023692D+05 0.51023692D+05 0.51023692D+05 0.11465220D+01  1  2  1  2  7  2       -2 0.157713609900D-03 0.100000000000D+01
  </mgrwgt>
  </event>
  <event>
  8     66 0.29152272E-05 0.17673759E+03 0.75467711E-02 0.10099309E+00
        2 -1    0    0  501    0 0.00000000E+00 0.00000000E+00 0.60720412E+03 0.60720421E+03 0.32000000E+00 0.0000E+00 0.9000E+01
       -2 -1    0    0    0  501 0.00000000E+00 0.00000000E+00 -.14068696E+03 0.14068732E+03 0.32000000E+00 0.0000E+00 0.9000E+01
       25  2    1    2    0    0 0.11196970E+03 -.16659788E+03 0.32781539E+03 0.48741984E+03 0.29970502E+03 0.0000E+00 0.0000E+00
       23  2    3    3    0    0 0.54200636E+02 -.20752267E+03 0.15865809E+03 0.28262349E+03 0.93275274E+02 0.0000E+00 0.0000E+00
       23  1    1    2    0    0 -.11196970E+03 0.16659788E+03 0.13870178E+03 0.26047169E+03 0.91188000E+02 0.0000E+00 0.9000E+01
      -11  1    4    4    0    0 0.73239015E+02 -.19922301E+03 0.13708471E+03 0.25267761E+03 0.51099893E-03 0.0000E+00 0.9000E+01
       11  1    4    4    0    0 -.19038379E+02 -.82996644E+01 0.21573384E+02 0.29945872E+02 0.51099893E-03 0.0000E+00 0.9000E+01
       23  1    3    3    0    0 0.57769062E+02 0.40924789E+02 0.16915729E+03 0.20479635E+03 0.91188000E+02 0.0000E+00 0.9000E+01
#aMCatNLO 1  0  0  1  2 0.21705145D+02 0.00000000D+00  -5  7  0 0.00000000D+00 0.00000000D+00 0.00000000D+00 0.00000000D+00 0.00000000D+00
  <mgrwgt>
 0.4765539865D-03    9    2    0
 0.292277039846937D+03 0.000000000000000D+00 0.000000000000000D+00 0.292277039846937D+03
 0.292277039846937D+03 0.000000000000000D+00 0.000000000000000D+00 -.292277039846937D+03
 0.222559068198928D+03 -.111969698060723D+03 0.166597882711163D+03 -.304174240514125D+02
 0.213877693774347D+03 0.732390153650079D+02 -.199223007423798D+03 -.262660966954525D+02
 0.210962681288149D+02 -.190383793914949D+02 -.829966439315471D+01 0.370246000239749D+01
 0.127021049591783D+03 0.577690620872097D+02 0.409247891057897D+02 0.529810607444675D+02
 0.000000000000000D+00 -.000000000000000D+00 -.000000000000000D+00 0.000000000000000D+00
 0.311823461473780D+03 0.000000000000000D+00 0.000000000000000D+00 0.311823461473780D+03
 0.298566760745015D+03 0.000000000000000D+00 0.000000000000000D+00 -.298566760745015D+03
 0.223654286661135D+03 -.105735317524028D+03 0.172048863815111D+03 -.304174240514125D+02
 0.211203212712984D+03 0.791781386589675D+02 -.194030182144872D+03 -.262660966954525D+02
 0.203757751441424D+02 -.184589424549223D+02 -.779303831000237D+01 0.370246000239749D+01
 0.129723634487465D+03 0.613562341068045D+02 0.440612044690055D+02 0.529810607444675D+02
 0.254333132130685D+02 -.163401127868221D+02 -.142868478292423D+02 0.132567007287655D+02
0.248071627454D-05 0.000000000000D+00 0.000000000000D+00 0.810747579618D-07 0.000000000000D+00  7 2 -2 23 -11 11 23 21 0 0.93416054D-01 0.21644182D-01 0.80923857D+05 0.80923857D+05 0.80923857D+05 0.11293444D+01  1  2  2  1  7  1        2 0.259867666107D-03 0.100000000000D+01
-.137694779651D-06 0.000000000000D+00 -.952660368185D-08 0.810747579618D-07 0.000000000000D+00  7 2 -2 23 -11 11 23 21 2 0.93416054D-01 0.21644182D-01 0.80923857D+05 0.80923857D+05 0.80923857D+05 0.11293444D+01  1  2  3  1  7  1        2 -.183969329644D-04 0.100000000000D+01
0.156977528662D-06 0.000000000000D+00 0.000000000000D+00 0.810747579618D-07 0.000000000000D+00  7 2 -2 23 -11 11 23 21 2 0.93416054D-01 0.21644182D-01 0.80923857D+05 0.80923857D+05 0.80923857D+05 0.11293444D+01  1  2 15  1  7  1        2 0.209732357250D-04 0.100000000000D+01
0.894998166197D-05 0.000000000000D+00 0.000000000000D+00 0.810747579618D-07 0.000000000000D+00  7 2 -2 23 -11 11 23 21 2 0.10062217D+00 0.21644182D-01 0.87406784D+05 0.87406784D+05 0.87406784D+05 0.11265507D+01  1  2 12  1  7  1        2 0.109123188765D-02 0.100000000000D+01
-.884831559870D-05 0.000000000000D+00 0.000000000000D+00 0.810747579618D-07 0.000000000000D+00  7 2 -2 23 -11 11 23 21 2 0.93416054D-01 0.21644182D-01 0.80923857D+05 0.80923857D+05 0.80923857D+05 0.11293444D+01  1  2  4  1  7  1        2 -.118219346681D-02 0.100000000000D+01
-.259883276845D-04 0.000000000000D+00 -.410666563358D-05 0.810747579618D-07 0.000000000000D+00  7 2 -2 23 -11 11 23 21 2 0.10116934D+00 0.21644182D-01 0.80923857D+05 0.80923857D+05 0.80923857D+05 0.11293444D+01  1  2  5  1  7  1        2 -.316467048589D-02 0.100000000000D+01
0.262453131078D-04 0.000000000000D+00 0.409364651394D-05 0.810747579618D-07 0.000000000000D+00  7 2 -2 23 -11 11 23 21 2 0.93416054D-01 0.21644182D-01 0.80923857D+05 0.80923857D+05 0.80923857D+05 0.11293444D+01  1  2  6  1  7  1        2 0.350654735857D-02 0.100000000000D+01
0.117012847718D-06 0.000000000000D+00 0.000000000000D+00 0.810747579618D-07 0.000000000000D+00  7 21 -2 23 -11 11 23 -2 2 0.10062217D+00 0.21644182D-01 0.87406784D+05 0.87406784D+05 0.87406784D+05 0.11265507D+01  1  2 12  3  7  1        2 0.197191768035D-04 0.100000000000D+01
-.337249331466D-06 0.000000000000D+00 -.546893236686D-07 0.810747579618D-07 0.000000000000D+00  7 21 -2 23 -11 11 23 -2 2 0.10116934D+00 0.21644182D-01 0.80923857D+05 0.80923857D+05 0.80923857D+05 0.11293444D+01  1  2  5  3  7  1        2 -.565244526942D-04 0.100000000000D+01
  </mgrwgt>
  </event>
  <event>
  8     66 0.29152272E-05 0.93400556E+02 0.75467711E-02 0.10041802E+00
        2 -1    0    0  501    0 0.00000000E+00 0.00000000E+00 0.32068470E+04 0.32068470E+04 0.32000000E+00 0.0000E+00 0.9000E+01
       -2 -1    0    0    0  501 0.00000000E+00 0.00000000E+00 -.42840090E+02 0.42841285E+02 0.32000000E+00 0.0000E+00 0.9000E+01
       25  2    1    2    0    0 -.15567376E+03 0.67116221E+02 0.74116612E+03 0.81921270E+03 0.30503004E+03 0.0000E+00 0.0000E+00
       23  2    3    3    0    0 0.54970444E+02 0.19241244E+02 0.30197556E+03 0.32135068E+03 0.93193585E+02 0.0000E+00 0.0000E+00
       23  1    1    2    0    0 0.15567376E+03 -.67116221E+02 0.24228408E+04 0.24304756E+04 0.91188000E+02 0.0000E+00 0.9000E+01
      -11  1    4    4    0    0 0.39173649E+02 0.50397063E+02 0.25465773E+03 0.26253571E+03 0.51099893E-03 0.0000E+00 0.9000E+01
       11  1    4    4    0    0 0.15796795E+02 -.31155818E+02 0.47317836E+02 0.58814976E+02 0.51099893E-03 0.0000E+00 0.9000E+01
       23  1    3    3    0    0 -.21064420E+03 0.47874976E+02 0.43919056E+03 0.49786202E+03 0.91188000E+02 0.0000E+00 0.9000E+01
#aMCatNLO 1  0  0  1  2 0.90990492D+02 0.00000000D+00  -5  7  0 0.00000000D+00 0.00000000D+00 0.00000000D+00 0.00000000D+00 0.00000000D+00
  <mgrwgt>
 0.4873949344D-03    9    2    0
 0.370652915391238D+03 0.000000000000000D+00 0.000000000000000D+00 0.370652915391238D+03
 0.370652915391238D+03 0.000000000000000D+00 0.000000000000000D+00 -.370652915391238D+03
 0.313505062577221D+03 0.155673758396574D+03 -.671162208394885D+02 0.247449523669894D+03
 0.639687441212118D+02 0.391736490755623D+02 0.503970627508542D+02 -.419064537228197D+01
 0.558694888736204D+02 0.157967949502438D+02 -.311558182560339D+02 -.436024775109916D+02
 0.307962535210423D+03 -.210644202422380D+03 0.478749763446682D+02 -.199656400786621D+03
 0.000000000000000D+00 0.000000000000000D+00 0.000000000000000D+00 0.000000000000000D+00
 0.636095245534272D+03 0.000000000000000D+00 0.000000000000000D+00 0.636095245534272D+03
 0.381314796979015D+03 0.000000000000000D+00 0.000000000000000D+00 -.381314796979015D+03
 0.298081773719188D+03 0.118643529050757D+03 -.723183153115570D+02 0.247449523669894D+03
 0.588267008172536D+02 0.317386566610277D+02 0.493525773770716D+02 -.419064537228197D+01
 0.549006848040294D+02 0.908990609567171D+01 -.320980179143001D+02 -.436024775109916D+02
 0.335060042303526D+03 -.249577796323901D+03 0.424054927041156D+02 -.199656400786621D+03
 0.270540840869290D+03 0.901057045164442D+02 0.126582631446699D+02 0.254780448555257D+03
0.236522153733D-04 0.000000000000D+00 0.000000000000D+00 0.325697904404D-08 0.000000000000D+00  7 2 -2 23 -11 11 23 21 0 0.49336117D+00 0.65908763D-02 0.69098533D+05 0.69098533D+05 0.69098533D+05 0.11351385D+01  1  2  2  1  7  1        2 0.484736727456D-03 0.100000000000D+01
-.112536840968D-05 0.000000000000D+00 -.908307348048D-07 0.325697904404D-08 0.000000000000D+00  7 2 -2 23 -11 11 23 21 2 0.49336117D+00 0.65908763D-02 0.69098533D+05 0.69098533D+05 0.69098533D+05 0.11351385D+01  1  2  3  1  7  1        2 -.297184740545D-04 0.100000000000D+01
0.141990566373D-05 0.000000000000D+00 0.000000000000D+00 0.325697904404D-08 0.000000000000D+00  7 2 -2 23 -11 11 23 21 2 0.49336117D+00 0.65908763D-02 0.69098533D+05 0.69098533D+05 0.69098533D+05 0.11351385D+01  1  2 15  1  7  1        2 0.374965471435D-04 0.100000000000D+01
0.428285749801D-04 0.000000000000D+00 0.000000000000D+00 0.325697904404D-08 0.000000000000D+00  7 2 -2 23 -11 11 23 21 2 0.84927988D+00 0.65908763D-02 0.95574452D+05 0.95574452D+05 0.95574452D+05 0.11233388D+01  1  2 12  1  7  1        2 0.447935838961D-05 0.100000000000D+01
-.435367233613D-04 0.000000000000D+00 0.000000000000D+00 0.325697904404D-08 0.000000000000D+00  7 2 -2 23 -11 11 23 21 2 0.49336117D+00 0.65908763D-02 0.69098533D+05 0.69098533D+05 0.69098533D+05 0.11351385D+01  1  2  4  1  7  1        2 -.114970792897D-02 0.100000000000D+01
-.468068728213D-04 0.000000000000D+00 -.459746773470D-05 0.325697904404D-08 0.000000000000D+00  7 2 -2 23 -11 11 23 21 2 0.84808149D+00 0.65908763D-02 0.69098533D+05 0.69098533D+05 0.69098533D+05 0.11351385D+01  1  2  5  1  7  1        2 -.536137037352D-05 0.100000000000D+01
0.433762503945D-04 0.000000000000D+00 0.399653819329D-05 0.325697904404D-08 0.000000000000D+00  7 2 -2 23 -11 11 23 21 2 0.49336117D+00 0.65908763D-02 0.69098533D+05 0.69098533D+05 0.69098533D+05 0.11351385D+01  1  2  6  1  7  1        2 0.114547019522D-02 0.100000000000D+01
0.258214404928D-05 0.000000000000D+00 0.000000000000D+00 0.325697904404D-08 0.000000000000D+00  7 21 -2 23 -11 11 23 -2 2 0.84927988D+00 0.65908763D-02 0.95574452D+05 0.95574452D+05 0.95574452D+05 0.11233388D+01  1  2 12  3  7  1        2 0.102943515889D-08 0.100000000000D+01
-.258989000362D-05 0.000000000000D+00 -.276586010064D-06 0.325697904404D-08 0.000000000000D+00  7 21 -2 23 -11 11 23 -2 2 0.84808149D+00 0.65908763D-02 0.69098533D+05 0.69098533D+05 0.69098533D+05 0.11351385D+01  1  2  5  3  7  1        2 -.114987567817D-08 0.100000000000D+01
  </mgrwgt>
  </event>
  <event>
  8     66 0.29152272E-05 0.28231579E+03 0.75467711E-02 0.99843003E-01
        2 -1    0    0  501    0 0.00000000E+00 0.00000000E+00 0.38886399E+03 0.38886412E+03 0.32000000E+00 0.0000E+00 0.9000E+01
       -2 -1    0    0    0  501 0.00000000E+00 0.00000000E+00 -.57087842E+03 0.57087851E+03 0.32000000E+00 0.0000E+00 0.9000E+01
       25  2    1    2    0    0 0.19446282E+03 0.74625190E+02 0.26908069E+03 0.45458249E+03 0.30142348E+03 0.0000E+00 0.0000E+00
       23  2    3    3    0    0 0.33513381E+02 0.12141109E+03 0.19633936E+03 0.25037624E+03 0.90968757E+02 0.0000E+00 0.0000E+00
       23  1    1    2    0    0 -.19446282E+03 -.74625190E+02 -.45109513E+03 0.50516015E+03 0.91188000E+02 0.0000E+00 0.9000E+01
      -11  1    4    4    0    0 0.46815935E+02 0.12430656E+03 0.19598550E+03 0.23675761E+03 0.51099893E-03 0.0000E+00 0.9000E+01
       11  1    4    4    0    0 -.13302554E+02 -.28954722E+01 0.35386881E+00 0.13618624E+02 0.51099893E-03 0.0000E+00 0.9000E+01
       23  1    3    3    0    0 0.16094944E+03 -.46785897E+02 0.72741328E+02 0.20420625E+03 0.91188000E+02 0.0000E+00 0.9000E+01
#aMCatNLO 1  0  0  2  2 0.75697477D+02 0.00000000D+00  -5  7  0 0.00000000D+00 0.00000000D+00 0.00000000D+00 0.00000000D+00 0.00000000D+00
  <mgrwgt>
 0.6061924632D-03    4    2    0
 0.471162569541953D+03 0.000000000000000D+00 0.000000000000000D+00 0.471162569541953D+03
 0.471162569541953D+03 0.000000000000000D+00 0.000000000000000D+00 -.471162569541953D+03
 0.427366188561464D+03 -.194462816303634D+03 -.746251903031265D+02 -.361858952948568D+03
 0.278989229117615D+03 0.468159346960883D+02 0.124306559704343D+03 0.245338821707130D+03
 0.139386955230912D+02 -.133025536887722D+02 -.289547217526031D+01 0.299090941438740D+01
 0.222031025881738D+03 0.160949435296317D+03 -.467858972259566D+02 0.113529221827050D+03
 0.000000000000000D+00 -.000000000000000D+00 -.000000000000000D+00 0.000000000000000D+00
 0.572116846179066D+03 0.000000000000000D+00 0.000000000000000D+00 0.572116846179066D+03
 0.487086777547807D+03 0.000000000000000D+00 0.000000000000000D+00 -.487086777547807D+03
 0.419042291817238D+03 -.185999311591480D+03 -.417557809878485D+02 -.361858952948568D+03
 0.290495888996194D+03 0.525103955768451D+02 0.146421932931543D+03 0.245338821707130D+03
 0.134918874102015D+02 -.130282666591701D+02 -.183023348839404D+01 0.299090941438740D+01
 0.222330590875949D+03 0.165392746917730D+03 -.295295674468976D+02 0.113529221827050D+03
 0.113842964627290D+03 -.188755642439241D+02 -.733063510084032D+02 0.850300686312587D+02
0.635473733895D-04 0.000000000000D+00 0.000000000000D+00 0.265253123998D-06 0.000000000000D+00  7 2 -2 23 -11 11 23 21 0 0.59825246D-01 0.87827467D-01 0.79702205D+05 0.79702205D+05 0.79702205D+05 0.11298983D+01  1  2  2  2  7  2       -2 0.742743474156D-03 0.100000000000D+01
-.240438829218D-05 0.000000000000D+00 -.244038646223D-06 0.265253123998D-06 0.000000000000D+00  7 2 -2 23 -11 11 23 21 2 0.59825246D-01 0.87827467D-01 0.79702205D+05 0.79702205D+05 0.79702205D+05 0.11298983D+01  1  2  3  2  7  2       -2 -.358776998042D-04 0.100000000000D+01
0.384728971443D-05 0.000000000000D+00 0.000000000000D+00 0.265253123998D-06 0.000000000000D+00  7 2 -2 23 -11 11 23 21 2 0.59825246D-01 0.87827467D-01 0.79702205D+05 0.79702205D+05 0.79702205D+05 0.11298983D+01  1  2 15  2  7  2       -2 0.574083253869D-04 0.100000000000D+01
-.105940358002D-04 0.000000000000D+00 0.000000000000D+00 0.265253123998D-06 0.000000000000D+00  7 2 -2 23 -11 11 23 21 2 0.59825246D-01 0.87827467D-01 0.79702205D+05 0.79702205D+05 0.79702205D+05 0.11298983D+01  1  2  4  2  7  2       -2 -.158081636560D-03 0.100000000000D+01
  </mgrwgt>
  </event>
  <event>
  8     66 0.29152272E-05 0.90439920E+02 0.75467711E-02 0.10067967E+00
        2 -1    0    0  501    0 0.00000000E+00 0.00000000E+00 0.28034794E+03 0.28034812E+03 0.32000000E+00 0.0000E+00 0.9000E+01
       -2 -1    0    0    0  501 0.00000000E+00 0.00000000E+00 -.17606685E+04 0.17606685E+04 0.32000000E+00 0.0000E+00 0.9000E+01
       25  2    1    2    0    0 -.59921577E+02 0.18190950E+03 0.15709185E+03 0.38992116E+03 0.30112954E+03 0.0000E+00 0.0000E+00
       23  2    3    3    0    0 -.10838917E+03 -.76955607E+01 0.33277942E+02 0.14103499E+03 0.83522543E+02 0.0000E+00 0.0000E+00
       23  1    1    2    0    0 0.59921577E+02 -.18190950E+03 -.16374124E+04 0.16510955E+04 0.91188000E+02 0.0000E+00 0.9000E+01
      -11  1    4    4    0    0 -.39701546E+02 0.37670168E+02 0.13993294E+02 0.56489526E+02 0.51099893E-03 0.0000E+00 0.9000E+01
       11  1    4    4    0    0 -.68687620E+02 -.45365729E+02 0.19284647E+02 0.84545468E+02 0.51099893E-03 0.0000E+00 0.9000E+01
       23  1    3    3    0    0 0.48467589E+02 0.18960507E+03 0.12381390E+03 0.24888616E+03 0.91188000E+02 0.0000E+00 0.9000E+01
#aMCatNLO 1  0  0  1  2 0.36878274D+02 0.00000000D+00  -5  7  0 0.00000000D+00 0.00000000D+00 0.00000000D+00 0.00000000D+00 0.00000000D+00
  <mgrwgt>
 0.5895557074D-03    6    2    0
 0.702566716494019D+03 0.000000000000000D+00 0.000000000000000D+00 0.702566716494019D+03
 0.702566716494019D+03 0.000000000000000D+00 0.000000000000000D+00 -.702566716494019D+03
 0.673258558294571D+03 0.599215767563732D+02 -.181909504519411D+03 -.638968052235334D+03
 0.967955212675478D+02 -.397015455407902D+02 0.376701679438051D+02 0.798380777963396D+02
 0.143122468479628D+03 -.686876199086369D+02 -.453657286534174D+02 0.117081179182366D+03
 0.491956884946291D+03 0.484675886930539D+02 0.189605065229024D+03 0.442048795256629D+03
 0.000000000000000D+00 -.000000000000000D+00 -.000000000000000D+00 -.000000000000000D+00
 0.718538120727189D+03 0.000000000000000D+00 0.000000000000000D+00 0.718538120727189D+03
 0.724424229385299D+03 0.000000000000000D+00 0.000000000000000D+00 -.724424229385299D+03
 0.674871986506276D+03 0.775956493860338D+02 -.181206209181337D+03 -.638968052235334D+03
 0.958270048179505D+02 -.371762526236664D+02 0.377706556340563D+02 0.798380777963396D+02
 0.141323103970725D+03 -.649585213238885D+02 -.452173385395581D+02 0.117081179182366D+03
 0.493595196712542D+03 0.613882358356677D+02 0.190119209936399D+03 0.442048795256629D+03
 0.373450581049949D+02 -.368491112741466D+02 -.146631784956000D+01 -.588610865810974D+01
0.513356683837D-03 0.000000000000D+00 0.000000000000D+00 0.232216449396D-07 0.000000000000D+00  7 2 -2 23 -11 11 23 21 0 0.43130468D-01 0.27087209D+00 0.79827198D+05 0.79827198D+05 0.79827198D+05 0.11298412D+01  1  2  2  1  7  1        2 0.342918822428D-03 0.100000000000D+01
0.254088203148D-06 0.000000000000D+00 -.197142483585D-05 0.232216449396D-07 0.000000000000D+00  7 2 -2 23 -11 11 23 21 2 0.43130468D-01 0.27087209D+00 0.79827198D+05 0.79827198D+05 0.79827198D+05 0.11298412D+01  1  2  3  1  7  1        2 0.216666342619D-06 0.100000000000D+01
0.307895378165D-04 0.000000000000D+00 0.000000000000D+00 0.232216449396D-07 0.000000000000D+00  7 2 -2 23 -11 11 23 21 2 0.43130468D-01 0.27087209D+00 0.79827198D+05 0.79827198D+05 0.79827198D+05 0.11298412D+01  1  2 15  1  7  1        2 0.262548849847D-04 0.100000000000D+01
0.798395801908D-03 0.000000000000D+00 0.000000000000D+00 0.232216449396D-07 0.000000000000D+00  7 2 -2 23 -11 11 23 21 2 0.44764205D-01 0.27087209D+00 0.91755874D+05 0.91755874D+05 0.91755874D+05 0.11248013D+01  1  2 12  1  7  1        2 0.642989856565D-03 0.100000000000D+01
-.529524181083D-03 0.000000000000D+00 0.000000000000D+00 0.232216449396D-07 0.000000000000D+00  7 2 -2 23 -11 11 23 21 2 0.43130468D-01 0.27087209D+00 0.79827198D+05 0.79827198D+05 0.79827198D+05 0.11298412D+01  1  2  4  1  7  1        2 -.451536380760D-03 0.100000000000D+01
0.985516014151D-05 0.000000000000D+00 0.000000000000D+00 0.232216449396D-07 0.000000000000D+00  7 21 -2 23 -11 11 23 -2 2 0.44764205D-01 0.27087209D+00 0.91755874D+05 0.91755874D+05 0.91755874D+05 0.11248013D+01  1  2 12  3  7  1        2 0.287118578286D-04 0.100000000000D+01
  </mgrwgt>
  </event>
  <event>
  8     66 0.29152272E-05 0.38032248E+03 0.75467711E-02 0.86585801E-01
        2 -1    0    0  501    0 0.00000000E+00 0.00000000E+00 0.86158379E+03 0.86158385E+03 0.32000000E+00 0.0000E+00 0.9000E+01
       -2 -1    0    0    0  501 0.00000000E+00 0.00000000E+00 -.23937706E+03 0.23937727E+03 0.32000000E+00 0.0000E+00 0.9000E+01
       25  2    1    2    0    0 -.19171795E+03 -.26829271E+03 0.71208645E+02 0.45238507E+03 0.30140477E+03 0.0000E+00 0.0000E+00
       23  2    3    3    0    0 -.20900352E+03 -.21253758E+03 -.19481813E+02 0.31114968E+03 0.87062551E+02 0.0000E+00 0.0000E+00
       23  1    1    2    0    0 0.19171795E+03 0.26829271E+03 0.55099809E+03 0.64857605E+03 0.91188000E+02 0.0000E+00 0.9000E+01
      -13  1    4    4    0    0 -.19526738E+03 -.22036745E+03 -.21461814E+02 0.29521481E+03 0.10565837E+00 0.0000E+00 0.9000E+01
       13  1    4    4    0    0 -.13736134E+02 0.78298745E+01 0.19800011E+01 0.15934864E+02 0.10565837E+00 0.0000E+00 0.9000E+01
       23  1    3    3    0    0 0.17285573E+02 -.55755129E+02 0.90690459E+02 0.14123539E+03 0.91188000E+02 0.0000E+00 0.9000E+01
#aMCatNLO 1  0  0  1  2 0.97922775D+03 0.00000000D+00  -5  7  0 0.00000000D+00 0.00000000D+00 0.00000000D+00 0.00000000D+00 0.00000000D+00
  <mgrwgt>
 0.8891352227D-03    3    2    0
 0.454140442963257D+03 0.000000000000000D+00 0.000000000000000D+00 0.454140442963257D+03
 0.454140442963257D+03 0.000000000000000D+00 0.000000000000000D+00 -.454140442963257D+03
 0.408708692686058D+03 0.191717946038175D+03 0.268292706682494D+03 0.223586217913876D+03
 0.372543556641597D+03 -.195267652023310D+03 -.220367787953170D+03 -.228248293971940D+03
 0.179583443211862D+02 -.137358665367183D+02 0.783021050503883D+01 -.851562708733326D+01
 0.109070292277673D+03 0.172855725218536D+02 -.557551292343630D+02 0.131777031453976D+02
 0.000000000000000D+00 -.000000000000000D+00 -.000000000000000D+00 -.000000000000000D+00
 0.110529630986567D+04 0.000000000000000D+00 0.000000000000000D+00 0.110529630986567D+04
 0.121575429856542D+04 0.000000000000000D+00 0.000000000000000D+00 -.121575429856542D+04
 0.862117347159332D+03 0.734750234650568D+03 0.380896790179372D+03 0.223586217913876D+03
 0.293445317441254D+03 0.893137549862606D+02 -.161356511481104D+03 -.228248293971940D+03
 0.136211878162409D+02 -.241725661243327D+00 0.106283781236594D+02 -.851562708733326D+01
 0.166428801794340D+03 0.135008139477412D+03 -.313439808792558D+02 0.131777031453976D+02
 0.985437954219920D+03 -.958830403452998D+03 -.198824675942672D+03 -.110457988699748D+03
0.327021776828D-04 0.000000000000D+00 0.000000000000D+00 0.170922163606D-07 0.000000000000D+00  7 2 -2 23 -13 13 23 21 0 0.13255137D+00 0.36827260D-01 0.14464519D+06 0.14464519D+06 0.14464519D+06 0.11087999D+01  1  2  2  1  7  1        2 0.879470134016D-03 0.100000000000D+01
-.174728055505D-05 0.000000000000D+00 -.125584972983D-06 0.170922163606D-07 0.000000000000D+00  7 2 -2 23 -13 13 23 21 2 0.13255137D+00 0.36827260D-01 0.14464519D+06 0.14464519D+06 0.14464519D+06 0.11087999D+01  1  2  3  1  7  1        2 -.577714699539D-04 0.100000000000D+01
0.203959822484D-05 0.000000000000D+00 0.000000000000D+00 0.170922163606D-07 0.000000000000D+00  7 2 -2 23 -13 13 23 21 2 0.13255137D+00 0.36827260D-01 0.14464519D+06 0.14464519D+06 0.14464519D+06 0.11087999D+01  1  2 15  1  7  1        2 0.674365586133D-04 0.100000000000D+01
  </mgrwgt>
  </event>
  <event>
  9     66 0.29152272E-05 0.20833465E+03 0.75467711E-02 0.99078654E-01
        2 -1    0    0  501    0 0.00000000E+00 0.00000000E+00 0.14876907E+04 0.14876907E+04 0.32000000E+00 0.0000E+00 0.9000E+01
       -2 -1    0    0    0  502 0.00000000E+00 0.00000000E+00 -.10094629E+03 0.10094679E+03 0.32000000E+00 0.0000E+00 0.9000E+01
       25  2    1    2    0    0 -.23589413E+03 0.81371904E+02 0.10438732E+04 0.11141676E+04 0.29904991E+03 0.0000E+00 0.0000E+00
       23  2    3    3    0    0 -.12043153E+03 0.16199713E+03 0.56189435E+03 0.60382374E+03 0.90172177E+02 0.0000E+00 0.0000E+00
       23  1    1    2    0    0 0.24473785E+02 -.37457655E+02 0.16926011E+03 0.19739878E+03 0.91188000E+02 0.0000E+00 0.9000E+01
      -11  1    4    4    0    0 -.19263153E+02 0.19038315E+02 0.18231996E+02 0.32648617E+02 0.51099893E-03 0.0000E+00 0.9000E+01
       11  1    4    4    0    0 -.10116838E+03 0.14295881E+03 0.54366236E+03 0.57117512E+03 0.51099893E-03 0.0000E+00 0.9000E+01
       23  1    3    3    0    0 -.11546259E+03 -.80625224E+02 0.48197883E+03 0.51034389E+03 0.91188000E+02 0.0000E+00 0.9000E+01
       21  1    1    2  501  502 0.21142034E+03 -.43914249E+02 0.17361113E+03 0.27707113E+03 0.75000000E+00 0.0000E+00 0.9000E+01
#aMCatNLO 2  0  0  2  2 0.21593291D+03 0.00000000D+00  -5  7  0 0.00000000D+00 0.00000000D+00 0.00000000D+00 0.00000000D+00 0.00000000D+00
  <mgrwgt>
 0.8565961483D-04    1    2    0
 0.224659201424473D+03 0.000000000000000D+00 0.000000000000000D+00 0.224659201424473D+03
 0.224659201424473D+03 0.000000000000000D+00 0.000000000000000D+00 -.224659201424473D+03
 0.134394037767542D+03 0.784194777755443D+02 -.486627481487439D+02 -.350546500693761D+02
 0.351517132521436D+02 -.215883955275797D+01 0.154855674223779D+02 -.314830042714060D+02
 0.137835921208403D+03 -.303322754081580D+02 0.128245402620999D+03 0.403956798495883D+02
 0.141936730620857D+03 -.459283628146283D+02 -.950682218946333D+02 0.261419744911938D+02
 0.000000000000000D+00 0.000000000000000D+00 -.000000000000000D+00 -.000000000000000D+00
 0.293749991608480D+03 0.000000000000000D+00 0.000000000000000D+00 0.293749991608480D+03
 0.511240377763001D+03 0.000000000000000D+00 0.000000000000000D+00 -.511240377763001D+03
 0.107452882289266D+03 0.244737846379002D+02 -.374576553228065D+02 -.350546500693761D+02
 0.415295804773182D+02 -.192631530579927D+02 0.190383148133712D+02 -.314830042714060D+02
 0.179733343346911D+03 -.101168381535225D+03 0.142958813431321D+03 0.403956798495883D+02
 0.169796029796148D+03 -.115462594759597D+03 -.806252241647563D+02 0.261419744911938D+02
 0.306478533461838D+03 0.211420344714914D+03 -.439142487571299D+02 -.217490386154521D+03
0.135349457634D-05 0.000000000000D+00 0.000000000000D+00 0.245402888185D-07 0.542735121338D-11  7 2 -2 23 -11 11 23 21 2 0.22887521D+00 0.15530217D-01 0.11816310D+06 0.11816310D+06 0.11816310D+06 0.11158222D+01  1  2  1  2  7  2       -2 0.856596148335D-04 0.100000000000D+01
  </mgrwgt>
  </event>
  <event>
  8     66 0.29152272E-05 0.24913597E+03 0.75467711E-02 0.99693123E-01
        2 -1    0    0  501    0 0.00000000E+00 0.00000000E+00 0.17915355E+04 0.17915356E+04 0.32000000E+00 0.0000E+00 0.9000E+01
       -2 -1    0    0    0  501 0.00000000E+00 0.00000000E+00 -.36712093E+02 0.36713487E+02 0.32000000E+00 0.0000E+00 0.9000E+01
       25  2    1    2    0    0 -.56720940E+02 -.14025544E+03 0.11139546E+04 0.11634806E+04 0.29983930E+03 0.0000E+00 0.0000E+00
       23  2    3    3    0    0 -.72191786E+02 -.18578223E+03 0.60024887E+03 0.63953330E+03 0.94749391E+02 0.0000E+00 0.0000E+00
       23  1    1    2    0    0 0.56720940E+02 0.14025544E+03 0.64086888E+03 0.66476840E+03 0.91188000E+02 0.0000E+00 0.9000E+01
      -13  1    4    4    0    0 -.90980842E+02 -.17402237E+03 0.56207867E+03 0.59539377E+03 0.10565837E+00 0.0000E+00 0.9000E+01
       13  1    4    4    0    0 0.18789056E+02 -.11759860E+02 0.38170199E+02 0.44139531E+02 0.10565837E+00 0.0000E+00 0.9000E+01
       23  1    3    3    0    0 0.15470846E+02 0.45526793E+02 0.51370569E+03 0.52394735E+03 0.91188000E+02 0.0000E+00 0.9000E+01
#aMCatNLO 1  0  0  1  1 0.13828623D+03 0.00000000D+00  -5  7  0 0.00000000D+00 0.00000000D+00 0.00000000D+00 0.00000000D+00 0.00000000D+00
  <mgrwgt>
 0.6089005820D-03    3    2    0
 0.256461146162714D+03 0.000000000000000D+00 0.000000000000000D+00 0.256461146162714D+03
 0.256461146162714D+03 0.000000000000000D+00 0.000000000000000D+00 -.256461146162714D+03
 0.176928285644337D+03 0.567209405635809D+02 0.140255436764722D+03 0.997568426545753D+01
 0.199210249490837D+03 -.909809715977213D+02 -.174022573543960D+03 -.335161186069170D+02
 0.267408579638758D+02 0.187891829819500D+02 -.117596623369926D+02 -.149582896493850D+02
 0.110042899226378D+03 0.154708480521905D+02 0.455267991162311D+02 0.384987239908444D+02
 0.000000000000000D+00 0.000000000000000D+00 -.000000000000000D+00 -.000000000000000D+00
 0.290822404539971D+03 0.000000000000000D+00 0.000000000000000D+00 0.290822404539971D+03
 0.455300652383309D+03 0.000000000000000D+00 0.000000000000000D+00 -.455300652383309D+03
 0.220617498885512D+03 0.552510046705529D+02 0.192885047831161D+03 0.997568426545753D+01
 0.160109042069236D+03 -.923095640373222D+02 -.126453626017980D+03 -.335161186069170D+02
 0.243850124692344D+02 0.186001437443668D+02 -.499129808553942D+01 -.149582896493850D+02
 0.126125078836271D+03 0.145976108019233D+02 0.767922012798687D+02 0.384987239908444D+02
 0.214886424663026D+03 0.386080482047921D+01 -.138232325007510D+03 -.164478247843338D+03
0.360052733729D-05 0.000000000000D+00 0.000000000000D+00 0.274093598830D-07 0.000000000000D+00  7 2 -2 23 -13 13 23 21 0 0.27562096D+00 0.56481237D-02 0.62068729D+05 0.62068729D+05 0.62068729D+05 0.11391262D+01  1  2  2  1  7  1        2 0.601614281070D-03 0.100000000000D+01
-.199825064715D-06 0.000000000000D+00 -.138269730158D-07 0.274093598830D-07 0.000000000000D+00  7 2 -2 23 -13 13 23 21 2 0.27562096D+00 0.56481237D-02 0.62068729D+05 0.62068729D+05 0.62068729D+05 0.11391262D+01  1  2  3  1  7  1        2 -.433257084335D-04 0.100000000000D+01
0.233430644508D-06 0.000000000000D+00 0.000000000000D+00 0.274093598830D-07 0.000000000000D+00  7 2 -2 23 -13 13 23 21 2 0.27562096D+00 0.56481237D-02 0.62068729D+05 0.62068729D+05 0.62068729D+05 0.11391262D+01  1  2 15  1  7  1        2 0.506120093486D-04 0.100000000000D+01
  </mgrwgt>
  </event>
  <event>
  8     66 0.29152272E-05 0.19382027E+03 0.75467711E-02 0.10205393E+00
        2 -1    0    0  501    0 0.00000000E+00 0.00000000E+00 0.12725678E+04 0.12725679E+04 0.32000000E+00 0.0000E+00 0.9000E+01
       -2 -1    0    0    0  501 0.00000000E+00 0.00000000E+00 -.59597132E+02 0.59597991E+02 0.32000000E+00 0.0000E+00 0.9000E+01
       25  2    1    2    0    0 0.66878330E+02 0.57914364E+02 0.39281903E+03 0.50223165E+03 0.30017171E+03 0.0000E+00 0.0000E+00
       23  2    3    3    0    0 -.24970232E+02 -.58737278E+02 0.53383747E+02 0.12068830E+03 0.87420030E+02 0.0000E+00 0.0000E+00
       23  1    1    2    0    0 -.66878330E+02 -.57914364E+02 0.82015165E+03 0.82993419E+03 0.91188000E+02 0.0000E+00 0.9000E+01
      -11  1    4    4    0    0 0.12868569E+02 0.36582037E+01 -.15405725E+02 0.20403894E+02 0.51099893E-03 0.0000E+00 0.9000E+01
       11  1    4    4    0    0 -.37838801E+02 -.62395482E+02 0.68789472E+02 0.10028441E+03 0.51099893E-03 0.0000E+00 0.9000E+01
       23  1    3    3    0    0 0.91848562E+02 0.11665164E+03 0.33943529E+03 0.38154335E+03 0.91188000E+02 0.0000E+00 0.9000E+01
#aMCatNLO 1  0  0  2  2 0.13348521D+03 0.00000000D+00  -5  7  0 0.00000000D+00 0.00000000D+00 0.00000000D+00 0.00000000D+00 0.00000000D+00
  <mgrwgt>
 0.5233269262D-03    4    2    0
 0.275394246886710D+03 0.000000000000000D+00 0.000000000000000D+00 0.275394246886710D+03
 0.275394246886710D+03 0.000000000000000D+00 0.000000000000000D+00 -.275394246886710D+03
 0.201148137621439D+03 -.668783303031127D+02 -.579143642754021D+02 0.155944019670576D+03
 0.832770920197088D+02 0.128685694450783D+02 0.365820366381360D+01 -.821954470858959D+02
 0.910619066387171D+02 -.378388012813451D+02 -.623954819793292D+02 -.544729270999504D+02
 0.175301357493556D+03 0.918485621393795D+02 0.116651642590918D+03 -.192756454847296D+02
 0.000000000000000D+00 0.000000000000000D+00 -.000000000000000D+00 0.000000000000000D+00
 0.387258942137702D+03 0.000000000000000D+00 0.000000000000000D+00 0.387258942137702D+03
 0.326243281760393D+03 0.000000000000000D+00 0.000000000000000D+00 -.326243281760393D+03
 0.221603230088368D+03 -.117091515963621D+03 -.525716640398824D+02 0.155944019670576D+03
 0.826804082334930D+02 -.684338280030889D+01 0.575556216673792D+01 -.821954470858959D+02
 0.101216955437713D+03 -.606771288125821D+02 -.599654760700251D+02 -.544729270999504D+02
 0.161232382313776D+03 0.518760571430848D+02 0.120904730879359D+03 -.192756454847296D+02
 0.146769247824746D+03 0.132735970433427D+03 -.141231529361891D+02 0.610156603773091D+02
0.437166943153D-05 0.000000000000D+00 0.000000000000D+00 0.338257133525D-07 0.000000000000D+00  7 2 -2 23 -11 11 23 21 0 0.19577973D+00 0.91688588D-02 0.37566296D+05 0.37566296D+05 0.37566296D+05 0.11583803D+01  1  2  2  2  7  2       -2 0.669253336687D-03 0.100000000000D+01
-.206433371560D-06 0.000000000000D+00 -.167883617041D-07 0.338257133525D-07 0.000000000000D+00  7 2 -2 23 -11 11 23 21 2 0.19577973D+00 0.91688588D-02 0.37566296D+05 0.37566296D+05 0.37566296D+05 0.11583803D+01  1  2  3  2  7  2       -2 -.424058207173D-04 0.100000000000D+01
0.266048430745D-06 0.000000000000D+00 0.000000000000D+00 0.338257133525D-07 0.000000000000D+00  7 2 -2 23 -11 11 23 21 2 0.19577973D+00 0.91688588D-02 0.37566296D+05 0.37566296D+05 0.37566296D+05 0.11583803D+01  1  2 15  2  7  2       -2 0.546520263224D-04 0.100000000000D+01
-.769991144652D-06 0.000000000000D+00 0.000000000000D+00 0.338257133525D-07 0.000000000000D+00  7 2 -2 23 -11 11 23 21 2 0.19577973D+00 0.91688588D-02 0.37566296D+05 0.37566296D+05 0.37566296D+05 0.11583803D+01  1  2  4  2  7  2       -2 -.158172616120D-03 0.100000000000D+01
  </mgrwgt>
  </event>
  <event>
  8     66 0.29152272E-05 0.22716971E+03 0.75467711E-02 0.10126882E+00
        2 -1    0    0  501    0 0.00000000E+00 0.00000000E+00 0.19350916E+04 0.19350916E+04 0.32000000E+00 0.0000E+00 0.9000E+01
       -2 -1    0    0    0  501 0.00000000E+00 0.00000000E+00 -.37043802E+02 0.37045184E+02 0.32000000E+00 0.0000E+00 0.9000E+01
       25  2    1    2    0    0 -.11503228E+03 -.72379330E+02 0.15838445E+04 0.16178627E+04 0.30074084E+03 0.0000E+00 0.0000E+00
       23  2    3    3    0    0 0.46236577E+02 -.80024510E+02 0.83770227E+03 0.84902617E+03 0.10275508E+03 0.0000E+00 0.0000E+00
       23  1    1    2    0    0 0.11503228E+03 0.72379330E+02 0.31420323E+03 0.35427407E+03 0.91188000E+02 0.0000E+00 0.9000E+01
      -11  1    4    4    0    0 0.56289611E+02 -.56908740E+02 0.29288265E+03 0.30362374E+03 0.51099893E-03 0.0000E+00 0.9000E+01
       11  1    4    4    0    0 -.10053034E+02 -.23115770E+02 0.54481962E+03 0.54540244E+03 0.51099893E-03 0.0000E+00 0.9000E+01
       23  1    3    3    0    0 -.16126885E+03 0.76451803E+01 0.74614225E+03 0.76883653E+03 0.91188000E+02 0.0000E+00 0.9000E+01
#aMCatNLO 1  0  0  2  1 0.11269490D+03 0.00000000D+00  -5  7  0 0.00000000D+00 0.00000000D+00 0.00000000D+00 0.00000000D+00 0.00000000D+00
  <mgrwgt>
 0.4059126708D-03    4    2    0
 0.267739681809804D+03 0.000000000000000D+00 0.000000000000000D+00 0.267739681809804D+03
 0.267739681809804D+03 0.000000000000000D+00 0.000000000000000D+00 -.267739681809804D+03
 0.191051573208259D+03 0.115032277956660D+03 0.723793299183172D+02 -.985609451559181D+02
 0.800820262928224D+02 0.562896112541250D+02 -.569087400299743D+02 0.245069545733222D+01
 0.775278173828412D+02 -.100530337684287D+02 -.231157703122216D+02 0.733154836516177D+02
 0.186817946735685D+03 -.161268855442356D+03 0.764518042387876D+01 0.227947660469682D+02
 0.000000000000000D+00 -.000000000000000D+00 -.000000000000000D+00 0.000000000000000D+00
 0.368712249974902D+03 0.000000000000000D+00 0.000000000000000D+00 0.368712249974902D+03
 0.306988430274792D+03 0.000000000000000D+00 0.000000000000000D+00 -.306988430274792D+03
 0.222674924856308D+03 0.156474912234875D+03 0.840845571244969D+02 -.985609451559181D+02
 0.899813657916571D+02 0.733247177683078D+02 -.520972748395290D+02 0.245069545733222D+01
 0.758677530036943D+02 0.531247110777883D+01 -.187758742403106D+02 0.733154836516177D+02
 0.158685504783838D+03 -.126660066181413D+03 0.174202284797183D+02 0.227947660469682D+02
 0.128491131814196D+03 -.108452034929548D+03 -.306316365243756D+02 0.617238197001102D+02
0.360422427957D-05 0.000000000000D+00 0.000000000000D+00 0.127279982894D-08 0.000000000000D+00  7 2 -2 23 -11 11 23 21 0 0.29770650D+00 0.56991548D-02 0.51606078D+05 0.51606078D+05 0.51606078D+05 0.11460896D+01  1  2  2  2  7  2       -2 0.499631871691D-03 0.100000000000D+01
-.193661282158D-06 0.000000000000D+00 -.138411702476D-07 0.127279982894D-08 0.000000000000D+00  7 2 -2 23 -11 11 23 21 2 0.29770650D+00 0.56991548D-02 0.51606078D+05 0.51606078D+05 0.51606078D+05 0.11460896D+01  1  2  3  2  7  2       -2 -.352629191163D-04 0.100000000000D+01
0.234457683077D-06 0.000000000000D+00 0.000000000000D+00 0.127279982894D-08 0.000000000000D+00  7 2 -2 23 -11 11 23 21 2 0.29770650D+00 0.56991548D-02 0.51606078D+05 0.51606078D+05 0.51606078D+05 0.11460896D+01  1  2 15  2  7  2       -2 0.426913538029D-04 0.100000000000D+01
-.555495156805D-06 0.000000000000D+00 0.000000000000D+00 0.127279982894D-08 0.000000000000D+00  7 2 -2 23 -11 11 23 21 2 0.29770650D+00 0.56991548D-02 0.51606078D+05 0.51606078D+05 0.51606078D+05 0.11460896D+01  1  2  4  2  7  2       -2 -.101147635529D-03 0.100000000000D+01
  </mgrwgt>
  </event>
  <event>
  8     66 0.29152272E-05 0.19509067E+03 0.75467711E-02 0.95389346E-01
        2 -1    0    0  501    0 0.00000000E+00 0.00000000E+00 0.26768513E+03 0.26768532E+03 0.32000000E+00 0.0000E+00 0.9000E+01
       -2 -1    0    0    0  501 0.00000000E+00 0.00000000E+00 -.61065566E+03 0.61065575E+03 0.32000000E+00 0.0000E+00 0.9000E+01
       25  2    1    2    0    0 0.12218728E+02 0.26729623E+03 0.38765162E+02 0.40333164E+03 0.29929433E+03 0.0000E+00 0.0000E+00
       23  2    3    3    0    0 -.81110311E+02 0.23306664E+03 0.52327087E+02 0.26775453E+03 0.89752013E+02 0.0000E+00 0.0000E+00
       23  1    1    2    0    0 -.12218728E+02 -.26729623E+03 -.38173569E+03 0.47500944E+03 0.91188000E+02 0.0000E+00 0.9000E+01
      -13  1    4    4    0    0 0.15752213E+02 0.35169445E+02 -.79063777E+01 0.39338837E+02 0.10565837E+00 0.0000E+00 0.9000E+01
       13  1    4    4    0    0 -.96862524E+02 0.19789719E+03 0.60233465E+02 0.22841569E+03 0.10565837E+00 0.0000E+00 0.9000E+01
       23  1    3    3    0    0 0.93329040E+02 0.34229595E+02 -.13561925E+02 0.13557711E+03 0.91188000E+02 0.0000E+00 0.9000E+01
#aMCatNLO 1  0  0  2  1 0.22888833D+03 0.00000000D+00  -5  7  0 0.00000000D+00 0.00000000D+00 0.00000000D+00 0.00000000D+00 0.00000000D+00
  <mgrwgt>
 0.8106129194D-03    8    2    0
 0.404306274803187D+03 0.000000000000000D+00 0.000000000000000D+00 0.404306274803187D+03
 0.404306274803187D+03 0.000000000000000D+00 0.000000000000000D+00 -.404306274803187D+03
 0.354058571839598D+03 -.122187283042993D+02 -.267296233175844D+03 -.213179847447468D+03
 0.393773245029736D+02 0.157523686234120D+02 0.351692198005968D+02 0.809707023446983D+01
 0.273660668616852D+03 -.968626799612561D+02 0.197897418015123D+03 0.162309564479403D+03
 0.141515984646951D+03 0.933290396421434D+02 0.342295953601245D+02 0.427732127335954D+02
 0.000000000000000D+00 -.000000000000000D+00 -.000000000000000D+00 -.000000000000000D+00
 0.463738929693745D+03 0.000000000000000D+00 0.000000000000000D+00 0.463738929693745D+03
 0.720956011815044D+03 0.000000000000000D+00 0.000000000000000D+00 -.720956011815044D+03
 0.337712810992895D+03 0.774676387927562D+02 -.232997444077982D+03 -.213179847447468D+03
 0.486451962651934D+02 0.271642603355235D+02 0.395334735853195D+02 0.809707023446983D+01
 0.278812987106796D+03 -.252359022015271D+02 0.225289671973652D+03 0.162309564479403D+03
 0.175212324038804D+03 0.134392044079403D+03 0.499333346741947D+02 0.427732127335954D+02
 0.344311623105101D+03 -.213788041006156D+03 -.817590361551843D+02 -.257217082121298D+03
0.295121015909D-04 0.000000000000D+00 0.000000000000D+00 0.197515005942D-06 0.000000000000D+00  7 2 -2 23 -13 13 23 21 0 0.41182349D-01 0.93947047D-01 0.11439641D+06 0.11439641D+06 0.11439641D+06 0.11169599D+01  1  2  2  2  7  2       -2 0.440357837354D-03 0.100000000000D+01
-.157607316492D-05 0.000000000000D+00 -.113334240824D-06 0.197515005942D-06 0.000000000000D+00  7 2 -2 23 -13 13 23 21 2 0.41182349D-01 0.93947047D-01 0.11439641D+06 0.11439641D+06 0.11439641D+06 0.11169599D+01  1  2  3  2  7  2       -2 -.293397997529D-04 0.100000000000D+01
0.186638538829D-05 0.000000000000D+00 0.000000000000D+00 0.197515005942D-06 0.000000000000D+00  7 2 -2 23 -13 13 23 21 2 0.41182349D-01 0.93947047D-01 0.11439641D+06 0.11439641D+06 0.11439641D+06 0.11169599D+01  1  2 15  2  7  2       -2 0.347441824230D-04 0.100000000000D+01
0.580046121564D-05 0.000000000000D+00 0.000000000000D+00 0.197515005942D-06 0.000000000000D+00  7 2 -2 23 -13 13 23 21 2 0.41182349D-01 0.16975906D+00 0.21873813D+06 0.21873813D+06 0.21873813D+06 0.10948506D+01  1  2 12  2  7  2       -2 0.219433027085D-04 0.100000000000D+01
-.205722652226D-04 0.000000000000D+00 -.891616730706D-05 0.197515005942D-06 0.000000000000D+00  7 2 -2 23 -13 13 23 21 2 0.41182349D-01 0.18049614D+00 0.11439641D+06 0.11439641D+06 0.11439641D+06 0.11169599D+01  1  2  5  2  7  2       -2 -.692850392927D-04 0.100000000000D+01
0.229404489439D-04 0.000000000000D+00 0.730310369313D-05 0.197515005942D-06 0.000000000000D+00  7 2 -2 23 -13 13 23 21 2 0.41182349D-01 0.93947047D-01 0.11439641D+06 0.11439641D+06 0.11439641D+06 0.11169599D+01  1  2  6  2  7  2       -2 0.427053891428D-03 0.100000000000D+01
0.376066888780D-06 0.000000000000D+00 0.000000000000D+00 0.197515005942D-06 0.000000000000D+00  7 2 21 23 -13 13 23 2 2 0.41182349D-01 0.16975906D+00 0.21873813D+06 0.21873813D+06 0.21873813D+06 0.10948506D+01  1  2 12  4  7  2       -2 0.118915340346D-04 0.100000000000D+01
-.942388803450D-06 0.000000000000D+00 -.631810905735D-06 0.197515005942D-06 0.000000000000D+00  7 2 21 23 -13 13 23 2 2 0.41182349D-01 0.18049614D+00 0.11439641D+06 0.11439641D+06 0.11439641D+06 0.11169599D+01  1  2  5  4  7  2       -2 -.267529895386D-04 0.100000000000D+01
  </mgrwgt>
  </event>
  <event>
  8     66 0.29152272E-05 0.19691682E+03 0.75467711E-02 0.91044829E-01
        2 -1    0    0  501    0 0.00000000E+00 0.00000000E+00 0.23290128E+04 0.23290128E+04 0.32000000E+00 0.0000E+00 0.9000E+01
       -2 -1    0    0    0  501 0.00000000E+00 0.00000000E+00 -.21199567E+02 0.21201982E+02 0.32000000E+00 0.0000E+00 0.9000E+01
       25  2    1    2    0    0 -.43551714E+01 0.61111513E+02 0.20045151E+04 0.20276337E+04 0.29910516E+03 0.0000E+00 0.0000E+00
       23  2    3    3    0    0 0.37033017E+02 0.14379960E+03 0.12163285E+04 0.12288198E+04 0.92158478E+02 0.0000E+00 0.0000E+00
       23  1    1    2    0    0 0.43551714E+01 -.61111513E+02 0.30329815E+03 0.32258116E+03 0.91188000E+02 0.0000E+00 0.9000E+01
      -13  1    4    4    0    0 -.86081408E+01 0.13163083E+02 0.25377015E+02 0.29855835E+02 0.10565837E+00 0.0000E+00 0.9000E+01
       13  1    4    4    0    0 0.45641158E+02 0.13063652E+03 0.11909515E+04 0.11989639E+04 0.10565837E+00 0.0000E+00 0.9000E+01
       23  1    3    3    0    0 -.41388189E+02 -.82688085E+02 0.78818660E+03 0.79881392E+03 0.91188000E+02 0.0000E+00 0.9000E+01
#aMCatNLO 1  0  0  1  2 0.63909404D+03 0.00000000D+00  -5  7  0 0.00000000D+00 0.00000000D+00 0.00000000D+00 0.00000000D+00 0.00000000D+00
  <mgrwgt>
 0.1509736475D-02    3    2    0
 0.222209196300989D+03 0.000000000000000D+00 0.000000000000000D+00 0.222209196300989D+03
 0.222209196300989D+03 0.000000000000000D+00 0.000000000000000D+00 -.222209196300989D+03
 0.130911626019149D+03 0.435517197086978D+01 -.611115216592331D+02 -.711970285937177D+02
 0.261063391819437D+02 -.860821127441399D+01 0.131629285793139D+02 -.208369132875679D+02
 0.155999882593837D+03 0.456412264889685D+02 0.130636669726465D+03 0.720201522953971D+02
 0.131400544807048D+03 -.413881871854242D+02 -.826880766465460D+02 0.200137895858885D+02
 0.000000000000000D+00 0.000000000000000D+00 -.000000000000000D+00 -.000000000000000D+00
 0.470083801292853D+03 0.000000000000000D+00 0.000000000000000D+00 0.470083801292853D+03
 0.165185783497889D+04 0.000000000000000D+00 0.000000000000000D+00 -.165185783497889D+04
 0.152402106510334D+03 -.769151813899578D+02 0.626593066987063D+02 -.711970285937177D+02
 0.683441929892924D+02 -.357019495699121D+02 0.544253852252005D+02 -.208369132875679D+02
 0.394253574712729D+03 -.112202491547777D+03 0.371025039219167D+03 0.720201522953971D+02
 0.163427320075681D+03 -.125961442938723D+03 0.461129127503960D+02 0.200137895858885D+02
 0.134351444198370D+04 0.350781065446370D+03 -.534222643893470D+03 -.118177403368604D+04
0.768301483118D-05 0.000000000000D+00 0.000000000000D+00 0.567291362260D-07 0.000000000000D+00  7 2 -2 23 -13 13 23 21 0 0.35830985D+00 0.32616593D-02 0.38776234D+05 0.38776234D+05 0.38776234D+05 0.11571350D+01  1  2  2  1  7  1        2 0.149465114084D-02 0.100000000000D+01
-.419256294495D-06 0.000000000000D+00 -.295047999360D-07 0.567291362260D-07 0.000000000000D+00  7 2 -2 23 -13 13 23 21 2 0.35830985D+00 0.32616593D-02 0.38776234D+05 0.38776234D+05 0.38776234D+05 0.11571350D+01  1  2  3  1  7  1        2 -.109208343795D-03 0.100000000000D+01
0.477169645453D-06 0.000000000000D+00 0.000000000000D+00 0.567291362260D-07 0.000000000000D+00  7 2 -2 23 -13 13 23 21 2 0.35830985D+00 0.32616593D-02 0.38776234D+05 0.38776234D+05 0.38776234D+05 0.11571350D+01  1  2 15  1  7  1        2 0.124293677575D-03 0.100000000000D+01
  </mgrwgt>
  </event>
  <event>
  8     66 0.29152272E-05 0.14413846E+03 0.75467711E-02 0.10581227E+00
        4 -1    0    0  501    0 0.00000000E+00 0.00000000E+00 0.63410382E+03 0.63410572E+03 0.15500000E+01 0.0000E+00 0.9000E+01
       -4 -1    0    0    0  501 0.00000000E+00 0.00000000E+00 -.67027412E+02 0.67045331E+02 0.15500000E+01 0.0000E+00 0.9000E+01
       25  2    1    2    0    0 -.46256344E+02 0.22474864E+02 0.38240248E+03 0.48886709E+03 0.30019094E+03 0.0000E+00 0.0000E+00
       23  2    3    3    0    0 0.35244545E+02 0.10936362E+03 0.12688814E+03 0.19256507E+03 0.88193706E+02 0.0000E+00 0.0000E+00
       23  1    1    2    0    0 0.46256344E+02 -.22474864E+02 0.18467393E+03 0.21228396E+03 0.91188000E+02 0.0000E+00 0.9000E+01
      -11  1    4    4    0    0 -.14001888E+02 0.91074951E+02 0.85252992E+02 0.12553395E+03 0.51099893E-03 0.0000E+00 0.9000E+01
       11  1    4    4    0    0 0.49246434E+02 0.18288667E+02 0.41635144E+02 0.67031126E+02 0.51099893E-03 0.0000E+00 0.9000E+01
       23  1    3    3    0    0 -.81500889E+02 -.86888755E+02 0.25551435E+03 0.29630201E+03 0.91188000E+02 0.0000E+00 0.9000E+01
#aMCatNLO 1  0  0  1  2 0.14872974D+02 0.00000000D+00  -5  7  0 0.00000000D+00 0.00000000D+00 0.00000000D+00 0.00000000D+00 0.00000000D+00
  <mgrwgt>
 0.2214590171D-04    9    2    0
 0.206177797697298D+03 0.000000000000000D+00 0.000000000000000D+00 0.206177797697298D+03
 0.206177797697298D+03 0.000000000000000D+00 0.000000000000000D+00 -.206177797697298D+03
 0.106992348042428D+03 0.462563445540713D+02 -.224748639962536D+02 0.220758300518211D+02
 0.962113754297300D+02 -.140018885710182D+02 0.910749512131592D+02 -.276754248394839D+02
 0.567195790641897D+02 0.492464333318718D+02 0.182886671979215D+02 -.213874754338149D+02
 0.152432292858248D+03 -.815008893149250D+02 -.868887544148271D+02 0.269870702214777D+02
 0.000000000000000D+00 0.000000000000000D+00 -.000000000000000D+00 0.000000000000000D+00
 0.239391045134692D+03 0.000000000000000D+00 0.000000000000000D+00 0.239391045134692D+03
 0.207983651672071D+03 0.000000000000000D+00 0.000000000000000D+00 -.207983651672071D+03
 0.106098922556771D+03 0.458973326281149D+02 -.186500029183641D+02 0.220758300518211D+02
 0.995916774486207D+02 -.143317736522997D+02 0.945894991051513D+02 -.276754248394839D+02
 0.572472229973542D+02 0.490544243350314D+02 0.203343032493233D+02 -.213874754338149D+02
 0.149685906800559D+03 -.820098920367211D+02 -.814659131151922D+02 0.269870702214777D+02
 0.347509670034576D+02 0.138990872587457D+01 -.148078863209183D+02 0.314073934626211D+02
0.174915876223D-05 0.000000000000D+00 0.000000000000D+00 0.124762989025D-07 0.000000000000D+00  7 4 -4 23 -11 11 23 21 0 0.97555959D-01 0.10313434D-01 0.39878525D+05 0.39878525D+05 0.39878525D+05 0.11560373D+01  1  2  2  1  7  1        4 0.234299058046D-04 0.100000000000D+01
-.970549360773D-07 0.000000000000D+00 -.671723021104D-08 0.124762989025D-07 0.000000000000D+00  7 4 -4 23 -11 11 23 21 2 0.97555959D-01 0.10313434D-01 0.39878525D+05 0.39878525D+05 0.39878525D+05 0.11560373D+01  1  2  3  1  7  1        4 -.173741123681D-05 0.100000000000D+01
0.113644616448D-06 0.000000000000D+00 0.000000000000D+00 0.124762989025D-07 0.000000000000D+00  7 4 -4 23 -11 11 23 21 2 0.97555959D-01 0.10313434D-01 0.39878525D+05 0.39878525D+05 0.39878525D+05 0.11560373D+01  1  2 15  1  7  1        4 0.203438837425D-05 0.100000000000D+01
0.145771134307D-04 0.000000000000D+00 0.000000000000D+00 0.124762989025D-07 0.000000000000D+00  7 4 -4 23 -11 11 23 21 2 0.11365505D+00 0.10313434D-01 0.42984475D+05 0.42984475D+05 0.42984475D+05 0.11531158D+01  1  2 12  1  7  1        4 0.170002623743D-03 0.100000000000D+01
-.146837024129D-04 0.000000000000D+00 0.000000000000D+00 0.124762989025D-07 0.000000000000D+00  7 4 -4 23 -11 11 23 21 2 0.97555959D-01 0.10313434D-01 0.39878525D+05 0.39878525D+05 0.39878525D+05 0.11560373D+01  1  2  4  1  7  1        4 -.262857620655D-03 0.100000000000D+01
-.188972992270D-04 0.000000000000D+00 -.156534010819D-05 0.124762989025D-07 0.000000000000D+00  7 4 -4 23 -11 11 23 21 2 0.11374557D+00 0.10313434D-01 0.39878525D+05 0.39878525D+05 0.39878525D+05 0.11560373D+01  1  2  5  1  7  1        4 -.220210418807D-03 0.100000000000D+01
0.189323163663D-04 0.000000000000D+00 0.154706902290D-05 0.124762989025D-07 0.000000000000D+00  7 4 -4 23 -11 11 23 21 2 0.97555959D-01 0.10313434D-01 0.39878525D+05 0.39878525D+05 0.39878525D+05 0.11560373D+01  1  2  6  1  7  1        4 0.338913408458D-03 0.100000000000D+01
0.337421710940D-06 0.000000000000D+00 0.000000000000D+00 0.124762989025D-07 0.000000000000D+00  7 21 -4 23 -11 11 23 -4 2 0.11365505D+00 0.10313434D-01 0.42984475D+05 0.42984475D+05 0.42984475D+05 0.11531158D+01  1  2 12  3  7  1        4 0.100277511435D-03 0.100000000000D+01
-.427932197374D-06 0.000000000000D+00 -.363857235600D-07 0.124762989025D-07 0.000000000000D+00  7 21 -4 23 -11 11 23 -4 2 0.11374557D+00 0.10313434D-01 0.39878525D+05 0.39878525D+05 0.39878525D+05 0.11560373D+01  1  2  5  3  7  1        4 -.127706485406D-03 0.100000000000D+01
  </mgrwgt>
  </event>
  <event>
  8     66 0.29152272E-05 0.61746306E+03 0.75467711E-02 0.89816742E-01
        2 -1    0    0  501    0 0.00000000E+00 0.00000000E+00 0.22991193E+04 0.22991193E+04 0.32000000E+00 0.0000E+00 0.9000E+01
       -2 -1    0    0    0  501 0.00000000E+00 0.00000000E+00 -.46255267E+03 0.46255278E+03 0.32000000E+00 0.0000E+00 0.9000E+01
       25  2    1    2    0    0 -.61548216E+03 0.42781587E+03 0.18369353E+04 0.20065826E+04 0.30032948E+03 0.0000E+00 0.0000E+00
       23  2    3    3    0    0 -.23546053E+03 0.30620474E+03 0.84785283E+03 0.93615976E+03 0.91310870E+02 0.0000E+00 0.0000E+00
       23  1    1    2    0    0 0.61548216E+03 -.42781587E+03 -.36869964E+00 0.75508946E+03 0.91188000E+02 0.0000E+00 0.9000E+01
      -13  1    4    4    0    0 0.22199153E+01 0.26304323E+02 0.32023702E+02 0.41501495E+02 0.10565837E+00 0.0000E+00 0.9000E+01
       13  1    4    4    0    0 -.23768045E+03 0.27990041E+03 0.81582912E+03 0.89465826E+03 0.10565837E+00 0.0000E+00 0.9000E+01
       23  1    3    3    0    0 -.38002163E+03 0.12161113E+03 0.98908251E+03 0.10704229E+04 0.91188000E+02 0.0000E+00 0.9000E+01
#aMCatNLO 1  0  0  1  2 0.59185291D+01 0.00000000D+00  -5  7  0 0.00000000D+00 0.00000000D+00 0.00000000D+00 0.00000000D+00 0.00000000D+00
  <mgrwgt>
 0.8308641128D-03   10    2    0
 0.103124388608535D+04 0.000000000000000D+00 0.000000000000000D+00 0.103124388608535D+04
 0.103124388608535D+04 0.000000000000000D+00 0.000000000000000D+00 -.103124388608535D+04
 0.101139345430181D+04 0.615482156981549D+03 -.427815866881740D+03 -.672872028354662D+03
 0.270540422587005D+02 0.222023653409453D+01 0.263039836340771D+02 0.592386674786273D+01
 0.471483738334769D+03 -.237680766553682D+03 0.279900752839126D+03 0.295736939330672D+03
 0.552556537275413D+03 -.380021626961961D+03 0.121611130408537D+03 0.371211222276127D+03
 0.000000000000000D+00 -.000000000000000D+00 -.000000000000000D+00 0.000000000000000D+00
 0.103461575373697D+04 0.000000000000000D+00 0.000000000000000D+00 0.103461575373697D+04
 0.103384855675299D+04 0.000000000000000D+00 0.000000000000000D+00 -.103384855675299D+04
 0.101196100901262D+04 0.617705650919661D+03 -.425949286532612D+03 -.672872028354662D+03
 0.271075652417936D+02 0.227975552008500D+01 0.263539486768170D+02 0.592386674786273D+01
 0.471479724607579D+03 -.236644530154312D+03 0.280770653344345D+03 0.295736939330672D+03
 0.551947965217140D+03 -.378807870741567D+03 0.122630055385477D+03 0.371211222276127D+03
 0.596804641083184D+01 -.453300554386663D+01 -.380537087402713D+01 0.767196983976857D+00
0.188236484255D-03 0.000000000000D+00 0.000000000000D+00 0.593466177052D-05 0.000000000000D+00  7 2 -2 23 -13 13 23 21 0 0.35371067D+00 0.71161959D-01 0.60682630D+06 0.60682630D+06 0.60682630D+06 0.10626173D+01  1  2  2  1  7  1        2 0.194282491346D-03 0.100000000000D+01
-.945701382909D-05 0.000000000000D+00 -.722877663346D-06 0.593466177052D-05 0.000000000000D+00  7 2 -2 23 -13 13 23 21 2 0.35371067D+00 0.71161959D-01 0.60682630D+06 0.60682630D+06 0.60682630D+06 0.10626173D+01  1  2  3  1  7  1        2 -.110214230592D-04 0.100000000000D+01
0.120184572883D-04 0.000000000000D+00 0.000000000000D+00 0.593466177052D-05 0.000000000000D+00  7 2 -2 23 -13 13 23 21 2 0.35371067D+00 0.71161959D-01 0.60682630D+06 0.60682630D+06 0.60682630D+06 0.10626173D+01  1  2 15  1  7  1        2 0.140065886216D-04 0.100000000000D+01
-.113893059860D-02 0.000000000000D+00 0.000000000000D+00 0.593466177052D-05 0.000000000000D+00  7 2 -2 23 -13 13 23 21 2 0.35371067D+00 0.71161959D-01 0.60682630D+06 0.60682630D+06 0.60682630D+06 0.10626173D+01  1  2  4  1  7  1        2 -.132733611149D-02 0.100000000000D+01
-.414971064192D-01 0.000000000000D+00 -.386249484814D-02 0.593466177052D-05 0.000000000000D+00  7 2 -2 23 -13 13 23 21 2 0.35527162D+00 0.71161959D-01 0.60682630D+06 0.60682630D+06 0.60682630D+06 0.10626173D+01  1  2  5  1  7  1        2 -.477213628511D-01 0.100000000000D+01
0.415137493854D-01 0.000000000000D+00 0.386245740222D-02 0.593466177052D-05 0.000000000000D+00  7 2 -2 23 -13 13 23 21 2 0.35371067D+00 0.71161959D-01 0.60682630D+06 0.60682630D+06 0.60682630D+06 0.10626173D+01  1  2  6  1  7  1        2 0.483810855116D-01 0.100000000000D+01
0.113893812013D-02 0.000000000000D+00 0.000000000000D+00 0.593466177052D-05 0.101985200449D-05  7 2 -2 23 -13 13 23 21 2 0.35486720D+00 0.71341697D-01 0.61143597D+06 0.61143597D+06 0.61143597D+06 0.10623890D+01  1  2 11  1  7  1        2 0.130583946466D-02 0.100000000000D+01
0.360068548261D-05 0.000000000000D+00 0.000000000000D+00 0.593466177052D-05 0.000000000000D+00  7 21 -2 23 -13 13 23 -2 2 0.35531260D+00 0.71161959D-01 0.61143597D+06 0.61143597D+06 0.61143597D+06 0.10623890D+01  1  2 12  3  7  1        2 0.568790737910D-06 0.100000000000D+01
-.340082028630D-04 0.000000000000D+00 -.316803749639D-05 0.593466177052D-05 0.000000000000D+00  7 21 -2 23 -13 13 23 -2 2 0.35527162D+00 0.71161959D-01 0.60682630D+06 0.60682630D+06 0.60682630D+06 0.10626173D+01  1  2  5  3  7  1        2 -.538276043196D-05 0.100000000000D+01
0.116584363476D-05 0.000000000000D+00 0.000000000000D+00 0.593466177052D-05 0.621652645859D-09  7 21 -2 23 -13 13 23 -2 2 0.35486720D+00 0.71341697D-01 0.61143597D+06 0.61143597D+06 0.61143597D+06 0.10623890D+01  1  2 11  3  7  1        2 0.184411910065D-06 0.100000000000D+01
  </mgrwgt>
  </event>
  <event>
  8     66 0.29152272E-05 0.21782645E+03 0.75467711E-02 0.98844829E-01
        2 -1    0    0  501    0 0.00000000E+00 0.00000000E+00 0.11228726E+04 0.11228727E+04 0.32000000E+00 0.0000E+00 0.9000E+01
       -2 -1    0    0    0  501 0.00000000E+00 0.00000000E+00 -.58778015E+02 0.58778886E+02 0.32000000E+00 0.0000E+00 0.9000E+01
       25  2    1    2    0    0 0.12905948E+03 0.49323227E+01 0.88233407E+03 0.94075153E+03 0.29969877E+03 0.0000E+00 0.0000E+00
       23  2    3    3    0    0 -.46925807E+02 -.33423273E+02 0.41457375E+03 0.43128422E+03 0.10399777E+03 0.0000E+00 0.0000E+00
       23  1    1    2    0    0 -.12905948E+03 -.49323227E+01 0.18176053E+03 0.24090002E+03 0.91188000E+02 0.0000E+00 0.9000E+01
      -11  1    4    4    0    0 -.49669245E+02 -.43005726E+02 0.12221239E+03 0.13875300E+03 0.51099893E-03 0.0000E+00 0.9000E+01
       11  1    4    4    0    0 0.27434386E+01 0.95824531E+01 0.29236136E+03 0.29253122E+03 0.51099893E-03 0.0000E+00 0.9000E+01
       23  1    3    3    0    0 0.17598528E+03 0.38355596E+02 0.46776032E+03 0.50946731E+03 0.91188000E+02 0.0000E+00 0.9000E+01
#aMCatNLO 1  0  0  2  2 0.20952517D+03 0.00000000D+00  -5  7  0 0.00000000D+00 0.00000000D+00 0.00000000D+00 0.00000000D+00 0.00000000D+00
  <mgrwgt>
 0.4058689605D-03    3    2    0
 0.256906139244274D+03 0.000000000000000D+00 0.000000000000000D+00 0.256906139244274D+03
 0.256906139244274D+03 0.000000000000000D+00 0.000000000000000D+00 -.256906139244274D+03
 0.177593028918390D+03 -.129059477785130D+03 -.493232271883898D+01 -.808910128681467D+02
 0.660010522979284D+02 -.496692454318349D+02 -.430057257998048D+02 -.629384708251126D+01
 0.672810369730099D+02 0.274343758549481D+01 0.958245249161460D+01 0.665386210454047D+02
 0.202937160299221D+03 0.175985285631470D+03 0.383555960270291D+02 0.206462389052533D+02
 0.000000000000000D+00 0.000000000000000D+00 0.000000000000000D+00 0.000000000000000D+00
 0.407215349763069D+03 0.000000000000000D+00 0.000000000000000D+00 0.407215349763069D+03
 0.362019713891037D+03 0.000000000000000D+00 0.000000000000000D+00 -.362019713891037D+03
 0.240574524231730D+03 -.203762383186429D+03 -.387089860455589D+02 -.808910128681467D+02
 0.969584318394991D+02 -.787808941861622D+02 -.561684582742439D+02 -.629384708251126D+01
 0.700307963135943D+02 -.217864256600300D+02 -.150864132654047D+01 0.665386210454047D+02
 0.147327096664226D+03 0.113412861118172D+03 0.100636881692454D+02 0.206462389052533D+02
 0.214344214605056D+03 0.190916841914450D+03 0.863223974770979D+02 0.451956358720326D+02
0.211046986896D-05 0.000000000000D+00 0.000000000000D+00 0.180757399003D-08 0.000000000000D+00  7 2 -2 23 -11 11 23 21 0 0.17274970D+00 0.90428420D-02 0.47448364D+05 0.47448364D+05 0.47448364D+05 0.11493017D+01  1  2  2  2  7  2       -2 0.400150654136D-03 0.100000000000D+01
-.113366644011D-06 0.000000000000D+00 -.810475999628D-08 0.180757399003D-08 0.000000000000D+00  7 2 -2 23 -11 11 23 21 2 0.17274970D+00 0.90428420D-02 0.47448364D+05 0.47448364D+05 0.47448364D+05 0.11493017D+01  1  2  3  2  7  2       -2 -.283921186291D-04 0.100000000000D+01
0.136199220033D-06 0.000000000000D+00 0.000000000000D+00 0.180757399003D-08 0.000000000000D+00  7 2 -2 23 -11 11 23 21 2 0.17274970D+00 0.90428420D-02 0.47448364D+05 0.47448364D+05 0.47448364D+05 0.11493017D+01  1  2 15  2  7  2       -2 0.341104250382D-04 0.100000000000D+01
  </mgrwgt>
  </event>
  <event>
  8     66 0.29152272E-05 0.13161893E+04 0.75467711E-02 0.84754019E-01
        2 -1    0    0  501    0 0.00000000E+00 0.00000000E+00 0.18655542E+04 0.18655542E+04 0.32000000E+00 0.0000E+00 0.9000E+01
       -2 -1    0    0    0  501 0.00000000E+00 0.00000000E+00 -.14366695E+04 0.14366696E+04 0.32000000E+00 0.0000E+00 0.9000E+01
       25  2    1    2    0    0 0.89077820E+03 -.95529917E+03 0.11860674E+04 0.17897016E+04 0.30032208E+03 0.0000E+00 0.0000E+00
       23  2    3    3    0    0 0.72914642E+03 -.78025525E+03 0.85096714E+03 0.13685452E+04 0.91203803E+02 0.0000E+00 0.0000E+00
       23  1    1    2    0    0 -.89077820E+03 0.95529917E+03 -.75718282E+03 0.15125222E+04 0.91188000E+02 0.0000E+00 0.9000E+01
      -13  1    4    4    0    0 0.22782551E+03 -.24350966E+03 0.21288186E+03 0.39562623E+03 0.10565837E+00 0.0000E+00 0.9000E+01
       13  1    4    4    0    0 0.50132092E+03 -.53674559E+03 0.63808528E+03 0.97291897E+03 0.10565837E+00 0.0000E+00 0.9000E+01
       23  1    3    3    0    0 0.16163178E+03 -.17504392E+03 0.33510030E+03 0.42115635E+03 0.91188000E+02 0.0000E+00 0.9000E+01
#aMCatNLO 1  0  0  2  2 0.15573464D+02 0.00000000D+00  -5  7  0 0.00000000D+00 0.00000000D+00 0.00000000D+00 0.00000000D+00 0.00000000D+00
  <mgrwgt>
 0.2665716640D-03    4    2    0
 0.163712703010663D+04 0.000000000000000D+00 0.000000000000000D+00 0.163712703010663D+04
 0.163712703010663D+04 0.000000000000000D+00 0.000000000000000D+00 -.163712703010663D+04
 0.162462370899310D+04 -.890778200272213D+03 0.955299174450966D+03 -.961771609942604D+03
 0.371120332685436D+03 0.227825139144819D+03 -.243509267329387D+03 0.162878003520726D+03
 0.897649793968115D+03 0.501321283019508D+03 -.536745983856435D+03 0.516096766717892D+03
 0.380860224566616D+03 0.161631778107886D+03 -.175043923265145D+03 0.282796839703986D+03
 0.000000000000000D+00 0.000000000000000D+00 -.000000000000000D+00 0.000000000000000D+00
 0.167120981277002D+04 0.000000000000000D+00 0.000000000000000D+00 0.167120981277002D+04
 0.163892551318287D+04 0.000000000000000D+00 0.000000000000000D+00 -.163892551318287D+04
 0.163084235342201D+04 -.896404079829047D+03 0.960617835741818D+03 -.961771609942604D+03
 0.369541424083698D+03 0.226545176842634D+03 -.242299201262097D+03 0.162878003520726D+03
 0.894173395887478D+03 0.498224773561261D+03 -.533818568716107D+03 0.516096766717892D+03
 0.379733922954116D+03 0.160317369975979D+03 -.173801292387443D+03 0.282796839703986D+03
 0.358442296055819D+02 0.113167594491733D+02 -.106987733761712D+02 0.322842995871453D+02
0.338892221314D-02 0.000000000000D+00 0.000000000000D+00 0.130797636187D-04 0.000000000000D+00  7 2 -2 23 -13 13 23 21 0 0.28700834D+00 0.22102609D+00 0.17323544D+07 0.17323544D+07 0.17323544D+07 0.10323387D+01  1  2  2  2  7  2       -2 0.275078795128D-03 0.100000000000D+01
-.177374401751D-03 0.000000000000D+00 -.130143536222D-04 0.130797636187D-04 0.000000000000D+00  7 2 -2 23 -13 13 23 21 2 0.28700834D+00 0.22102609D+00 0.17323544D+07 0.17323544D+07 0.17323544D+07 0.10323387D+01  1  2  3  2  7  2       -2 -.153437271717D-04 0.100000000000D+01
0.212935767056D-03 0.000000000000D+00 0.000000000000D+00 0.130797636187D-04 0.000000000000D+00  7 2 -2 23 -13 13 23 21 2 0.28700834D+00 0.22102609D+00 0.17323544D+07 0.17323544D+07 0.17323544D+07 0.10323387D+01  1  2 15  2  7  2       -2 0.184199539649D-04 0.100000000000D+01
-.133904308957D-03 0.000000000000D+00 0.000000000000D+00 0.130797636187D-04 0.000000000000D+00  7 2 -2 23 -13 13 23 21 2 0.28700834D+00 0.22102609D+00 0.17323544D+07 0.17323544D+07 0.17323544D+07 0.10323387D+01  1  2  4  2  7  2       -2 -.115833579337D-04 0.100000000000D+01
  </mgrwgt>
  </event>
  <event>
  8     66 0.29152272E-05 0.21710241E+03 0.75467711E-02 0.94062268E-01
        2 -1    0    0  501    0 0.00000000E+00 0.00000000E+00 0.97612691E+03 0.97612696E+03 0.32000000E+00 0.0000E+00 0.9000E+01
       -2 -1    0    0    0  501 0.00000000E+00 0.00000000E+00 -.78910110E+02 0.78910759E+02 0.32000000E+00 0.0000E+00 0.9000E+01
       25  2    1    2    0    0 -.91355421E+02 0.67041120E+02 0.29549989E+03 0.43599102E+03 0.29987941E+03 0.0000E+00 0.0000E+00
       23  2    3    3    0    0 -.15626405E+03 0.37159971E+00 0.22220866E+03 0.28650921E+03 0.91061790E+02 0.0000E+00 0.0000E+00
       23  1    1    2    0    0 0.91355421E+02 -.67041120E+02 0.60171691E+03 0.61904670E+03 0.91188000E+02 0.0000E+00 0.9000E+01
      -13  1    4    4    0    0 -.12428754E+02 0.74037972E+01 0.89554336E+02 0.90715381E+02 0.10565837E+00 0.0000E+00 0.9000E+01
       13  1    4    4    0    0 -.14383530E+03 -.70321974E+01 0.13265433E+03 0.19579383E+03 0.10565837E+00 0.0000E+00 0.9000E+01
       23  1    3    3    0    0 0.64908628E+02 0.66669521E+02 0.73291227E+02 0.14948181E+03 0.91188000E+02 0.0000E+00 0.9000E+01
#aMCatNLO 1  0  0  1  2 0.45198431D+03 0.00000000D+00  -5  7  0 0.00000000D+00 0.00000000D+00 0.00000000D+00 0.00000000D+00 0.00000000D+00
  <mgrwgt>
 0.4427372796D-03    5    2    0
 0.277536757398915D+03 0.000000000000000D+00 0.000000000000000D+00 0.277536757398915D+03
 0.277536757398915D+03 0.000000000000000D+00 0.000000000000000D+00 -.277536757398915D+03
 0.204021802176238D+03 0.913554216199586D+02 -.670411206605175D+02 0.143071029563855D+03
 0.276691223422458D+02 -.124285771826674D+02 0.740381652007284D+01 0.235858919980089D+02
 0.157727373034567D+03 -.143835472041845D+03 -.703221672741611D+01 -.643415038274962D+02
 0.165655217244779D+03 0.649086276045542D+02 0.666695208678608D+02 -.102315417734368D+03
 0.000000000000000D+00 0.000000000000000D+00 -.000000000000000D+00 0.000000000000000D+00
 0.125323964031310D+04 0.000000000000000D+00 0.000000000000000D+00 0.125323964031310D+04
 0.414952500611093D+03 0.000000000000000D+00 0.000000000000000D+00 -.414952500611093D+03
 0.184118751834758D+03 -.461275358274170D+02 -.546570614945413D+02 0.143071029563855D+03
 0.463022711566495D+02 -.386299257396223D+02 0.976395669149660D+01 0.235858919980089D+02
 0.319540157370664D+03 -.312888025029796D+03 0.819553845935654D+01 -.643415038274962D+02
 0.165857531012020D+03 -.525162397298724D+02 0.772468064574807D+02 -.102315417734368D+03
 0.952373429550100D+03 0.450161726326708D+03 -.405492401137925D+02 0.838287139702006D+03
0.297977135773D-05 0.000000000000D+00 0.000000000000D+00 0.408969138927D-06 0.000000000000D+00  7 2 -2 23 -13 13 23 21 0 0.15017342D+00 0.12140071D-01 0.47133457D+05 0.47133457D+05 0.47133457D+05 0.11495576D+01  1  2  2  1  7  1        2 0.438383085850D-03 0.100000000000D+01
-.153403576825D-06 0.000000000000D+00 -.114431066055D-07 0.408969138927D-06 0.000000000000D+00  7 2 -2 23 -13 13 23 21 2 0.15017342D+00 0.12140071D-01 0.47133457D+05 0.47133457D+05 0.47133457D+05 0.11495576D+01  1  2  3  1  7  1        2 -.298241308607D-04 0.100000000000D+01
0.176821278584D-06 0.000000000000D+00 0.000000000000D+00 0.408969138927D-06 0.000000000000D+00  7 2 -2 23 -13 13 23 21 2 0.15017342D+00 0.12140071D-01 0.47133457D+05 0.47133457D+05 0.47133457D+05 0.11495576D+01  1  2 15  1  7  1        2 0.343769099821D-04 0.100000000000D+01
-.256195107805D-06 0.000000000000D+00 -.111022667737D-05 0.408969138927D-06 0.000000000000D+00  7 2 -2 23 -13 13 23 21 2 0.71376997D+00 0.12140071D-01 0.47133457D+05 0.47133457D+05 0.47133457D+05 0.11495576D+01  1  2  5  1  7  1        2 -.198025359133D-06 0.100000000000D+01
-.694158891709D-07 0.000000000000D+00 -.210208781682D-06 0.408969138927D-06 0.000000000000D+00  7 21 -2 23 -13 13 23 -2 2 0.71376997D+00 0.12140071D-01 0.47133457D+05 0.47133457D+05 0.47133457D+05 0.11495576D+01  1  2  5  3  7  1        2 -.559984329765D-09 0.100000000000D+01
  </mgrwgt>
  </event>
  <event>
  8     66 0.29152272E-05 0.36135593E+03 0.75467711E-02 0.93553727E-01
        2 -1    0    0  501    0 0.00000000E+00 0.00000000E+00 0.91911768E+03 0.91911774E+03 0.32000000E+00 0.0000E+00 0.9000E+01
       -2 -1    0    0    0  501 0.00000000E+00 0.00000000E+00 -.22180689E+03 0.22180713E+03 0.32000000E+00 0.0000E+00 0.9000E+01
       25  2    1    2    0    0 -.23944655E+03 -.20483111E+03 0.80732781E+02 0.44251659E+03 0.30002119E+03 0.0000E+00 0.0000E+00
       23  2    3    3    0    0 -.54560689E+02 0.20537496E-01 -.57725819E+02 0.12059577E+03 0.90742490E+02 0.0000E+00 0.0000E+00
       23  1    1    2    0    0 0.23944655E+03 0.20483111E+03 0.61657801E+03 0.69840828E+03 0.91188000E+02 0.0000E+00 0.9000E+01
      -11  1    4    4    0    0 -.79307613E+02 -.10887660E+00 -.53038385E+02 0.95408488E+02 0.51099893E-03 0.0000E+00 0.9000E+01
       11  1    4    4    0    0 0.24746924E+02 0.12941409E+00 -.46874342E+01 0.25187279E+02 0.51099893E-03 0.0000E+00 0.9000E+01
       23  1    3    3    0    0 -.18488586E+03 -.20485164E+03 0.13845860E+03 0.32192082E+03 0.91188000E+02 0.0000E+00 0.9000E+01
#aMCatNLO 1  0  0  1  2 0.30508385D+03 0.00000000D+00  -5  7  0 0.00000000D+00 0.00000000D+00 0.00000000D+00 0.00000000D+00 0.00000000D+00
  <mgrwgt>
 0.5130100032D-03    3    2    0
 0.451516116100640D+03 0.000000000000000D+00 0.000000000000000D+00 0.451516116100640D+03
 0.451516116100640D+03 0.000000000000000D+00 0.000000000000000D+00 -.451516116100640D+03
 0.406281040872502D+03 0.239446551778065D+03 0.204831106806056D+03 0.239705234307981D+03
 0.161498282810389D+03 -.793076129386641D+02 -.108876595637651D+00 -.140683993498060D+03
 0.354421358938405D+02 0.247469235082892D+02 0.129414091623528D+00 -.253715987983656D+02
 0.299810772624550D+03 -.184885862347690D+03 -.204851644302042D+03 -.736496420115557D+02
 0.000000000000000D+00 0.000000000000000D+00 -.000000000000000D+00 -.000000000000000D+00
 0.504413482825909D+03 0.000000000000000D+00 0.000000000000000D+00 0.504413482825909D+03
 0.131282815641104D+04 0.000000000000000D+00 0.000000000000000D+00 -.131282815641104D+04
 0.430856367838089D+03 0.152002155950499D+03 0.311060610805011D+03 0.239705234307981D+03
 0.187465873362771D+03 -.115759167348398D+03 0.441733270640774D+02 -.140683993498060D+03
 0.321304190047692D+02 0.176885347943802D+02 0.870411033160846D+01 -.253715987983656D+02
 0.302722753702978D+03 -.247824371160379D+03 -.128392466897581D+03 -.736496420115557D+02
 0.864066225328338D+03 0.193892847763897D+03 -.235545581303116D+03 -.808414673585126D+03
0.177980145956D-04 0.000000000000D+00 0.000000000000D+00 0.104649373640D-05 0.000000000000D+00  7 2 -2 23 -11 11 23 21 0 0.14140274D+00 0.34124160D-01 0.13057811D+06 0.13057811D+06 0.13057811D+06 0.11123358D+01  1  2  2  1  7  1        2 0.505629403523D-03 0.100000000000D+01
-.929129098690D-06 0.000000000000D+00 -.683490623720D-07 0.104649373640D-05 0.000000000000D+00  7 2 -2 23 -11 11 23 21 2 0.14140274D+00 0.34124160D-01 0.13057811D+06 0.13057811D+06 0.13057811D+06 0.11123358D+01  1  2  3  1  7  1        2 -.326594319323D-04 0.100000000000D+01
0.113909998789D-05 0.000000000000D+00 0.000000000000D+00 0.104649373640D-05 0.000000000000D+00  7 2 -2 23 -11 11 23 21 2 0.14140274D+00 0.34124160D-01 0.13057811D+06 0.13057811D+06 0.13057811D+06 0.11123358D+01  1  2 15  1  7  1        2 0.400400316501D-04 0.100000000000D+01
  </mgrwgt>
  </event>
  <event>
  8     66 0.29152272E-05 0.31127414E+03 0.75467711E-02 0.94161758E-01
        2 -1    0    0  501    0 0.00000000E+00 0.00000000E+00 0.10782679E+04 0.10782680E+04 0.32000000E+00 0.0000E+00 0.9000E+01
       -2 -1    0    0    0  501 0.00000000E+00 0.00000000E+00 -.10824945E+03 0.10824992E+03 0.32000000E+00 0.0000E+00 0.9000E+01
       25  2    1    2    0    0 -.22372042E+03 -.59706821E+02 0.80264980E+03 0.88661247E+03 0.29701725E+03 0.0000E+00 0.0000E+00
       23  2    3    3    0    0 -.23024771E+03 0.29036123E+02 0.52174594E+03 0.57816451E+03 0.90544314E+02 0.0000E+00 0.0000E+00
       23  1    1    2    0    0 0.22372042E+03 0.59706821E+02 0.16736867E+03 0.29990541E+03 0.91188000E+02 0.0000E+00 0.9000E+01
      -11  1    4    4    0    0 0.54544889E+01 0.79427793E+01 0.79531015E+01 0.12493639E+02 0.51099893E-03 0.0000E+00 0.9000E+01
       11  1    4    4    0    0 -.23570220E+03 0.21093344E+02 0.51379284E+03 0.56567087E+03 0.51099893E-03 0.0000E+00 0.9000E+01
       23  1    3    3    0    0 0.65272857E+01 -.88742944E+02 0.28090386E+03 0.30844797E+03 0.91188000E+02 0.0000E+00 0.9000E+01
#aMCatNLO 1  0  0  2  2 0.33594380D+03 0.00000000D+00  -5  7  0 0.00000000D+00 0.00000000D+00 0.00000000D+00 0.00000000D+00 0.00000000D+00
  <mgrwgt>
 0.8287533859D-03    5    2    0
 0.341646327142675D+03 0.000000000000000D+00 0.000000000000000D+00 0.341646327142675D+03
 0.341646327142675D+03 0.000000000000000D+00 0.000000000000000D+00 -.341646327142675D+03
 0.283176509527983D+03 0.223720421620762D+03 0.597068212595874D+02 -.135121991731013D+03
 0.104044303348375D+02 0.545448895461883D+01 0.794277933463768D+01 -.392593648416284D+01
 0.252878557978175D+03 -.235702196280819D+03 0.210933436855241D+02 0.891465681094004D+02
 0.136833156444355D+03 0.652728570543803D+01 -.887429442797492D+02 0.499013601057754D+02
 0.000000000000000D+00 -.000000000000000D+00 -.000000000000000D+00 -.000000000000000D+00
 0.420032499016957D+03 0.000000000000000D+00 0.000000000000000D+00 0.420032499016957D+03
 0.109814274233793D+04 0.000000000000000D+00 0.000000000000000D+00 -.109814274233793D+04
 0.428081028345425D+03 0.375217828928219D+03 0.126062459480667D+03 -.135121991731013D+03
 0.156170999934028D+02 0.109970585148481D+02 0.103704165271828D+02 -.392593648416284D+01
 0.179801504790970D+03 -.143541615601223D+03 0.614595404311163D+02 0.891465681094004D+02
 0.137911615647783D+03 0.650477490072206D+02 -.631110687222859D+02 0.499013601057754D+02
 0.756763992577302D+03 -.307721020849065D+03 -.134781347716680D+03 -.678110243320969D+03
0.130405552422D-04 0.000000000000D+00 0.000000000000D+00 0.180689250235D-07 0.000000000000D+00  7 2 -2 23 -11 11 23 21 0 0.16588741D+00 0.16653801D-01 0.96891587D+05 0.96891587D+05 0.96891587D+05 0.11228492D+01  1  2  2  2  7  2       -2 0.100737420533D-02 0.100000000000D+01
-.716840030619D-06 0.000000000000D+00 -.500791657872D-07 0.180689250235D-07 0.000000000000D+00  7 2 -2 23 -11 11 23 21 2 0.16588741D+00 0.16653801D-01 0.96891587D+05 0.96891587D+05 0.96891587D+05 0.11228492D+01  1  2  3  2  7  2       -2 -.698167836133D-04 0.100000000000D+01
0.846965660137D-06 0.000000000000D+00 0.000000000000D+00 0.180689250235D-07 0.000000000000D+00  7 2 -2 23 -11 11 23 21 2 0.16588741D+00 0.16653801D-01 0.96891587D+05 0.96891587D+05 0.96891587D+05 0.11228492D+01  1  2 15  2  7  2       -2 0.824903963171D-04 0.100000000000D+01
-.868001308050D-05 0.000000000000D+00 -.463624136645D-05 0.180689250235D-07 0.000000000000D+00  7 2 -2 23 -11 11 23 21 2 0.16588741D+00 0.63442160D-01 0.96891587D+05 0.96891587D+05 0.96891587D+05 0.11228492D+01  1  2  5  2  7  2       -2 -.755872718170D-04 0.100000000000D+01
-.128583597552D-05 0.000000000000D+00 -.735092330383D-06 0.180689250235D-07 0.000000000000D+00  7 2 21 23 -11 11 23 2 2 0.16588741D+00 0.63442160D-01 0.96891587D+05 0.96891587D+05 0.96891587D+05 0.11228492D+01  1  2  5  4  7  2       -2 -.115707160294D-03 0.100000000000D+01
  </mgrwgt>
  </event>
  <event>
  8     66 0.29152272E-05 0.24090005E+03 0.75467711E-02 0.97434425E-01
        2 -1    0    0  501    0 0.00000000E+00 0.00000000E+00 0.19062311E+04 0.19062312E+04 0.32000000E+00 0.0000E+00 0.9000E+01
       -2 -1    0    0    0  501 0.00000000E+00 0.00000000E+00 -.47089256E+02 0.47090343E+02 0.32000000E+00 0.0000E+00 0.9000E+01
       25  2    1    2    0    0 -.17718809E+03 0.71128438E+02 0.14481950E+04 0.14911014E+04 0.29943215E+03 0.0000E+00 0.0000E+00
       23  2    3    3    0    0 0.14526643E+02 -.48550159E+01 0.78887437E+03 0.79428935E+03 0.91313775E+02 0.0000E+00 0.0000E+00
       23  1    1    2    0    0 0.17718809E+03 -.71128438E+02 0.41094683E+03 0.46222011E+03 0.91188000E+02 0.0000E+00 0.9000E+01
      -11  1    4    4    0    0 0.60471624E+00 -.22355352E+02 0.74217458E+03 0.74251144E+03 0.51099893E-03 0.0000E+00 0.9000E+01
       11  1    4    4    0    0 0.13921927E+02 0.17500337E+02 0.46699786E+02 0.51777909E+02 0.51099893E-03 0.0000E+00 0.9000E+01
       23  1    3    3    0    0 -.19171474E+03 0.75983454E+02 0.65932067E+03 0.69681204E+03 0.91188000E+02 0.0000E+00 0.9000E+01
#aMCatNLO 1  0  0  2  1 0.25126059D+03 0.00000000D+00  -5  7  0 0.00000000D+00 0.00000000D+00 0.00000000D+00 0.00000000D+00 0.00000000D+00
  <mgrwgt>
 0.4881851772D-03    5    2    0
 0.299606564366719D+03 0.000000000000000D+00 0.000000000000000D+00 0.299606564366719D+03
 0.299606564366719D+03 0.000000000000000D+00 0.000000000000000D+00 -.299606564366719D+03
 0.231730579125770D+03 0.177188094559569D+03 -.711284379887509D+02 -.944930389689854D+02
 0.117747278426184D+03 0.604716238311388D+00 -.223553524481630D+02 0.115604040206053D+03
 0.238936263967916D+02 0.139219266677324D+02 0.175003365172019D+02 -.841567359350572D+01
 0.225841644784693D+03 -.191714737465613D+03 0.759834539197120D+02 -.126953276435624D+02
 0.000000000000000D+00 0.000000000000000D+00 -.000000000000000D+00 -.000000000000000D+00
 0.437711056439519D+03 0.000000000000000D+00 0.000000000000000D+00 0.437711056439519D+03
 0.464761613863642D+03 0.000000000000000D+00 0.000000000000000D+00 -.464761613863642D+03
 0.178808466996183D+03 0.120887280081182D+03 -.107026924885595D+02 -.944930389689854D+02
 0.120648703488356D+03 -.320886123913273D+02 0.127332830117563D+02 0.115604040206053D+03
 0.272985686623093D+02 0.690149267006663D+01 0.250351290770270D+02 -.841567359350572D+01
 0.323004414387615D+03 -.266982803795837D+03 0.156766104446155D+03 -.126953276435624D+02
 0.252712516768698D+03 0.171282643435915D+03 -.183831824046379D+03 -.270505574241229D+02
0.422046795966D-05 0.000000000000D+00 0.000000000000D+00 0.195598661899D-06 0.000000000000D+00  7 2 -2 23 -11 11 23 21 0 0.29326641D+00 0.72445866D-02 0.58032835D+05 0.58032835D+05 0.58032835D+05 0.11416472D+01  1  2  2  2  7  2       -2 0.423102424462D-03 0.100000000000D+01
-.220911266075D-06 0.000000000000D+00 -.162077082398D-07 0.195598661899D-06 0.000000000000D+00  7 2 -2 23 -11 11 23 21 2 0.29326641D+00 0.72445866D-02 0.58032835D+05 0.58032835D+05 0.58032835D+05 0.11416472D+01  1  2  3  2  7  2       -2 -.288646701035D-04 0.100000000000D+01
0.270937781388D-06 0.000000000000D+00 0.000000000000D+00 0.195598661899D-06 0.000000000000D+00  7 2 -2 23 -11 11 23 21 2 0.29326641D+00 0.72445866D-02 0.58032835D+05 0.58032835D+05 0.58032835D+05 0.11416472D+01  1  2 15  2  7  2       -2 0.354012260999D-04 0.100000000000D+01
0.330881009352D-06 0.000000000000D+00 -.132604819284D-05 0.195598661899D-06 0.000000000000D+00  7 2 -2 23 -11 11 23 21 2 0.29326641D+00 0.18105140D-01 0.58032835D+05 0.58032835D+05 0.58032835D+05 0.11416472D+01  1  2  5  2  7  2       -2 0.104208646610D-04 0.100000000000D+01
0.115325598418D-06 0.000000000000D+00 -.133689546955D-06 0.195598661899D-06 0.000000000000D+00  7 2 21 23 -11 11 23 2 2 0.29326641D+00 0.18105140D-01 0.58032835D+05 0.58032835D+05 0.58032835D+05 0.11416472D+01  1  2  5  4  7  2       -2 0.481253321209D-04 0.100000000000D+01
  </mgrwgt>
  </event>
  <event>
  8     66 0.29152272E-05 0.18517034E+03 0.75467711E-02 0.10007437E+00
        2 -1    0    0  501    0 0.00000000E+00 0.00000000E+00 0.10776232E+04 0.10776233E+04 0.32000000E+00 0.0000E+00 0.9000E+01
       -2 -1    0    0    0  501 0.00000000E+00 0.00000000E+00 -.74286651E+02 0.74287340E+02 0.32000000E+00 0.0000E+00 0.9000E+01
       25  2    1    2    0    0 -.45795186E+02 0.61243483E+02 0.27157662E+03 0.41053632E+03 0.29822516E+03 0.0000E+00 0.0000E+00
       23  2    3    3    0    0 -.21641290E+02 -.66299013E+02 0.24722652E+02 0.11710382E+03 0.90764475E+02 0.0000E+00 0.0000E+00
       23  1    1    2    0    0 0.45795186E+02 -.61243483E+02 0.73175995E+03 0.74137429E+03 0.91188000E+02 0.0000E+00 0.9000E+01
      -11  1    4    4    0    0 0.20087535E+02 -.95170072E+01 -.23009905E+02 0.31992784E+02 0.51099893E-03 0.0000E+00 0.9000E+01
       11  1    4    4    0    0 -.41728825E+02 -.56782006E+02 0.47732557E+02 0.85111034E+02 0.51099893E-03 0.0000E+00 0.9000E+01
       23  1    3    3    0    0 -.24153897E+02 0.12754250E+03 0.24685397E+03 0.29343250E+03 0.91188000E+02 0.0000E+00 0.9000E+01
#aMCatNLO 1  0  0  2  2 0.19482367D+03 0.00000000D+00  -5  7  0 0.00000000D+00 0.00000000D+00 0.00000000D+00 0.00000000D+00 0.00000000D+00
  <mgrwgt>
 0.3710405164D-03    7    2    0
 0.282937173035482D+03 0.000000000000000D+00 0.000000000000000D+00 0.282937173035482D+03
 0.282937173035482D+03 0.000000000000000D+00 0.000000000000000D+00 -.282937173035482D+03
 0.211699633219816D+03 0.457951861443103D+02 -.612434829044282D+02 0.175081467006498D+03
 0.105923702438482D+03 0.200875353636628D+02 -.951700717276789D+01 -.103565188339341D+03
 0.886212334416298D+02 -.417288248944758D+02 -.567820062481952D+02 -.537422734546273D+02
 0.159629776971037D+03 -.241538966134974D+02 0.127542496325391D+03 -.177740052125296D+02
 0.000000000000000D+00 0.000000000000000D+00 0.000000000000000D+00 -.000000000000000D+00
 0.394042762332208D+03 0.000000000000000D+00 0.000000000000000D+00 0.394042762332208D+03
 0.399325604779639D+03 0.000000000000000D+00 0.000000000000000D+00 -.399325604779639D+03
 0.239378700871991D+03 0.234879391427183D+02 -.133348069775465D+03 0.175081467006498D+03
 0.113111929507668D+03 0.925553219549883D+01 -.445297146292499D+02 -.103565188339341D+03
 0.116648643339226D+03 -.518800680317819D+02 -.895942664338949D+02 -.537422734546273D+02
 0.129333814203438D+03 -.384440580236531D+02 0.813518487422905D+02 -.177740052125296D+02
 0.194895279189525D+03 0.575806547172179D+02 0.186120202096320D+03 -.528284244743154D+01
0.243070992411D-05 0.000000000000D+00 0.000000000000D+00 0.290247429871D-07 0.000000000000D+00  7 2 -2 23 -11 11 23 21 0 0.16578824D+00 0.11428772D-01 0.34288054D+05 0.34288054D+05 0.34288054D+05 0.11619906D+01  1  2  2  2  7  2       -2 0.341857145366D-03 0.100000000000D+01
-.105529469419D-06 0.000000000000D+00 -.933456612919D-08 0.290247429871D-07 0.000000000000D+00  7 2 -2 23 -11 11 23 21 2 0.16578824D+00 0.11428772D-01 0.34288054D+05 0.34288054D+05 0.34288054D+05 0.11619906D+01  1  2  3  2  7  2       -2 -.200396660504D-04 0.100000000000D+01
0.148834612674D-06 0.000000000000D+00 0.000000000000D+00 0.290247429871D-07 0.000000000000D+00  7 2 -2 23 -11 11 23 21 2 0.16578824D+00 0.11428772D-01 0.34288054D+05 0.34288054D+05 0.34288054D+05 0.11619906D+01  1  2 15  2  7  2       -2 0.282631567386D-04 0.100000000000D+01
-.650502308356D-06 0.000000000000D+00 0.000000000000D+00 0.290247429871D-07 0.000000000000D+00  7 2 -2 23 -11 11 23 21 2 0.16578824D+00 0.11428772D-01 0.34288054D+05 0.34288054D+05 0.34288054D+05 0.11619906D+01  1  2  4  2  7  2       -2 -.123528044784D-03 0.100000000000D+01
0.148002643557D-07 0.000000000000D+00 -.787485809544D-06 0.290247429871D-07 0.000000000000D+00  7 2 -2 23 -11 11 23 21 2 0.16578824D+00 0.22803652D-01 0.34288054D+05 0.34288054D+05 0.34288054D+05 0.11619906D+01  1  2  5  2  7  2       -2 0.935022461840D-06 0.100000000000D+01
0.549408465513D-06 0.000000000000D+00 0.630880412523D-06 0.290247429871D-07 0.000000000000D+00  7 2 -2 23 -11 11 23 21 2 0.16578824D+00 0.11428772D-01 0.34288054D+05 0.34288054D+05 0.34288054D+05 0.11619906D+01  1  2  6  2  7  2       -2 0.104330688240D-03 0.100000000000D+01
0.482655366031D-07 0.000000000000D+00 -.588664712205D-07 0.290247429871D-07 0.000000000000D+00  7 2 21 23 -11 11 23 2 2 0.16578824D+00 0.22803652D-01 0.34288054D+05 0.34288054D+05 0.34288054D+05 0.11619906D+01  1  2  5  4  7  2       -2 0.392222144023D-04 0.100000000000D+01
  </mgrwgt>
  </event>
  <event>
  8     66 0.29152272E-05 0.24874876E+03 0.75467711E-02 0.94722405E-01
        2 -1    0    0  501    0 0.00000000E+00 0.00000000E+00 0.11942448E+03 0.11942491E+03 0.32000000E+00 0.0000E+00 0.9000E+01
       -2 -1    0    0    0  501 0.00000000E+00 0.00000000E+00 -.52981957E+03 0.52981967E+03 0.32000000E+00 0.0000E+00 0.9000E+01
       25  2    1    2    0    0 0.93896092E+02 -.10881533E+03 -.29574608E+03 0.44402056E+03 0.29838107E+03 0.0000E+00 0.0000E+00
       23  2    3    3    0    0 -.20896676E+02 -.15145701E+03 -.16345385E+03 0.24200032E+03 0.92038561E+02 0.0000E+00 0.0000E+00
       23  1    1    2    0    0 -.93896092E+02 0.10881533E+03 -.11464900E+03 0.20522402E+03 0.91188000E+02 0.0000E+00 0.9000E+01
      -11  1    4    4    0    0 -.47720912E+02 -.13487768E+03 -.15122334E+03 0.20817726E+03 0.51099893E-03 0.0000E+00 0.9000E+01
       11  1    4    4    0    0 0.26824237E+02 -.16579322E+02 -.12230515E+02 0.33823056E+02 0.51099893E-03 0.0000E+00 0.9000E+01
       23  1    3    3    0    0 0.11479277E+03 0.42641679E+02 -.13229223E+03 0.20202024E+03 0.91188000E+02 0.0000E+00 0.9000E+01
#aMCatNLO 1  0  0  1  1 0.37083267D+03 0.00000000D+00  -5  7  0 0.00000000D+00 0.00000000D+00 0.00000000D+00 0.00000000D+00 0.00000000D+00
  <mgrwgt>
 0.4636664874D-03    5    2    0
 0.251542438741008D+03 0.000000000000000D+00 0.000000000000000D+00 0.251542438741008D+03
 0.251542438741008D+03 0.000000000000000D+00 0.000000000000000D+00 -.251542438741008D+03
 0.171321373528443D+03 -.938960921865507D+02 0.108815327628800D+03 0.194553341992406D+02
 0.145296843558820D+03 -.477209124877697D+02 -.134877684481258D+03 -.253356959340971D+02
 0.336724337319781D+02 0.268242368439769D+02 -.165793219307344D+02 0.118075905878279D+02
 0.152794226662776D+03 0.114792767830344D+03 0.426416787831926D+02 -.592722885297139D+01
 0.000000000000000D+00 -.000000000000000D+00 0.000000000000000D+00 0.000000000000000D+00
 0.563362198647687D+03 0.000000000000000D+00 0.000000000000000D+00 0.563362198647687D+03
 0.449535736833047D+03 0.000000000000000D+00 0.000000000000000D+00 -.449535736833047D+03
 0.107327403981342D+03 -.405834978168298D+02 0.343276852922169D+02 0.194553341992406D+02
 0.240878291672227D+03 0.261642074263915D+02 -.238108983787287D+03 -.253356959340971D+02
 0.632774147863366D+02 0.453732073237820D+02 -.424956948843695D+02 0.118075905878279D+02
 0.213505900739232D+03 0.184875293525525D+03 -.552766868439713D+02 -.592722885297139D+01
 0.387908924301596D+03 -.215829210458868D+03 0.301553680223411D+03 0.113826461814641D+03
0.787341511364D-05 0.000000000000D+00 0.000000000000D+00 0.178247594330D-07 0.000000000000D+00  7 2 -2 23 -11 11 23 21 0 0.18373038D-01 0.81510743D-01 0.61875948D+05 0.61875948D+05 0.61875948D+05 0.11392425D+01  1  2  2  1  7  1        2 0.411362650813D-03 0.100000000000D+01
-.437345615083D-06 0.000000000000D+00 -.302359871542D-07 0.178247594330D-07 0.000000000000D+00  7 2 -2 23 -11 11 23 21 2 0.18373038D-01 0.81510743D-01 0.61875948D+05 0.61875948D+05 0.61875948D+05 0.11392425D+01  1  2  3  1  7  1        2 -.296564264662D-04 0.100000000000D+01
0.514612223588D-06 0.000000000000D+00 0.000000000000D+00 0.178247594330D-07 0.000000000000D+00  7 2 -2 23 -11 11 23 21 2 0.18373038D-01 0.81510743D-01 0.61875948D+05 0.61875948D+05 0.61875948D+05 0.11392425D+01  1  2 15  1  7  1        2 0.348958787767D-04 0.100000000000D+01
0.221492662949D-05 0.000000000000D+00 -.298969337648D-05 0.178247594330D-07 0.000000000000D+00  7 2 -2 23 -11 11 23 21 2 0.70597368D-01 0.81510743D-01 0.61875948D+05 0.61875948D+05 0.61875948D+05 0.11392425D+01  1  2  5  1  7  1        2 0.333933682518D-04 0.100000000000D+01
0.408150233052D-06 0.000000000000D+00 -.477668777928D-06 0.178247594330D-07 0.000000000000D+00  7 21 -2 23 -11 11 23 -2 2 0.70597368D-01 0.81510743D-01 0.61875948D+05 0.61875948D+05 0.61875948D+05 0.11392425D+01  1  2  5  3  7  1        2 0.136710159886D-04 0.100000000000D+01
  </mgrwgt>
  </event>
  <event>
  8     66 0.29152272E-05 0.21784686E+03 0.75467711E-02 0.99598364E-01
        2 -1    0    0  501    0 0.00000000E+00 0.00000000E+00 0.32233837E+04 0.32233837E+04 0.32000000E+00 0.0000E+00 0.9000E+01
       -2 -1    0    0    0  501 0.00000000E+00 0.00000000E+00 -.83261879E+02 0.83262494E+02 0.32000000E+00 0.0000E+00 0.9000E+01
       25  2    1    2    0    0 0.23809889E+03 0.75414118E+02 0.29597963E+04 0.29853817E+04 0.29955120E+03 0.0000E+00 0.0000E+00
       23  2    3    3    0    0 0.19947377E+03 0.14417937E+03 0.17925783E+04 0.18119534E+04 0.96233445E+02 0.0000E+00 0.0000E+00
       23  1    1    2    0    0 -.23809889E+03 -.75414118E+02 0.18032545E+03 0.32126452E+03 0.91188000E+02 0.0000E+00 0.9000E+01
      -13  1    4    4    0    0 0.10928406E+03 0.49540940E+02 0.11478594E+04 0.11541138E+04 0.10565837E+00 0.0000E+00 0.9000E+01
       13  1    4    4    0    0 0.90189703E+02 0.94638429E+02 0.64471886E+03 0.65783967E+03 0.10565837E+00 0.0000E+00 0.9000E+01
       23  1    3    3    0    0 0.38625127E+02 -.68765250E+02 0.11672181E+04 0.11734282E+04 0.91188000E+02 0.0000E+00 0.9000E+01
#aMCatNLO 1  0  0  2  1 0.24160387D+02 0.00000000D+00  -5  7  0 0.00000000D+00 0.00000000D+00 0.00000000D+00 0.00000000D+00 0.00000000D+00
  <mgrwgt>
 0.2529839968D-03    9    2    0
 0.518059866867284D+03 0.000000000000000D+00 0.000000000000000D+00 0.518059866867284D+03
 0.518059866867284D+03 0.000000000000000D+00 0.000000000000000D+00 -.518059866867284D+03
 0.478771130685407D+03 -.238098892466075D+03 -.754141182874771D+02 -.398155964922207D+03
 0.204443119806680D+03 0.109284085454203D+03 0.495408869007052D+02 0.165528482225322D+03
 0.145492089439913D+03 0.901896800573154D+02 0.946384826735421D+02 0.638539528768603D+02
 0.207413393802568D+03 0.386251269545562D+02 -.687652512867702D+02 0.168773529820025D+03
 0.000000000000000D+00 -.000000000000000D+00 -.000000000000000D+00 -.000000000000000D+00
 0.527715604873071D+03 0.000000000000000D+00 0.000000000000000D+00 0.527715604873071D+03
 0.533537780830772D+03 0.000000000000000D+00 0.000000000000000D+00 -.533537780830772D+03
 0.473102795880206D+03 -.227254009059095D+03 -.730646774378914D+02 -.398155964922207D+03
 0.207233811130915D+03 0.113974400203625D+03 0.505569989838112D+02 0.165528482225322D+03
 0.148054256878999D+03 0.935341102507755D+02 0.953630216676678D+02 0.638539528768603D+02
 0.208010519230203D+03 0.433581317943532D+02 -.677398908015898D+02 0.168773529820025D+03
 0.248520025835188D+02 -.236126331896590D+02 -.511545241199778D+01 -.582217595770056D+01
0.317837424407D-04 0.000000000000D+00 0.000000000000D+00 0.670703005758D-07 0.000000000000D+00  7 2 -2 23 -13 13 23 21 0 0.49590523D+00 0.12809568D-01 0.10149550D+06 0.10149550D+06 0.10149550D+06 0.11211934D+01  1  2  2  2  7  2       -2 0.225341854636D-03 0.100000000000D+01
-.125824186979D-05 0.000000000000D+00 -.122057939824D-06 0.670703005758D-07 0.000000000000D+00  7 2 -2 23 -13 13 23 21 2 0.49590523D+00 0.12809568D-01 0.10149550D+06 0.10149550D+06 0.10149550D+06 0.11211934D+01  1  2  3  2  7  2       -2 -.112140380397D-04 0.100000000000D+01
0.193083555569D-05 0.000000000000D+00 0.000000000000D+00 0.670703005758D-07 0.000000000000D+00  7 2 -2 23 -13 13 23 21 2 0.49590523D+00 0.12809568D-01 0.10149550D+06 0.10149550D+06 0.10149550D+06 0.11211934D+01  1  2 15  2  7  2       -2 0.172085064802D-04 0.100000000000D+01
0.506736370820D-04 0.000000000000D+00 0.000000000000D+00 0.670703005758D-07 0.000000000000D+00  7 2 -2 23 -13 13 23 21 2 0.49590523D+00 0.13308746D-01 0.10874998D+06 0.10874998D+06 0.10874998D+06 0.11187448D+01  1  2 12  2  7  2       -2 0.421733937143D-03 0.100000000000D+01
-.449458815061D-04 0.000000000000D+00 0.000000000000D+00 0.670703005758D-07 0.000000000000D+00  7 2 -2 23 -13 13 23 21 2 0.49590523D+00 0.12809568D-01 0.10149550D+06 0.10149550D+06 0.10149550D+06 0.11211934D+01  1  2  4  2  7  2       -2 -.400578646315D-03 0.100000000000D+01
-.390470947682D-03 0.000000000000D+00 -.732559077918D-04 0.670703005758D-07 0.000000000000D+00  7 2 -2 23 -13 13 23 21 2 0.49590523D+00 0.13572150D-01 0.10149550D+06 0.10149550D+06 0.10149550D+06 0.11211934D+01  1  2  5  2  7  2       -2 -.317618591450D-02 0.100000000000D+01
0.394170224465D-03 0.000000000000D+00 0.731335938692D-04 0.670703005758D-07 0.000000000000D+00  7 2 -2 23 -13 13 23 21 2 0.49590523D+00 0.12809568D-01 0.10149550D+06 0.10149550D+06 0.10149550D+06 0.11211934D+01  1  2  6  2  7  2       -2 0.351302877245D-02 0.100000000000D+01
0.787694505982D-06 0.000000000000D+00 0.000000000000D+00 0.670703005758D-07 0.000000000000D+00  7 2 21 23 -13 13 23 2 2 0.49590523D+00 0.13308746D-01 0.10874998D+06 0.10874998D+06 0.10874998D+06 0.11187448D+01  1  2 12  4  7  2       -2 0.906458693211D-04 0.100000000000D+01
-.380440798548D-05 0.000000000000D+00 -.729756410333D-06 0.670703005758D-07 0.000000000000D+00  7 2 21 23 -13 13 23 2 2 0.49590523D+00 0.13572150D-01 0.10149550D+06 0.10149550D+06 0.10149550D+06 0.11211934D+01  1  2  5  4  7  2       -2 -.426996344403D-03 0.100000000000D+01
  </mgrwgt>
  </event>
  <event>
  8     66 0.29152272E-05 0.51805722E+03 0.75467711E-02 0.90950109E-01
        2 -1    0    0  502    0 0.00000000E+00 0.00000000E+00 0.53882275E+03 0.53882284E+03 0.32000000E+00 0.0000E+00 0.9000E+01
       -2 -1    0    0    0  501 0.00000000E+00 0.00000000E+00 -.12190614E+04 0.12190615E+04 0.32000000E+00 0.0000E+00 0.9000E+01
       25  2    1    2    0    0 -.17084675E+03 -.27050631E+03 -.51178390E+03 0.67583301E+03 0.30408094E+03 0.0000E+00 0.0000E+00
       23  1    1    2    0    0 0.31249796E+03 0.55630251E+03 -.33042529E+03 0.72430903E+03 0.91188000E+02 0.0000E+00 0.9000E+01
      -11  1    3    3    0    0 0.38965493E+02 -.12695573E+03 -.11748202E+03 0.17730791E+03 0.51099893E-03 0.0000E+00 0.9000E+01
       11  1    3    3    0    0 -.87249835E+02 0.10755840E+02 -.11442769E+03 0.14429802E+03 0.51099893E-03 0.0000E+00 0.9000E+01
       23  1    3    3    0    0 -.12256241E+03 -.15430642E+03 -.27987419E+03 0.35422708E+03 0.91188000E+02 0.0000E+00 0.9000E+01
       21  1    1    2  502  501 -.14165121E+03 -.28579619E+03 0.16197050E+03 0.35774227E+03 0.75000000E+00 0.0000E+00 0.9000E+01
#aMCatNLO 2  0  0  1  2 0.31897418D+03 0.00000000D+00  -5  7  0 0.00000000D+00 0.00000000D+00 0.00000000D+00 0.00000000D+00 0.00000000D+00
  <mgrwgt>
 0.4656558829D-04    2    2    0
 0.536035654631594D+03 0.000000000000000D+00 0.000000000000000D+00 0.536035654631594D+03
 0.536035654631594D+03 0.000000000000000D+00 0.000000000000000D+00 -.536035654631594D+03
 0.496789213762886D+03 0.237833084523945D+03 0.405658280072157D+03 0.131761357316447D+03
 0.167969948863377D+03 0.194719774776487D+02 -.166285946390186D+03 -.135546983513330D+02
 0.107223026217525D+03 -.100291973692500D+03 -.155580526316566D+02 -.345867657120119D+02
 0.300089120419399D+03 -.157013088309094D+03 -.223814281050314D+03 -.836198932531019D+02
 0.000000000000000D+00 -.000000000000000D+00 -.000000000000000D+00 0.000000000000000D+00
 0.108020619690482D+04 0.000000000000000D+00 0.000000000000000D+00 0.108020619690482D+04
 0.608085431217958D+03 0.000000000000000D+00 0.000000000000000D+00 -.608085431217958D+03
 0.657878224938088D+03 0.312497958668948D+03 0.556302505881069D+03 0.131761357316447D+03
 0.133490810412394D+03 0.389654947420700D+02 -.126955727860809D+03 -.135546983513330D+02
 0.944693883032935D+02 -.872498299189293D+02 0.107558422775144D+02 -.345867657120119D+02
 0.232679086422789D+03 -.122562414652718D+03 -.154306428516050D+03 -.836198932531019D+02
 0.569774118046212D+03 -.141651208839371D+03 -.285796191781725D+03 0.472120765686861D+03
-.249226252879D-04 0.000000000000D+00 0.000000000000D+00 0.440461093538D-11 0.000000000000D+00  7 2 -2 23 -11 11 23 21 2 0.83064844D-01 0.16532601D+00 0.49095807D+06 0.49095807D+06 0.49095807D+06 0.10690710D+01  1  2 13  1  7  1        2 -.429169920298D-04 0.100000000000D+01
0.752861770752D-04 0.000000000000D+00 0.000000000000D+00 0.440461093538D-11 0.334654240717D-15  7 2 -2 23 -11 11 23 21 2 0.82895786D-01 0.18754785D+00 0.49095807D+06 0.49095807D+06 0.49095807D+06 0.10690710D+01  1  2  1  1  7  1        2 0.894825803192D-04 0.100000000000D+01
  </mgrwgt>
  </event>
  <event>
  8     66 0.29152272E-05 0.29094485E+03 0.75467711E-02 0.96691412E-01
        2 -1    0    0  501    0 0.00000000E+00 0.00000000E+00 0.65304485E+03 0.65304493E+03 0.32000000E+00 0.0000E+00 0.9000E+01
       -2 -1    0    0    0  501 0.00000000E+00 0.00000000E+00 -.13791320E+03 0.13791358E+03 0.32000000E+00 0.0000E+00 0.9000E+01
       25  2    1    2    0    0 -.20418556E+03 0.48510492E+02 0.25879299E+03 0.44734568E+03 0.29849512E+03 0.0000E+00 0.0000E+00
       23  2    3    3    0    0 -.16470613E+03 0.13572172E+03 0.16205364E+03 0.28352207E+03 0.92600694E+02 0.0000E+00 0.0000E+00
       23  1    1    2    0    0 0.20418556E+03 -.48510492E+02 0.25633866E+03 0.34361282E+03 0.91188000E+02 0.0000E+00 0.9000E+01
      -11  1    4    4    0    0 -.11881616E+03 0.62005309E+02 0.53000949E+02 0.14412161E+03 0.51099893E-03 0.0000E+00 0.9000E+01
       11  1    4    4    0    0 -.45889966E+02 0.73716408E+02 0.10905270E+03 0.13940046E+03 0.51099893E-03 0.0000E+00 0.9000E+01
       23  1    3    3    0    0 -.39479437E+02 -.87211226E+02 0.96739342E+02 0.16382361E+03 0.91188000E+02 0.0000E+00 0.9000E+01
#aMCatNLO 1  0  0  2  2 0.21959376D+03 0.00000000D+00  -5  7  0 0.00000000D+00 0.00000000D+00 0.00000000D+00 0.00000000D+00 0.00000000D+00
  <mgrwgt>
 0.2970791732D-03    5    2    0
 0.300106124005677D+03 0.000000000000000D+00 0.000000000000000D+00 0.300106124005677D+03
 0.300106124005677D+03 0.000000000000000D+00 0.000000000000000D+00 -.300106124005677D+03
 0.232809858288307D+03 0.204185563281273D+03 -.485104916605458D+02 0.428971644585358D+02
 0.144435152713292D+03 -.118816159689397D+03 0.620053093322334D+02 -.538477032991166D+02
 0.901072661104617D+02 -.458899662575441D+02 0.737164081107581D+02 0.240691000669152D+02
 0.132859970899294D+03 -.394794373343318D+02 -.872112257824456D+02 -.131185612263344D+02
 0.000000000000000D+00 -.000000000000000D+00 0.000000000000000D+00 -.000000000000000D+00
 0.397763337709306D+03 0.000000000000000D+00 0.000000000000000D+00 0.397763337709306D+03
 0.473716050896039D+03 0.000000000000000D+00 0.000000000000000D+00 -.473716050896039D+03
 0.299074153757491D+03 0.249052422276461D+03 -.131388060117364D+03 0.428971644585358D+02
 0.113153636664676D+03 -.970873623764086D+02 0.218681139251579D+02 -.538477032991166D+02
 0.642380982699717D+02 -.328702259694651D+02 0.496664870514078D+02 0.240691000669152D+02
 0.162655510707261D+03 -.145513493605300D+02 -.133258115709996D+03 -.131185612263344D+02
 0.232357989205945D+03 -.104543484570057D+03 0.193111574850795D+03 -.759527131867333D+02
0.337096500747D-05 0.000000000000D+00 0.000000000000D+00 0.187034542717D-07 0.000000000000D+00  7 2 -2 23 -11 11 23 21 0 0.10046847D+00 0.21217451D-01 0.84648903D+05 0.84648903D+05 0.84648903D+05 0.11277104D+01  1  2  2  2  7  2       -2 0.335393233413D-03 0.100000000000D+01
-.187056979429D-06 0.000000000000D+00 -.129453932242D-07 0.187034542717D-07 0.000000000000D+00  7 2 -2 23 -11 11 23 21 2 0.10046847D+00 0.21217451D-01 0.84648903D+05 0.84648903D+05 0.84648903D+05 0.11277104D+01  1  2  3  2  7  2       -2 -.236684124848D-04 0.100000000000D+01
0.221143958648D-06 0.000000000000D+00 0.000000000000D+00 0.187034542717D-07 0.000000000000D+00  7 2 -2 23 -11 11 23 21 2 0.10046847D+00 0.21217451D-01 0.84648903D+05 0.84648903D+05 0.84648903D+05 0.11277104D+01  1  2 15  2  7  2       -2 0.279814548903D-04 0.100000000000D+01
-.103437576691D-05 0.000000000000D+00 -.106909619619D-05 0.187034542717D-07 0.000000000000D+00  7 2 -2 23 -11 11 23 21 2 0.10046847D+00 0.43666515D-01 0.84648903D+05 0.84648903D+05 0.84648903D+05 0.11277104D+01  1  2  5  2  7  2       -2 -.366298310777D-04 0.100000000000D+01
-.152634333173D-07 0.000000000000D+00 -.834374052167D-07 0.187034542717D-07 0.000000000000D+00  7 2 21 23 -11 11 23 2 2 0.10046847D+00 0.43666515D-01 0.84648903D+05 0.84648903D+05 0.84648903D+05 0.11277104D+01  1  2  5  4  7  2       -2 -.599727151124D-05 0.100000000000D+01
  </mgrwgt>
  </event>
  <event>
  8     66 0.29152272E-05 0.27024054E+03 0.75467711E-02 0.10180618E+00
        2 -1    0    0  501    0 0.00000000E+00 0.00000000E+00 0.10001800E+04 0.10001801E+04 0.32000000E+00 0.0000E+00 0.9000E+01
       -2 -1    0    0    0  501 0.00000000E+00 0.00000000E+00 -.16784050E+03 0.16784081E+03 0.32000000E+00 0.0000E+00 0.9000E+01
       25  2    1    2    0    0 0.56241092E+02 0.18828999E+03 0.87642543E+03 0.94694400E+03 0.29994201E+03 0.0000E+00 0.0000E+00
       23  2    3    3    0    0 0.10424600E+02 0.20324908E+03 0.38836950E+03 0.44810859E+03 0.92474714E+02 0.0000E+00 0.0000E+00
       23  1    1    2    0    0 -.56241092E+02 -.18828999E+03 -.44085891E+02 0.22107690E+03 0.91188000E+02 0.0000E+00 0.9000E+01
      -13  1    4    4    0    0 -.73822833E+01 0.20275452E+03 0.33295559E+03 0.38990169E+03 0.10565837E+00 0.0000E+00 0.9000E+01
       13  1    4    4    0    0 0.17806883E+02 0.49456318E+00 0.55413915E+02 0.58206897E+02 0.10565837E+00 0.0000E+00 0.9000E+01
       23  1    3    3    0    0 0.45816492E+02 -.14959090E+02 0.48805593E+03 0.49883541E+03 0.91188000E+02 0.0000E+00 0.9000E+01
#aMCatNLO 1  0  0  2  2 0.15392551D+02 0.00000000D+00  -5  7  0 0.00000000D+00 0.00000000D+00 0.00000000D+00 0.00000000D+00 0.00000000D+00
  <mgrwgt>
 0.3730836748D-03    4    2    0
 0.409720548328621D+03 0.000000000000000D+00 0.000000000000000D+00 0.409720548328621D+03
 0.409720548328621D+03 0.000000000000000D+00 0.000000000000000D+00 -.409720548328621D+03
 0.359900029807891D+03 -.562410915963006D+02 -.188289989462249D+03 -.287396241443906D+03
 0.217564660473388D+03 -.738231615260958D+01 0.202754780295047D+03 0.785517788635682D+02
 0.266809598721031D+02 0.178069159735072D+02 0.494299289640459D+00 0.198631072952218D+02
 0.215295446503859D+03 0.458164917754029D+02 -.149590901224381D+02 0.188981355285116D+03
 0.000000000000000D+00 -.000000000000000D+00 -.000000000000000D+00 0.000000000000000D+00
 0.439792789063576D+03 0.000000000000000D+00 0.000000000000000D+00 0.439792789063576D+03
 0.411767250438250D+03 0.000000000000000D+00 0.000000000000000D+00 -.411767250438250D+03
 0.357707458634320D+03 -.499513472623147D+02 -.185869948967604D+03 -.287396241443906D+03
 0.218841269208923D+03 -.355727005464347D+01 0.204226504098023D+03 0.785517788635682D+02
 0.270011793517015D+02 0.182774335425924D+02 0.675335514670355D+00 0.198631072952218D+02
 0.216035745138229D+03 0.495970583976820D+02 -.135044802316701D+02 0.188981355285116D+03
 0.319743871686520D+02 -.143658746233163D+02 -.552741041341867D+01 0.280255386253261D+02
0.117928089411D-04 0.000000000000D+00 0.000000000000D+00 0.833989048259D-06 0.000000000000D+00  7 2 -2 23 -13 13 23 21 0 0.15387388D+00 0.25821643D-01 0.73029949D+05 0.73029949D+05 0.73029949D+05 0.11330985D+01  1  2  2  2  7  2       -2 0.491729410597D-03 0.100000000000D+01
-.517196124937D-06 0.000000000000D+00 -.452874914517D-07 0.833989048259D-06 0.000000000000D+00  7 2 -2 23 -13 13 23 21 2 0.15387388D+00 0.25821643D-01 0.73029949D+05 0.73029949D+05 0.73029949D+05 0.11330985D+01  1  2  3  2  7  2       -2 -.276885053439D-04 0.100000000000D+01
0.733203878689D-06 0.000000000000D+00 0.000000000000D+00 0.833989048259D-06 0.000000000000D+00  7 2 -2 23 -13 13 23 21 2 0.15387388D+00 0.25821643D-01 0.73029949D+05 0.73029949D+05 0.73029949D+05 0.11330985D+01  1  2 15  2  7  2       -2 0.392526520103D-04 0.100000000000D+01
-.243220230943D-05 0.000000000000D+00 0.000000000000D+00 0.833989048259D-06 0.000000000000D+00  7 2 -2 23 -13 13 23 21 2 0.15387388D+00 0.25821643D-01 0.73029949D+05 0.73029949D+05 0.73029949D+05 0.11330985D+01  1  2  4  2  7  2       -2 -.130209882470D-03 0.100000000000D+01
  </mgrwgt>
  </event>
  <event>
  8     66 0.29152272E-05 0.13971444E+03 0.75467711E-02 0.10224269E+00
        4 -1    0    0  501    0 0.00000000E+00 0.00000000E+00 0.25729657E+03 0.25730124E+03 0.15500000E+01 0.0000E+00 0.9000E+01
       -4 -1    0    0    0  501 0.00000000E+00 0.00000000E+00 -.21943509E+03 0.21944057E+03 0.15500000E+01 0.0000E+00 0.9000E+01
       25  2    1    2    0    0 0.10810887E+03 0.22853500E+01 -.30834114E+02 0.31949333E+03 0.29905266E+03 0.0000E+00 0.0000E+00
       23  2    3    3    0    0 0.13696740E+03 0.71662258E+02 0.36928197E+02 0.18328410E+03 0.91289765E+02 0.0000E+00 0.0000E+00
       23  1    1    2    0    0 -.10810887E+03 -.22853500E+01 0.68695593E+02 0.15724848E+03 0.91188000E+02 0.0000E+00 0.9000E+01
      -11  1    4    4    0    0 0.21383750E+02 0.38260635E+02 -.22305580E+02 0.49180076E+02 0.51099893E-03 0.0000E+00 0.9000E+01
       11  1    4    4    0    0 0.11558365E+03 0.33401623E+02 0.59233777E+02 0.13410403E+03 0.51099893E-03 0.0000E+00 0.9000E+01
       23  1    3    3    0    0 -.28858537E+02 -.69376908E+02 -.67762311E+02 0.13620922E+03 0.91188000E+02 0.0000E+00 0.9000E+01
#aMCatNLO 1  0  0  1  2 0.10146954D+03 0.00000000D+00  -5  7  0 0.00000000D+00 0.00000000D+00 0.00000000D+00 0.00000000D+00 0.00000000D+00
  <mgrwgt>
 0.3201148579D-04    9    2    0
 0.237618003446695D+03 0.000000000000000D+00 0.000000000000000D+00 0.237618003446695D+03
 0.237618003446695D+03 0.000000000000000D+00 0.000000000000000D+00 -.237618003446695D+03
 0.152273837441053D+03 -.108108867403700D+03 -.228534996372835D+01 0.563854607967040D+02
 0.511129634140072D+02 0.213837504875334D+02 0.382606346779674D+02 -.262943735062782D+02
 0.129809856521163D+03 0.115583654055607D+03 0.334016231517277D+02 0.487375557042902D+02
 0.142039349517166D+03 -.288585371394403D+02 -.693769078659668D+02 -.788286429947160D+02
 0.000000000000000D+00 -.000000000000000D+00 0.000000000000000D+00 0.000000000000000D+00
 0.331688907270989D+03 0.000000000000000D+00 0.000000000000000D+00 0.331688907270989D+03
 0.271988392784622D+03 0.000000000000000D+00 0.000000000000000D+00 -.271988392784622D+03
 0.141712062782580D+03 -.887802706439419D+02 -.265669107956831D+02 0.563854607967040D+02
 0.487171144100413D+02 0.279472466187713D+02 0.300152388759937D+02 -.262943735062782D+02
 0.142525801544658D+03 0.133488819283101D+03 0.109082490034934D+02 0.487375557042902D+02
 0.152992888911894D+03 -.946114711704056D+01 -.937448902738085D+02 -.788286429947160D+02
 0.117729432406437D+03 -.631946481408895D+02 0.793883131900045D+02 0.597005144863663D+02
0.203255292337D-05 0.000000000000D+00 0.000000000000D+00 0.482464986845D-07 0.000000000000D+00  7 4 -4 23 -11 11 23 21 0 0.39584868D-01 0.33760025D-01 0.44891272D+05 0.44891272D+05 0.44891272D+05 0.11514355D+01  1  2  2  1  7  1        4 0.268083437753D-04 0.100000000000D+01
-.111114458984D-06 0.000000000000D+00 -.780553840922D-08 0.482464986845D-07 0.000000000000D+00  7 4 -4 23 -11 11 23 21 2 0.39584868D-01 0.33760025D-01 0.44891272D+05 0.44891272D+05 0.44891272D+05 0.11514355D+01  1  2  3  1  7  1        4 -.194302295475D-05 0.100000000000D+01
0.132467138427D-06 0.000000000000D+00 0.000000000000D+00 0.482464986845D-07 0.000000000000D+00  7 4 -4 23 -11 11 23 21 2 0.39584868D-01 0.33760025D-01 0.44891272D+05 0.44891272D+05 0.44891272D+05 0.11514355D+01  1  2 15  1  7  1        4 0.231641042098D-05 0.100000000000D+01
0.100474447248D-05 0.000000000000D+00 0.000000000000D+00 0.482464986845D-07 0.000000000000D+00  7 4 -4 23 -11 11 23 21 2 0.57223881D-01 0.33760025D-01 0.72239498D+05 0.72239498D+05 0.72239498D+05 0.11334988D+01  1  2 12  1  7  1        4 0.772349241741D-05 0.100000000000D+01
-.147917209738D-05 0.000000000000D+00 0.000000000000D+00 0.482464986845D-07 0.000000000000D+00  7 4 -4 23 -11 11 23 21 2 0.39584868D-01 0.33760025D-01 0.44891272D+05 0.44891272D+05 0.44891272D+05 0.11514355D+01  1  2  4  1  7  1        4 -.258658086941D-04 0.100000000000D+01
-.193834614316D-05 0.000000000000D+00 -.831705779410D-06 0.482464986845D-07 0.000000000000D+00  7 4 -4 23 -11 11 23 21 2 0.61922491D-01 0.33760025D-01 0.44891272D+05 0.44891272D+05 0.44891272D+05 0.11514355D+01  1  2  5  1  7  1        4 -.125685234684D-04 0.100000000000D+01
0.216677693908D-05 0.000000000000D+00 0.754874023459D-06 0.482464986845D-07 0.000000000000D+00  7 4 -4 23 -11 11 23 21 2 0.39584868D-01 0.33760025D-01 0.44891272D+05 0.44891272D+05 0.44891272D+05 0.11514355D+01  1  2  6  1  7  1        4 0.378897343238D-04 0.100000000000D+01
0.450524848057D-07 0.000000000000D+00 0.000000000000D+00 0.482464986845D-07 0.000000000000D+00  7 21 -4 23 -11 11 23 -4 2 0.57223881D-01 0.33760025D-01 0.72239498D+05 0.72239498D+05 0.72239498D+05 0.11334988D+01  1  2 12  3  7  1        4 0.760571665046D-05 0.100000000000D+01
-.674299557902D-07 0.000000000000D+00 -.430330879646D-07 0.482464986845D-07 0.000000000000D+00  7 21 -4 23 -11 11 23 -4 2 0.61922491D-01 0.33760025D-01 0.44891272D+05 0.44891272D+05 0.44891272D+05 0.11514355D+01  1  2  5  3  7  1        4 -.995485667935D-05 0.100000000000D+01
  </mgrwgt>
  </event>
  <event>
  8     66 0.29152272E-05 0.30659217E+03 0.75467711E-02 0.91999659E-01
        2 -1    0    0  501    0 0.00000000E+00 0.00000000E+00 0.16074186E+04 0.16074186E+04 0.32000000E+00 0.0000E+00 0.9000E+01
       -2 -1    0    0    0  501 0.00000000E+00 0.00000000E+00 -.23865577E+03 0.23865599E+03 0.32000000E+00 0.0000E+00 0.9000E+01
       25  2    1    2    0    0 0.43860664E+03 -.36663944E+03 0.58149089E+03 0.86887831E+03 0.30002932E+03 0.0000E+00 0.0000E+00
       23  2    3    3    0    0 0.15332602E+03 -.65804157E+02 0.67115147E+02 0.20195660E+03 0.91885648E+02 0.0000E+00 0.0000E+00
       23  1    1    2    0    0 -.43860664E+03 0.36663944E+03 0.78727191E+03 0.97719628E+03 0.91188000E+02 0.0000E+00 0.9000E+01
      -13  1    4    4    0    0 0.11450626E+03 -.85089933E+02 0.69204007E+02 0.15855972E+03 0.10565837E+00 0.0000E+00 0.9000E+01
       13  1    4    4    0    0 0.38819758E+02 0.19285776E+02 -.20888605E+01 0.43396881E+02 0.10565837E+00 0.0000E+00 0.9000E+01
       23  1    3    3    0    0 0.28528063E+03 -.30083528E+03 0.51437575E+03 0.66692171E+03 0.91188000E+02 0.0000E+00 0.9000E+01
#aMCatNLO 1  0  0  2  1 0.78506768D+02 0.00000000D+00  -5  7  0 0.00000000D+00 0.00000000D+00 0.00000000D+00 0.00000000D+00 0.00000000D+00
  <mgrwgt>
 0.4600436656D-03    6    2    0
 0.619370607799437D+03 0.000000000000000D+00 0.000000000000000D+00 0.619370607799437D+03
 0.619370607799437D+03 0.000000000000000D+00 0.000000000000000D+00 -.619370607799437D+03
 0.586392637449748D+03 -.438606643929458D+03 0.366639439309898D+03 0.934922850011361D+02
 0.159831089376268D+03 0.114506359002408D+03 -.850900709811061D+02 -.720690689522669D+02
 0.669816106112795D+02 0.388196581236704D+02 0.192859136840912D+02 -.510648982825994D+02
 0.425535878161578D+03 0.285280626803379D+03 -.300835282012883D+03 0.296416822337301D+02
 0.000000000000000D+00 0.000000000000000D+00 -.000000000000000D+00 0.000000000000000D+00
 0.669391812830759D+03 0.000000000000000D+00 0.000000000000000D+00 0.669391812830759D+03
 0.652201436609836D+03 0.000000000000000D+00 0.000000000000000D+00 -.652201436609836D+03
 0.623786258964411D+03 -.468641974865049D+03 0.390420206404162D+03 0.934922850011361D+02
 0.151114702714570D+03 0.106789020850048D+03 -.789797930027310D+02 -.720690689522669D+02
 0.659458571677052D+02 0.355205421855210D+02 0.218980210023140D+02 -.510648982825994D+02
 0.400379635867881D+03 0.264782297290100D+03 -.284605529092161D+03 0.296416822337301D+02
 0.803667947260275D+02 0.615501145393795D+02 -.487329053115841D+02 0.171903762209232D+02
0.334283877142D-04 0.000000000000D+00 0.000000000000D+00 0.146015796154D-05 0.000000000000D+00  7 2 -2 23 -13 13 23 21 0 0.24729518D+00 0.36716292D-01 0.35366858D+06 0.35366858D+06 0.35366858D+06 0.10793031D+01  1  2  2  2  7  2       -2 0.323822100934D-03 0.100000000000D+01
-.185340220253D-05 0.000000000000D+00 -.128373810719D-06 0.146015796154D-05 0.000000000000D+00  7 2 -2 23 -13 13 23 21 2 0.24729518D+00 0.36716292D-01 0.35366858D+06 0.35366858D+06 0.35366858D+06 0.10793031D+01  1  2  3  2  7  2       -2 -.209145043036D-04 0.100000000000D+01
0.196790467495D-05 0.000000000000D+00 0.000000000000D+00 0.146015796154D-05 0.000000000000D+00  7 2 -2 23 -13 13 23 21 2 0.24729518D+00 0.36716292D-01 0.35366858D+06 0.35366858D+06 0.35366858D+06 0.10793031D+01  1  2 15  2  7  2       -2 0.222065943038D-04 0.100000000000D+01
0.372509990358D-04 0.000000000000D+00 0.000000000000D+00 0.146015796154D-05 0.000000000000D+00  7 2 -2 23 -13 13 23 21 2 0.24729518D+00 0.40051775D-01 0.40263975D+06 0.40263975D+06 0.40263975D+06 0.10752217D+01  1  2 12  2  7  2       -2 0.352784999286D-03 0.100000000000D+01
-.241628970131D-04 0.000000000000D+00 0.000000000000D+00 0.146015796154D-05 0.000000000000D+00  7 2 -2 23 -13 13 23 21 2 0.24729518D+00 0.36716292D-01 0.35366858D+06 0.35366858D+06 0.35366858D+06 0.10793031D+01  1  2  4  2  7  2       -2 -.272663436397D-03 0.100000000000D+01
0.535602911093D-06 0.000000000000D+00 0.000000000000D+00 0.146015796154D-05 0.000000000000D+00  7 2 21 23 -13 13 23 2 2 0.24729518D+00 0.40051775D-01 0.40263975D+06 0.40263975D+06 0.40263975D+06 0.10752217D+01  1  2 12  4  7  2       -2 0.548079118136D-04 0.100000000000D+01
  </mgrwgt>
  </event>
  <event>
  8     66 0.29152272E-05 0.19268192E+03 0.75467711E-02 0.98064443E-01
        2 -1    0    0  501    0 0.00000000E+00 0.00000000E+00 0.46086168E+03 0.46086179E+03 0.32000000E+00 0.0000E+00 0.9000E+01
       -2 -1    0    0    0  501 0.00000000E+00 0.00000000E+00 -.11926803E+03 0.11926846E+03 0.32000000E+00 0.0000E+00 0.9000E+01
       25  2    1    2    0    0 0.84335783E+02 -.71252270E+02 0.28335667E+03 0.42554628E+03 0.29767300E+03 0.0000E+00 0.0000E+00
       23  2    3    3    0    0 0.80324748E+02 0.12826392E+02 0.27179468E+03 0.30090984E+03 0.10028859E+03 0.0000E+00 0.0000E+00
       23  1    1    2    0    0 -.84335783E+02 0.71252270E+02 0.58236975E+02 0.15458398E+03 0.91188000E+02 0.0000E+00 0.9000E+01
      -11  1    4    4    0    0 -.14969962E+02 0.17040999E+02 0.11628062E+03 0.11847226E+03 0.51099893E-03 0.0000E+00 0.9000E+01
       11  1    4    4    0    0 0.95294710E+02 -.42146072E+01 0.15551407E+03 0.18243758E+03 0.51099893E-03 0.0000E+00 0.9000E+01
       23  1    3    3    0    0 0.40110342E+01 -.84078662E+02 0.11561990E+02 0.12463643E+03 0.91188000E+02 0.0000E+00 0.9000E+01
#aMCatNLO 1  0  0  1  1 0.27524835D+03 0.00000000D+00  -5  7  0 0.00000000D+00 0.00000000D+00 0.00000000D+00 0.00000000D+00 0.00000000D+00
  <mgrwgt>
 0.3256344290D-03    5    2    0
 0.234448764051047D+03 0.000000000000000D+00 0.000000000000000D+00 0.234448764051047D+03
 0.234448764051047D+03 0.000000000000000D+00 0.000000000000000D+00 -.234448764051047D+03
 0.148828813769435D+03 -.843357825613737D+02 0.712522701965114D+02 -.405629663069817D+02
 0.618655947740923D+02 -.149699608029164D+02 0.170409988171154D+02 0.575574187192790D+02
 0.112423156963327D+03 0.952947092064180D+02 -.421460679723994D+01 0.594989219096419D+02
 0.145779962595239D+03 0.401103415787202D+01 -.840786622163869D+02 -.764933743219393D+02
 0.000000000000000D+00 0.000000000000000D+00 0.000000000000000D+00 0.000000000000000D+00
 0.635732254535010D+03 0.000000000000000D+00 0.000000000000000D+00 0.635732254535010D+03
 0.323909802089120D+03 0.000000000000000D+00 0.000000000000000D+00 -.323909802089120D+03
 0.194118992936091D+03 -.164745878147971D+03 0.240909417033604D+02 -.405629663069817D+02
 0.742561585774546D+02 -.468860803534682D+02 -.167812578247203D+01 0.575574187192790D+02
 0.833610272771352D+02 0.493896919959206D+02 -.311383603427943D+02 0.594989219096419D+02
 0.191979324114486D+03 -.751825224083325D+02 -.130526478358297D+03 -.764933743219393D+02
 0.415926553718964D+03 0.237424788913851D+03 0.139252022780203D+03 0.311822452445890D+03
0.178026367350D-05 0.000000000000D+00 0.000000000000D+00 0.238827838904D-09 0.000000000000D+00  7 2 -2 23 -11 11 23 21 0 0.70901839D-01 0.18348970D-01 0.37126322D+05 0.37126322D+05 0.37126322D+05 0.11588442D+01  1  2  2  1  7  1        2 0.331190285161D-03 0.100000000000D+01
-.942746664690D-07 0.000000000000D+00 -.683668126044D-08 0.238827838904D-09 0.000000000000D+00  7 2 -2 23 -11 11 23 21 2 0.70901839D-01 0.18348970D-01 0.37126322D+05 0.37126322D+05 0.37126322D+05 0.11588442D+01  1  2  3  1  7  1        2 -.235525723805D-04 0.100000000000D+01
0.110800739681D-06 0.000000000000D+00 0.000000000000D+00 0.238827838904D-09 0.000000000000D+00  7 2 -2 23 -11 11 23 21 2 0.70901839D-01 0.18348970D-01 0.37126322D+05 0.37126322D+05 0.37126322D+05 0.11588442D+01  1  2 15  1  7  1        2 0.276812694109D-04 0.100000000000D+01
-.184001010474D-06 0.000000000000D+00 -.593253259315D-06 0.238827838904D-09 0.000000000000D+00  7 2 -2 23 -11 11 23 21 2 0.23083653D+00 0.18348970D-01 0.37126322D+05 0.37126322D+05 0.37126322D+05 0.11588442D+01  1  2  5  1  7  1        2 -.967161641051D-05 0.100000000000D+01
-.631522419374D-09 0.000000000000D+00 -.809014689736D-07 0.238827838904D-09 0.000000000000D+00  7 21 -2 23 -11 11 23 -2 2 0.23083653D+00 0.18348970D-01 0.37126322D+05 0.37126322D+05 0.37126322D+05 0.11588442D+01  1  2  5  3  7  1        2 -.129367945767D-07 0.100000000000D+01
  </mgrwgt>
  </event>
  <event>
  8     66 0.29152272E-05 0.42014859E+03 0.75467711E-02 0.81977599E-01
        2 -1    0    0  501    0 0.00000000E+00 0.00000000E+00 0.23377158E+04 0.23377158E+04 0.32000000E+00 0.0000E+00 0.9000E+01
       -2 -1    0    0    0  501 0.00000000E+00 0.00000000E+00 -.35062312E+03 0.35062327E+03 0.32000000E+00 0.0000E+00 0.9000E+01
       25  2    1    2    0    0 -.11269407E+03 -.35959128E+03 0.21948498E+04 0.22484708E+04 0.31024101E+03 0.0000E+00 0.0000E+00
       23  2    3    3    0    0 0.60925007E+02 -.77645819E+02 0.85734241E+03 0.86757324E+03 0.88918990E+02 0.0000E+00 0.0000E+00
       23  1    1    2    0    0 0.11269407E+03 0.35959128E+03 -.20775711E+03 0.43986829E+03 0.91188000E+02 0.0000E+00 0.9000E+01
      -13  1    4    4    0    0 0.15822157E+01 -.37415290E+02 0.98947792E+02 0.10579737E+03 0.10565837E+00 0.0000E+00 0.9000E+01
       13  1    4    4    0    0 0.59342792E+02 -.40230529E+02 0.75839462E+03 0.76177587E+03 0.10565837E+00 0.0000E+00 0.9000E+01
       23  1    3    3    0    0 -.17361907E+03 -.28194546E+03 0.13375074E+04 0.13808976E+04 0.91188000E+02 0.0000E+00 0.9000E+01
#aMCatNLO 1  0  0  2  1 0.17629733D+04 0.00000000D+00  -5  7  0 0.00000000D+00 0.00000000D+00 0.00000000D+00 0.00000000D+00 0.00000000D+00
  <mgrwgt>
 0.7192215625D-03    5    2    0
 0.905349345585079D+03 0.000000000000000D+00 0.000000000000000D+00 0.905349345585079D+03
 0.905349345585079D+03 0.000000000000000D+00 0.000000000000000D+00 -.905349345585079D+03
 0.881067494717336D+03 0.112694065473591D+03 0.359591282463482D+03 -.791175603824325D+03
 0.484896472977520D+02 0.158213360977540D+01 -.374152867930230D+02 0.308032313645345D+02
 0.298731138539316D+03 0.593428707283366D+02 -.402305342087756D+02 0.290000380937668D+03
 0.582410410615754D+03 -.173619069811703D+03 -.281945461461684D+03 0.470371991522123D+03
 0.000000000000000D+00 -.000000000000000D+00 0.000000000000000D+00 -.000000000000000D+00
 0.188698983173218D+04 0.000000000000000D+00 0.000000000000000D+00 0.188698983173218D+04
 0.251003058669812D+04 0.000000000000000D+00 0.000000000000000D+00 -.251003058669812D+04
 0.936660616177785D+03 0.360426742962053D+03 -.336380120437471D+03 -.791175603824325D+03
 0.102513340629214D+03 0.221618750373774D+02 -.952312828816865D+02 0.308032313645345D+02
 0.473216877367423D+03 0.164549335719578D+03 -.335793847763219D+03 0.290000380937668D+03
 0.101480217530035D+04 0.440602123953681D+02 -.893485920944200D+03 0.470371991522123D+03
 0.186982740895553D+04 -.591198166114376D+03 0.166089117202658D+04 -.623040754965938D+03
0.354266609389D-03 0.000000000000D+00 0.000000000000D+00 0.685137881946D-08 0.000000000000D+00  7 2 -2 23 -13 13 23 21 0 0.35964860D+00 0.53942031D-01 0.17652484D+06 0.17652484D+06 0.17652484D+06 0.11020144D+01  1  2  2  2  7  2       -2 0.673220473592D-03 0.100000000000D+01
-.557767037669D-05 0.000000000000D+00 -.136047706059D-05 0.685137881946D-08 0.000000000000D+00  7 2 -2 23 -13 13 23 21 2 0.35964860D+00 0.53942031D-01 0.17652484D+06 0.17652484D+06 0.17652484D+06 0.11020144D+01  1  2  3  2  7  2       -2 -.128722499577D-04 0.100000000000D+01
0.218749868300D-04 0.000000000000D+00 0.000000000000D+00 0.685137881946D-08 0.000000000000D+00  7 2 -2 23 -13 13 23 21 2 0.35964860D+00 0.53942031D-01 0.17652484D+06 0.17652484D+06 0.17652484D+06 0.11020144D+01  1  2 15  2  7  2       -2 0.504834956677D-04 0.100000000000D+01
0.636764914191D-03 0.000000000000D+00 -.187910594349D-03 0.685137881946D-08 0.000000000000D+00  7 2 -2 23 -13 13 23 21 2 0.35964860D+00 0.39063575D+00 0.17652484D+06 0.17652484D+06 0.17652484D+06 0.11020144D+01  1  2  5  2  7  2       -2 0.324825977298D-05 0.100000000000D+01
0.134969002140D-03 0.000000000000D+00 -.454124540056D-04 0.685137881946D-08 0.000000000000D+00  7 2 21 23 -13 13 23 2 2 0.35964860D+00 0.39063575D+00 0.17652484D+06 0.17652484D+06 0.17652484D+06 0.11020144D+01  1  2  5  4  7  2       -2 0.514158343906D-05 0.100000000000D+01
  </mgrwgt>
  </event>
  <event>
  8     66 0.29152272E-05 0.20022917E+03 0.75467711E-02 0.10516676E+00
        2 -1    0    0  501    0 0.00000000E+00 0.00000000E+00 0.30261684E+04 0.30261685E+04 0.32000000E+00 0.0000E+00 0.9000E+01
       -2 -1    0    0    0  501 0.00000000E+00 0.00000000E+00 -.60469158E+02 0.60470005E+02 0.32000000E+00 0.0000E+00 0.9000E+01
       25  2    1    2    0    0 -.42788420E+02 -.59118789E+02 0.29530523E+04 0.29691605E+04 0.30011684E+03 0.0000E+00 0.0000E+00
       23  2    3    3    0    0 -.49606630E+02 -.14725761E+03 0.14960616E+04 0.15066448E+04 0.87364813E+02 0.0000E+00 0.0000E+00
       23  1    1    2    0    0 0.42788420E+02 0.59118789E+02 0.12646975E+02 0.11747799E+03 0.91188000E+02 0.0000E+00 0.9000E+01
      -13  1    4    4    0    0 -.47551979E+02 -.11648306E+03 0.14024661E+04 0.14080983E+04 0.10565837E+00 0.0000E+00 0.9000E+01
       13  1    4    4    0    0 -.20546506E+01 -.30774546E+02 0.93595528E+02 0.98546579E+02 0.10565837E+00 0.0000E+00 0.9000E+01
       23  1    3    3    0    0 0.68182098E+01 0.88138820E+02 0.14569907E+04 0.14625156E+04 0.91188000E+02 0.0000E+00 0.9000E+01
#aMCatNLO 1  0  0  2  1 0.29120459D+02 0.00000000D+00  -5  7  0 0.00000000D+00 0.00000000D+00 0.00000000D+00 0.00000000D+00 0.00000000D+00
  <mgrwgt>
 0.7615040866D-03    4    2    0
 0.427774696021256D+03 0.000000000000000D+00 0.000000000000000D+00 0.427774696021256D+03
 0.427774696021256D+03 0.000000000000000D+00 0.000000000000000D+00 -.427774696021256D+03
 0.379995532511062D+03 0.427884198577114D+02 0.591187886211026D+02 -.361601262915963D+03
 0.218570350950877D+03 -.475520455472013D+02 -.116483188777094D+03 0.178727356639621D+03
 0.310925786432895D+02 -.205458409833627D+01 -.307744201553992D+02 -.393219976234267D+01
 0.225890929937283D+03 0.681820978782622D+01 0.881388203113905D+02 0.186806106038684D+03
 0.000000000000000D+00 0.000000000000000D+00 -.000000000000000D+00 0.000000000000000D+00
 0.479063451719252D+03 0.000000000000000D+00 0.000000000000000D+00 0.479063451719252D+03
 0.432175945200122D+03 0.000000000000000D+00 0.000000000000000D+00 -.432175945200122D+03
 0.382002327179566D+03 0.409601531841106D+02 0.719535901489245D+02 -.361601262915963D+03
 0.215000041067496D+03 -.485923139525602D+02 -.109180294340940D+03 0.178727356639621D+03
 0.300834408562956D+02 -.220136414010707D+01 -.297439945990097D+02 -.393219976234267D+01
 0.228959028141949D+03 0.572688517415523D+01 0.958001396479766D+02 0.186806106038684D+03
 0.551945596740661D+02 0.410663973440149D+01 -.288294408569512D+02 0.468875065191298D+02
0.514893784243D-04 0.000000000000D+00 0.000000000000D+00 0.136327514025D-06 0.000000000000D+00  7 2 -2 23 -13 13 23 21 0 0.46556444D+00 0.93030138D-02 0.40091719D+05 0.40091719D+05 0.40091719D+05 0.11558288D+01  1  2  2  2  7  2       -2 0.836054550795D-03 0.100000000000D+01
-.856216769016D-06 0.000000000000D+00 -.197732770614D-06 0.136327514025D-06 0.000000000000D+00  7 2 -2 23 -13 13 23 21 2 0.46556444D+00 0.93030138D-02 0.40091719D+05 0.40091719D+05 0.40091719D+05 0.11558288D+01  1  2  3  2  7  2       -2 -.185732436144D-04 0.100000000000D+01
0.315397785524D-05 0.000000000000D+00 0.000000000000D+00 0.136327514025D-06 0.000000000000D+00  7 2 -2 23 -13 13 23 21 2 0.46556444D+00 0.93030138D-02 0.40091719D+05 0.40091719D+05 0.40091719D+05 0.11558288D+01  1  2 15  2  7  2       -2 0.684167855379D-04 0.100000000000D+01
-.573449830167D-05 0.000000000000D+00 0.000000000000D+00 0.136327514025D-06 0.000000000000D+00  7 2 -2 23 -13 13 23 21 2 0.46556444D+00 0.93030138D-02 0.40091719D+05 0.40091719D+05 0.40091719D+05 0.11558288D+01  1  2  4  2  7  2       -2 -.124394006071D-03 0.100000000000D+01
  </mgrwgt>
  </event>
  <event>
  8     66 0.29152272E-05 0.16674089E+03 0.75467711E-02 0.91928441E-01
        2 -1    0    0  501    0 0.00000000E+00 0.00000000E+00 0.66008758E+03 0.66008765E+03 0.32000000E+00 0.0000E+00 0.9000E+01
       -2 -1    0    0    0  501 0.00000000E+00 0.00000000E+00 -.44364095E+03 0.44364106E+03 0.32000000E+00 0.0000E+00 0.9000E+01
       25  2    1    2    0    0 0.53008408E+02 -.79177355E+02 0.61119198E+03 0.68753394E+03 0.30011389E+03 0.0000E+00 0.0000E+00
       23  2    3    3    0    0 0.20778577E+02 0.23222792E+02 0.49784473E+03 0.50673737E+03 0.89231923E+02 0.0000E+00 0.0000E+00
       23  1    1    2    0    0 -.53008408E+02 0.79177355E+02 -.39474535E+03 0.41619477E+03 0.91188000E+02 0.0000E+00 0.9000E+01
      -11  1    4    4    0    0 0.57089073E+01 -.16922939E+02 0.19378459E+02 0.26353409E+02 0.51099893E-03 0.0000E+00 0.9000E+01
       11  1    4    4    0    0 0.15069669E+02 0.40145730E+02 0.47846627E+03 0.48038396E+03 0.51099893E-03 0.0000E+00 0.9000E+01
       23  1    3    3    0    0 0.32229832E+02 -.10240015E+03 0.11334725E+03 0.18079658E+03 0.91188000E+02 0.0000E+00 0.9000E+01
#aMCatNLO 1  0  0  1  1 0.60844117D+03 0.00000000D+00  -5  7  0 0.00000000D+00 0.00000000D+00 0.00000000D+00 0.00000000D+00 0.00000000D+00
  <mgrwgt>
 0.7847555101D-03    5    2    0
 0.541148763745579D+03 0.000000000000000D+00 0.000000000000000D+00 0.541148763745579D+03
 0.541148763745579D+03 0.000000000000000D+00 0.000000000000000D+00 -.541148763745579D+03
 0.503380455789500D+03 -.530084083716759D+02 0.791773554837980D+02 -.485795931382035D+03
 0.229997862759742D+02 0.570890730583863D+01 -.169229385023017D+02 0.144918148815511D+02
 0.394208753398986D+03 0.150696693323082D+02 0.401457301363858D+02 0.391869578653937D+03
 0.161708532026699D+03 0.322298317335291D+02 -.102400147117882D+03 0.794345378465470D+02
 0.000000000000000D+00 -.000000000000000D+00 0.000000000000000D+00 0.000000000000000D+00
 0.947821797290491D+03 0.000000000000000D+00 0.000000000000000D+00 0.947821797290491D+03
 0.903808418261227D+03 0.000000000000000D+00 0.000000000000000D+00 -.903808418261227D+03
 0.527280774880375D+03 0.165986855259383D+03 -.784884778054147D+02 -.485795931382035D+03
 0.345483218993646D+02 0.179367497300034D+02 -.257263844452381D+02 0.144918148815511D+02
 0.445920489529624D+03 0.193580628670259D+03 -.883733925542804D+02 0.391869578653937D+03
 0.233849620974575D+03 0.116278168296676D+03 -.162910821189471D+03 0.794345378465470D+02
 0.610031008267779D+03 -.493782401956321D+03 0.355499075994405D+03 0.440133790292633D+02
0.488755084726D-04 0.000000000000D+00 0.000000000000D+00 0.106728465855D-05 0.000000000000D+00  7 2 -2 23 -11 11 23 21 0 0.10155195D+00 0.68252468D-01 0.27802523D+05 0.27802523D+05 0.27802523D+05 0.11704136D+01  1  2  2  1  7  1        2 0.566226962593D-03 0.100000000000D+01
0.186020956110D-05 0.000000000000D+00 -.187694821752D-06 0.106728465855D-05 0.000000000000D+00  7 2 -2 23 -11 11 23 21 2 0.10155195D+00 0.68252468D-01 0.27802523D+05 0.27802523D+05 0.27802523D+05 0.11704136D+01  1  2  3  1  7  1        2 0.295215976110D-04 0.100000000000D+01
0.289669964839D-05 0.000000000000D+00 0.000000000000D+00 0.106728465855D-05 0.000000000000D+00  7 2 -2 23 -11 11 23 21 2 0.10155195D+00 0.68252468D-01 0.27802523D+05 0.27802523D+05 0.27802523D+05 0.11704136D+01  1  2 15  1  7  1        2 0.459707353453D-04 0.100000000000D+01
0.323854269467D-04 0.000000000000D+00 -.147996891370D-04 0.106728465855D-05 0.000000000000D+00  7 2 -2 23 -11 11 23 21 2 0.25267897D+00 0.68252468D-01 0.27802523D+05 0.27802523D+05 0.27802523D+05 0.11704136D+01  1  2  5  1  7  1        2 0.137120459451D-03 0.100000000000D+01
0.416400970432D-05 0.000000000000D+00 -.148389214334D-05 0.106728465855D-05 0.000000000000D+00  7 21 -2 23 -11 11 23 -2 2 0.25267897D+00 0.68252468D-01 0.27802523D+05 0.27802523D+05 0.27802523D+05 0.11704136D+01  1  2  5  3  7  1        2 0.591575508005D-05 0.100000000000D+01
  </mgrwgt>
  </event>
  <event>
  8     66 0.29152272E-05 0.20137956E+03 0.75467711E-02 0.10137425E+00
        2 -1    0    0  501    0 0.00000000E+00 0.00000000E+00 0.21927282E+04 0.21927282E+04 0.32000000E+00 0.0000E+00 0.9000E+01
       -2 -1    0    0    0  501 0.00000000E+00 0.00000000E+00 -.56161889E+02 0.56162801E+02 0.32000000E+00 0.0000E+00 0.9000E+01
       25  2    1    2    0    0 0.85675517E+02 -.16541062E+03 0.19075478E+04 0.19399158E+04 0.29972275E+03 0.0000E+00 0.0000E+00
       23  2    3    3    0    0 -.21883820E+02 0.39843067E+02 0.44242496E+03 0.45378045E+03 0.90058204E+02 0.0000E+00 0.0000E+00
       23  1    1    2    0    0 -.85675517E+02 0.16541062E+03 0.22901855E+03 0.30897526E+03 0.91188000E+02 0.0000E+00 0.9000E+01
      -11  1    4    4    0    0 0.29125814E+02 -.73489088E+01 0.10180606E+03 0.10614516E+03 0.51099893E-03 0.0000E+00 0.9000E+01
       11  1    4    4    0    0 -.51009633E+02 0.47191976E+02 0.34061890E+03 0.34763530E+03 0.51099893E-03 0.0000E+00 0.9000E+01
       23  1    3    3    0    0 0.10755934E+03 -.20525368E+03 0.14651228E+04 0.14861353E+04 0.91188000E+02 0.0000E+00 0.9000E+01
#aMCatNLO 1  0  0  1  2 0.17829966D+02 0.00000000D+00  -5  7  0 0.00000000D+00 0.00000000D+00 0.00000000D+00 0.00000000D+00 0.00000000D+00
  <mgrwgt>
 0.1076208828D-02    9    2    0
 0.350925648488093D+03 0.000000000000000D+00 0.000000000000000D+00 0.350925648488093D+03
 0.350925648488093D+03 0.000000000000000D+00 0.000000000000000D+00 -.350925648488093D+03
 0.292851753601022D+03 -.856755173244802D+02 0.165410617428556D+03 -.206750892661387D+03
 0.301965421560906D+02 0.291258138291647D+02 -.734890877152392D+01 0.308409903232912D+01
 0.769949911196138D+02 -.510096333368875D+02 0.471919755351240D+02 0.331536334273931D+02
 0.301808010099459D+03 0.107559336832203D+03 -.205253684192156D+03 0.170513160201665D+03
 0.000000000000000D+00 -.000000000000000D+00 -.000000000000000D+00 0.000000000000000D+00
 0.363825929818872D+03 0.000000000000000D+00 0.000000000000000D+00 0.363825929818872D+03
 0.357254286628399D+03 0.000000000000000D+00 0.000000000000000D+00 -.357254286628399D+03
 0.293964432292217D+03 -.799503876974012D+02 0.170181785158225D+03 -.206750892661387D+03
 0.306551727870044D+02 0.297194988100058D+02 -.685414781296311D+01 0.308409903232912D+01
 0.767918675458095D+02 -.495092491928125D+02 0.484423549809377D+02 0.331536334273931D+02
 0.300666265766654D+03 0.113437230812008D+03 -.200355206794855D+03 0.170513160201665D+03
 0.190024780555860D+02 -.136970927318002D+02 -.114147855313448D+02 0.657164319047324D+01
0.651814156185D-05 0.000000000000D+00 0.000000000000D+00 0.405954133519D-06 0.000000000000D+00  7 2 -2 23 -11 11 23 21 0 0.33734287D+00 0.86403626D-02 0.77272435D+05 0.77272435D+05 0.77272435D+05 0.11310284D+01  1  2  2  1  7  1        2 0.349643637862D-03 0.100000000000D+01
-.338210640720D-06 0.000000000000D+00 -.250313798636D-07 0.405954133519D-06 0.000000000000D+00  7 2 -2 23 -11 11 23 21 2 0.33734287D+00 0.86403626D-02 0.77272435D+05 0.77272435D+05 0.77272435D+05 0.11310284D+01  1  2  3  1  7  1        2 -.232079153950D-04 0.100000000000D+01
0.419363234624D-06 0.000000000000D+00 0.000000000000D+00 0.405954133519D-06 0.000000000000D+00  7 2 -2 23 -11 11 23 21 2 0.33734287D+00 0.86403626D-02 0.77272435D+05 0.77272435D+05 0.77272435D+05 0.11310284D+01  1  2 15  1  7  1        2 0.287765826888D-04 0.100000000000D+01
0.139561245150D-04 0.000000000000D+00 0.000000000000D+00 0.405954133519D-06 0.000000000000D+00  7 2 -2 23 -11 11 23 21 2 0.35270132D+00 0.86403626D-02 0.82428537D+05 0.82428537D+05 0.82428537D+05 0.11286746D+01  1  2 12  1  7  1        2 0.839494507927D-03 0.100000000000D+01
-.130370747444D-04 0.000000000000D+00 0.000000000000D+00 0.405954133519D-06 0.000000000000D+00  7 2 -2 23 -11 11 23 21 2 0.33734287D+00 0.86403626D-02 0.77272435D+05 0.77272435D+05 0.77272435D+05 0.11310284D+01  1  2  4  1  7  1        2 -.894600261605D-03 0.100000000000D+01
-.936383545622D-04 0.000000000000D+00 -.141506478931D-04 0.405954133519D-06 0.000000000000D+00  7 2 -2 23 -11 11 23 21 2 0.35236036D+00 0.86403626D-02 0.77272435D+05 0.77272435D+05 0.77272435D+05 0.11310284D+01  1  2  5  1  7  1        2 -.568151506950D-02 0.100000000000D+01
0.941787485319D-04 0.000000000000D+00 0.141372366011D-04 0.405954133519D-06 0.000000000000D+00  7 2 -2 23 -11 11 23 21 2 0.33734287D+00 0.86403626D-02 0.77272435D+05 0.77272435D+05 0.77272435D+05 0.11310284D+01  1  2  6  1  7  1        2 0.646251822024D-02 0.100000000000D+01
0.198102022946D-06 0.000000000000D+00 0.000000000000D+00 0.405954133519D-06 0.000000000000D+00  7 21 -2 23 -11 11 23 -2 2 0.35270132D+00 0.86403626D-02 0.82428537D+05 0.82428537D+05 0.82428537D+05 0.11286746D+01  1  2 12  3  7  1        2 0.186676673552D-05 0.100000000000D+01
-.707602852807D-06 0.000000000000D+00 -.108372825152D-06 0.405954133519D-06 0.000000000000D+00  7 21 -2 23 -11 11 23 -2 2 0.35236036D+00 0.86403626D-02 0.77272435D+05 0.77272435D+05 0.77272435D+05 0.11310284D+01  1  2  5  3  7  1        2 -.676764136212D-05 0.100000000000D+01
  </mgrwgt>
  </event>
  <event>
  8     66 0.29152272E-05 0.17215077E+03 0.75467711E-02 0.10256374E+00
        2 -1    0    0  501    0 0.00000000E+00 0.00000000E+00 0.42801992E+03 0.42802004E+03 0.32000000E+00 0.0000E+00 0.9000E+01
       -2 -1    0    0    0  501 0.00000000E+00 0.00000000E+00 -.25035786E+03 0.25035806E+03 0.32000000E+00 0.0000E+00 0.9000E+01
       25  2    1    2    0    0 0.89657020E+02 0.13730476E+03 0.29961572E+03 0.45459490E+03 0.29999328E+03 0.0000E+00 0.0000E+00
       23  2    3    3    0    0 -.62908717E+02 0.10072533E+03 0.19197209E+03 0.24360495E+03 0.91580498E+02 0.0000E+00 0.0000E+00
       23  1    1    2    0    0 -.89657020E+02 -.13730476E+03 -.12195365E+03 0.22378321E+03 0.91188000E+02 0.0000E+00 0.9000E+01
      -13  1    4    4    0    0 -.46314069E+02 -.15627181E+01 0.59718210E+02 0.75589092E+02 0.10565837E+00 0.0000E+00 0.9000E+01
       13  1    4    4    0    0 -.16594647E+02 0.10228805E+03 0.13225388E+03 0.16801585E+03 0.10565837E+00 0.0000E+00 0.9000E+01
       23  1    3    3    0    0 0.15256574E+03 0.36579430E+02 0.10764363E+03 0.21098995E+03 0.91188000E+02 0.0000E+00 0.9000E+01
#aMCatNLO 1  0  0  1  2 0.54196431D+01 0.00000000D+00  -5  7  0 0.00000000D+00 0.00000000D+00 0.00000000D+00 0.00000000D+00 0.00000000D+00
  <mgrwgt>
 0.4802499807D-03   11    2    0
 0.327350365934848D+03 0.000000000000000D+00 0.000000000000000D+00 0.327350365934848D+03
 0.327350365934848D+03 0.000000000000000D+00 0.000000000000000D+00 -.327350365934848D+03
 0.264970173902692D+03 -.896570196600246D+02 -.137304760883428D+03 -.187090788598610D+03
 0.621173255166739D+02 -.463141087960102D+02 -.156285602394727D+01 0.413657217611899D+02
 0.138203368211759D+03 -.165946081757727D+02 0.102288186297740D+03 0.914435175859204D+02
 0.189409864238572D+03 0.152565736631807D+03 0.365794306096355D+02 0.542815492514994D+02
 0.000000000000000D+00 0.000000000000000D+00 -.000000000000000D+00 0.000000000000000D+00
 0.336074659069873D+03 0.000000000000000D+00 0.000000000000000D+00 0.336074659069873D+03
 0.328204353206603D+03 0.000000000000000D+00 0.000000000000000D+00 -.328204353206603D+03
 0.264898357380560D+03 -.914185897877453D+02 -.135998406835114D+03 -.187090788598610D+03
 0.624196991148553D+02 -.467281373510837D+02 -.125581864262102D+01 0.413657217611899D+02
 0.138822821699597D+03 -.175155933483819D+02 0.102971175121030D+03 0.914435175859204D+02
 0.188582285319083D+03 0.151309085897028D+03 0.375113439912619D+02 0.542815492514994D+02
 0.955584876238110D+01 0.435323459018298D+01 -.322829363455721D+01 0.787030586326937D+01
0.383288023904D-05 0.000000000000D+00 0.000000000000D+00 0.516471600288D-06 0.000000000000D+00  7 2 -2 23 -13 13 23 21 0 0.65849244D-01 0.38516619D-01 0.67356970D+05 0.67356970D+05 0.67356970D+05 0.11360833D+01  1  2  2  1  7  1        2 0.217376589304D-03 0.100000000000D+01
-.198984634888D-06 0.000000000000D+00 -.147192693385D-07 0.516471600288D-06 0.000000000000D+00  7 2 -2 23 -13 13 23 21 2 0.65849244D-01 0.38516619D-01 0.67356970D+05 0.67356970D+05 0.67356970D+05 0.11360833D+01  1  2  3  1  7  1        2 -.145655689339D-04 0.100000000000D+01
0.235821307932D-06 0.000000000000D+00 0.000000000000D+00 0.516471600288D-06 0.000000000000D+00  7 2 -2 23 -13 13 23 21 2 0.65849244D-01 0.38516619D-01 0.67356970D+05 0.67356970D+05 0.67356970D+05 0.11360833D+01  1  2 15  1  7  1        2 0.172619937147D-04 0.100000000000D+01
0.824083182472D-05 0.000000000000D+00 0.000000000000D+00 0.516471600288D-06 0.000000000000D+00  7 2 -2 23 -13 13 23 21 2 0.67688804D-01 0.38516619D-01 0.68840095D+05 0.68840095D+05 0.68840095D+05 0.11352770D+01  1  2 12  1  7  1        2 0.584452957718D-03 0.100000000000D+01
-.544322706863D-04 0.000000000000D+00 0.000000000000D+00 0.516471600288D-06 0.000000000000D+00  7 2 -2 23 -13 13 23 21 2 0.65849244D-01 0.38516619D-01 0.67356970D+05 0.67356970D+05 0.67356970D+05 0.11360833D+01  1  2  4  1  7  1        2 -.398441312493D-02 0.100000000000D+01
-.209629501811D-03 0.000000000000D+00 -.181531317099D-04 0.516471600288D-06 0.000000000000D+00  7 2 -2 23 -13 13 23 21 2 0.67713022D-01 0.38516619D-01 0.67356970D+05 0.67356970D+05 0.67356970D+05 0.11360833D+01  1  2  5  1  7  1        2 -.148844182295D-01 0.100000000000D+01
0.210061410068D-03 0.000000000000D+00 0.181460633650D-04 0.516471600288D-06 0.000000000000D+00  7 2 -2 23 -13 13 23 21 2 0.65849244D-01 0.38516619D-01 0.67356970D+05 0.67356970D+05 0.67356970D+05 0.11360833D+01  1  2  6  1  7  1        2 0.153763829575D-01 0.100000000000D+01
0.460514314404D-04 0.000000000000D+00 0.000000000000D+00 0.516471600288D-06 0.120905717499D-06  7 2 -2 23 -13 13 23 21 2 0.67604208D-01 0.38617100D-01 0.68840095D+05 0.68840095D+05 0.68840095D+05 0.11352770D+01  1  2 11  1  7  1        2 0.325491051624D-02 0.100000000000D+01
0.298240037214D-06 0.000000000000D+00 0.000000000000D+00 0.516471600288D-06 0.000000000000D+00  7 21 -2 23 -13 13 23 -2 2 0.67688804D-01 0.38516619D-01 0.68840095D+05 0.68840095D+05 0.68840095D+05 0.11352770D+01  1  2 12  3  7  1        2 0.492090425287D-04 0.100000000000D+01
-.104740621490D-05 0.000000000000D+00 -.911448254712D-07 0.516471600288D-06 0.000000000000D+00  7 21 -2 23 -13 13 23 -2 2 0.67713022D-01 0.38516619D-01 0.67356970D+05 0.67356970D+05 0.67356970D+05 0.11360833D+01  1  2  5  3  7  1        2 -.173100110415D-03 0.100000000000D+01
0.225605963094D-06 0.000000000000D+00 0.000000000000D+00 0.516471600288D-06 0.574412360021D-09  7 21 -2 23 -13 13 23 -2 2 0.67604208D-01 0.38617100D-01 0.68840095D+05 0.68840095D+05 0.68840095D+05 0.11352770D+01  1  2 11  3  7  1        2 0.371529575408D-04 0.100000000000D+01
  </mgrwgt>
  </event>
  <event>
  8     66 0.29152272E-05 0.80551847E+03 0.75467711E-02 0.89298519E-01
        2 -1    0    0  501    0 0.00000000E+00 0.00000000E+00 0.31331873E+04 0.31331874E+04 0.32000000E+00 0.0000E+00 0.9000E+01
       -2 -1    0    0    0  501 0.00000000E+00 0.00000000E+00 -.22571879E+03 0.22571902E+03 0.32000000E+00 0.0000E+00 0.9000E+01
       25  2    1    2    0    0 0.22306676E+03 0.74328295E+03 0.19696854E+04 0.21382587E+04 0.30043508E+03 0.0000E+00 0.0000E+00
       23  2    3    3    0    0 0.22776574E+03 0.35486795E+03 0.98051953E+03 0.10716507E+04 0.95958732E+02 0.0000E+00 0.0000E+00
       23  1    1    2    0    0 -.22306676E+03 -.74328295E+03 0.93778310E+03 0.12206477E+04 0.91188000E+02 0.0000E+00 0.9000E+01
      -11  1    4    4    0    0 0.51323421E+02 0.15881557E+03 0.33340525E+03 0.37284788E+03 0.51099893E-03 0.0000E+00 0.9000E+01
       11  1    4    4    0    0 0.17644231E+03 0.19605238E+03 0.64711429E+03 0.69880278E+03 0.51099893E-03 0.0000E+00 0.9000E+01
       23  1    3    3    0    0 -.46989727E+01 0.38841500E+03 0.98916591E+03 0.10666081E+04 0.91188000E+02 0.0000E+00 0.9000E+01
#aMCatNLO 1  0  0  1  2 0.34484849D+02 0.00000000D+00  -5  7  0 0.00000000D+00 0.00000000D+00 0.00000000D+00 0.00000000D+00 0.00000000D+00
  <mgrwgt>
 0.2382910244D-03    4    2    0
 0.840963540728001D+03 0.000000000000000D+00 0.000000000000000D+00 0.840963540728001D+03
 0.840963540728001D+03 0.000000000000000D+00 0.000000000000000D+00 -.840963540728001D+03
 0.816602798172577D+03 -.223066762933680D+03 -.743282953338182D+03 -.237268938528502D+03
 0.168256898652500D+03 0.513234214166973D+02 0.158815569493137D+03 0.213050520959743D+02
 0.276913717796464D+03 0.176442314259371D+03 0.196052379344355D+03 0.843373072612248D+02
 0.420153666834462D+03 -.469897274238869D+01 0.388415004500690D+03 0.131626579171303D+03
 0.000000000000000D+00 0.000000000000000D+00 0.000000000000000D+00 -.000000000000000D+00
 0.845084376436588D+03 0.000000000000000D+00 0.000000000000000D+00 0.845084376436588D+03
 0.916519156890907D+03 0.000000000000000D+00 0.000000000000000D+00 -.916519156890907D+03
 0.832564162024618D+03 -.225892433281909D+03 -.759949927257902D+03 -.237268938528502D+03
 0.164905955565648D+03 0.507525826714298D+02 0.155448526169877D+03 0.213050520959743D+02
 0.272404078556149D+03 0.175501117251203D+03 0.190500809608594D+03 0.843373072612248D+02
 0.412406372658106D+03 -.612547489377398D+01 0.380000904048929D+03 0.131626579171303D+03
 0.793229645229746D+02 0.576420825305095D+01 0.339996874305020D+02 -.714347804543188D+02
0.226874179140D-03 0.000000000000D+00 0.000000000000D+00 0.176743763975D-06 0.000000000000D+00  7 2 -2 23 -11 11 23 21 0 0.48202884D+00 0.34725987D-01 0.64886001D+06 0.64886001D+06 0.64886001D+06 0.10606021D+01  1  2  2  1  7  1        2 0.304397037746D-03 0.100000000000D+01
-.125757035627D-04 0.000000000000D+00 -.871256585242D-06 0.176743763975D-06 0.000000000000D+00  7 2 -2 23 -11 11 23 21 2 0.48202884D+00 0.34725987D-01 0.64886001D+06 0.64886001D+06 0.64886001D+06 0.10606021D+01  1  2  3  1  7  1        2 -.189798438397D-04 0.100000000000D+01
0.147016704828D-04 0.000000000000D+00 0.000000000000D+00 0.176743763975D-06 0.000000000000D+00  7 2 -2 23 -11 11 23 21 2 0.48202884D+00 0.34725987D-01 0.64886001D+06 0.64886001D+06 0.64886001D+06 0.10606021D+01  1  2 15  1  7  1        2 0.221884531991D-04 0.100000000000D+01
-.459266237972D-04 0.000000000000D+00 0.000000000000D+00 0.176743763975D-06 0.000000000000D+00  7 2 -2 23 -11 11 23 21 2 0.48202884D+00 0.34725987D-01 0.64886001D+06 0.64886001D+06 0.64886001D+06 0.10606021D+01  1  2  4  1  7  1        2 -.693146227099D-04 0.100000000000D+01
  </mgrwgt>
  </event>
  <event>
  8     66 0.29152272E-05 0.21877110E+03 0.75467711E-02 0.97625048E-01
        2 -1    0    0  501    0 0.00000000E+00 0.00000000E+00 0.10250920E+04 0.10250920E+04 0.32000000E+00 0.0000E+00 0.9000E+01
       -2 -1    0    0    0  501 0.00000000E+00 0.00000000E+00 -.39178065E+03 0.39178078E+03 0.32000000E+00 0.0000E+00 0.9000E+01
       25  2    1    2    0    0 0.34021625E+03 -.24616322E+02 -.21182955E+03 0.50094081E+03 0.29952776E+03 0.0000E+00 0.0000E+00
       23  2    3    3    0    0 0.10605787E+03 0.59853611E+02 -.17471099E+03 0.23325003E+03 0.95136310E+02 0.0000E+00 0.0000E+00
       23  1    1    2    0    0 -.34021625E+03 0.24616322E+02 0.84514089E+03 0.91593201E+03 0.91188000E+02 0.0000E+00 0.9000E+01
      -13  1    4    4    0    0 0.25717686E+02 -.18772095E+02 -.91433735E+01 0.33127079E+02 0.10565837E+00 0.0000E+00 0.9000E+01
       13  1    4    4    0    0 0.80340189E+02 0.78625706E+02 -.16556762E+03 0.20012295E+03 0.10565837E+00 0.0000E+00 0.9000E+01
       23  1    3    3    0    0 0.23415838E+03 -.84469933E+02 -.37118554E+02 0.26769078E+03 0.91188000E+02 0.0000E+00 0.9000E+01
#aMCatNLO 1  0  0  1  2 0.11252052D+02 0.00000000D+00  -5  7  0 0.00000000D+00 0.00000000D+00 0.00000000D+00 0.00000000D+00 0.00000000D+00
  <mgrwgt>
 0.8637173938D-03    9    2    0
 0.633728120418930D+03 0.000000000000000D+00 0.000000000000000D+00 0.633728120418930D+03
 0.633728120418930D+03 0.000000000000000D+00 0.000000000000000D+00 -.633728120418930D+03
 0.601615917001120D+03 -.340216251704761D+03 0.246163219472412D+02 0.487107174053977D+03
 0.416006825900690D+02 0.257176179687349D+02 -.187722144299554D+02 -.267735855531090D+02
 0.306444534169135D+03 0.803402559564486D+02 0.786258259792290D+02 -.285081874702820D+03
 0.317795107077535D+03 0.234158377779577D+03 -.844699334965149D+02 -.175251713798048D+03
 0.000000000000000D+00 -.000000000000000D+00 -.000000000000000D+00 0.000000000000000D+00
 0.641680154695805D+03 0.000000000000000D+00 0.000000000000000D+00 0.641680154695805D+03
 0.637746018416309D+03 0.000000000000000D+00 0.000000000000000D+00 -.637746018416309D+03
 0.599156782369319D+03 -.335637427607584D+03 0.273444087386686D+02 0.487107174053977D+03
 0.417131597396696D+02 0.260353129238982D+02 -.185829301524881D+02 -.267735855531090D+02
 0.307426607649416D+03 0.826810886370999D+02 0.800205060502464D+02 -.285081874702820D+03
 0.319209636067712D+03 0.236587424233963D+03 -.830226952084007D+02 -.175251713798048D+03
 0.119199872859981D+02 -.966639818737744D+01 -.575928942802624D+01 0.393413627949606D+01
0.387265751792D-04 0.000000000000D+00 0.000000000000D+00 0.242247114834D-06 0.000000000000D+00  7 2 -2 23 -13 13 23 21 0 0.15770647D+00 0.60273959D-01 0.14532924D+06 0.14532924D+06 0.14532924D+06 0.11086377D+01  1  2  2  1  7  1        2 0.315332609181D-03 0.100000000000D+01
-.147576956649D-05 0.000000000000D+00 -.148720245630D-06 0.242247114834D-06 0.000000000000D+00  7 2 -2 23 -13 13 23 21 2 0.15770647D+00 0.60273959D-01 0.14532924D+06 0.14532924D+06 0.14532924D+06 0.11086377D+01  1  2  3  1  7  1        2 -.147692216502D-04 0.100000000000D+01
0.213779249980D-05 0.000000000000D+00 0.000000000000D+00 0.242247114834D-06 0.000000000000D+00  7 2 -2 23 -13 13 23 21 2 0.15770647D+00 0.60273959D-01 0.14532924D+06 0.14532924D+06 0.14532924D+06 0.11086377D+01  1  2 15  1  7  1        2 0.213946214834D-04 0.100000000000D+01
0.245063074019D-04 0.000000000000D+00 0.000000000000D+00 0.242247114834D-06 0.000000000000D+00  7 2 -2 23 -13 13 23 21 2 0.16018058D+00 0.60273959D-01 0.14976049D+06 0.14976049D+06 0.14976049D+06 0.11076067D+01  1  2 12  1  7  1        2 0.239122259477D-03 0.100000000000D+01
-.226548989504D-04 0.000000000000D+00 0.000000000000D+00 0.242247114834D-06 0.000000000000D+00  7 2 -2 23 -13 13 23 21 2 0.15770647D+00 0.60273959D-01 0.14532924D+06 0.14532924D+06 0.14532924D+06 0.11086377D+01  1  2  4  1  7  1        2 -.226725927719D-03 0.100000000000D+01
-.220871023905D-02 0.000000000000D+00 -.276890939199D-03 0.242247114834D-06 0.000000000000D+00  7 2 -2 23 -13 13 23 21 2 0.16034179D+00 0.60273959D-01 0.14532924D+06 0.14532924D+06 0.14532924D+06 0.11086377D+01  1  2  5  1  7  1        2 -.215836064955D-01 0.100000000000D+01
0.221303304209D-02 0.000000000000D+00 0.276852921352D-03 0.242247114834D-06 0.000000000000D+00  7 2 -2 23 -13 13 23 21 2 0.15770647D+00 0.60273959D-01 0.14532924D+06 0.14532924D+06 0.14532924D+06 0.11086377D+01  1  2  6  1  7  1        2 0.221476145464D-01 0.100000000000D+01
0.140576101769D-05 0.000000000000D+00 0.000000000000D+00 0.242247114834D-06 0.000000000000D+00  7 21 -2 23 -13 13 23 -2 2 0.16018058D+00 0.60273959D-01 0.14976049D+06 0.14976049D+06 0.14976049D+06 0.11076067D+01  1  2 12  3  7  1        2 0.924075854388D-05 0.100000000000D+01
-.666767871426D-05 0.000000000000D+00 -.839382737658D-06 0.242247114834D-06 0.000000000000D+00  7 21 -2 23 -13 13 23 -2 2 0.16034179D+00 0.60273959D-01 0.14532924D+06 0.14532924D+06 0.14532924D+06 0.11086377D+01  1  2  5  3  7  1        2 -.438857564494D-04 0.100000000000D+01
  </mgrwgt>
  </event>
  <event>
  8     66 0.29152272E-05 0.13116122E+03 0.75467711E-02 0.10259694E+00
        2 -1    0    0  501    0 0.00000000E+00 0.00000000E+00 0.17074768E+03 0.17074798E+03 0.32000000E+00 0.0000E+00 0.9000E+01
       -2 -1    0    0    0  501 0.00000000E+00 0.00000000E+00 -.72557580E+03 0.72557587E+03 0.32000000E+00 0.0000E+00 0.9000E+01
       25  2    1    2    0    0 0.84279515E+02 -.18747796E+03 -.56432483E+03 0.67125395E+03 0.29978046E+03 0.0000E+00 0.0000E+00
       23  2    3    3    0    0 -.18021062E+02 -.31908608E+02 -.37075628E+02 0.10470809E+03 0.90808945E+02 0.0000E+00 0.0000E+00
       23  1    1    2    0    0 -.84279515E+02 0.18747796E+03 0.94967182E+01 0.22506990E+03 0.91188000E+02 0.0000E+00 0.9000E+01
      -13  1    4    4    0    0 -.43062975E+02 0.19063492E+00 0.81814889E+01 0.43833824E+02 0.10565837E+00 0.0000E+00 0.9000E+01
       13  1    4    4    0    0 0.25041913E+02 -.32099243E+02 -.45257117E+02 0.60874269E+02 0.10565837E+00 0.0000E+00 0.9000E+01
       23  1    3    3    0    0 0.10230058E+03 -.15556935E+03 -.52724920E+03 0.56654585E+03 0.91188000E+02 0.0000E+00 0.9000E+01
#aMCatNLO 1  0  0  1  2 0.74660927D+01 0.00000000D+00  -5  7  0 0.00000000D+00 0.00000000D+00 0.00000000D+00 0.00000000D+00 0.00000000D+00
  <mgrwgt>
 0.4593858291D-03   11    2    0
 0.351980895541933D+03 0.000000000000000D+00 0.000000000000000D+00 0.351980895541933D+03
 0.351980895541933D+03 0.000000000000000D+00 0.000000000000000D+00 -.351980895541933D+03
 0.294056535584834D+03 -.842795151176289D+02 0.187477957327421D+03 0.189480800146162D+03
 0.622599712001388D+02 -.430630671634574D+02 0.190678595807299D+00 0.449648740906807D+02
 0.418390867398551D+02 0.250420053919249D+02 -.320992864701701D+02 -.964587752782888D+01
 0.305806197559037D+03 0.102300576889161D+03 -.155569349453058D+03 -.224799796709014D+03
 0.000000000000000D+00 0.000000000000000D+00 0.000000000000000D+00 0.000000000000000D+00
 0.366850940995616D+03 0.000000000000000D+00 0.000000000000000D+00 0.366850940995616D+03
 0.352939101813309D+03 0.000000000000000D+00 0.000000000000000D+00 -.352939101813309D+03
 0.294867667897235D+03 -.873986311381156D+02 0.187323772859474D+03 0.189480800146162D+03
 0.627195350633264D+02 -.437249954352350D+02 0.157958088544217D+00 0.449648740906807D+02
 0.415929807530613D+02 0.246001245916439D+02 -.321211295679066D+02 -.964587752782888D+01
 0.304821198278596D+03 0.990665143703449D+02 -.155729215968280D+03 -.224799796709014D+03
 0.157886608167059D+02 0.745698761136179D+01 0.368614588168317D+00 0.139118391823069D+02
0.132614602078D-04 0.000000000000D+00 0.000000000000D+00 0.741633629157D-06 0.000000000000D+00  7 2 -2 23 -13 13 23 21 0 0.26268903D-01 0.11162707D+00 0.66555514D+05 0.66555514D+05 0.66555514D+05 0.11365273D+01  1  2  2  1  7  1        2 0.218340109980D-03 0.100000000000D+01
-.650284866688D-06 0.000000000000D+00 -.509274990205D-07 0.741633629157D-06 0.000000000000D+00  7 2 -2 23 -13 13 23 21 2 0.26268903D-01 0.11162707D+00 0.66555514D+05 0.66555514D+05 0.66555514D+05 0.11365273D+01  1  2  3  1  7  1        2 -.138294698510D-04 0.100000000000D+01
0.852357296628D-06 0.000000000000D+00 0.000000000000D+00 0.741633629157D-06 0.000000000000D+00  7 2 -2 23 -13 13 23 21 2 0.26268903D-01 0.11162707D+00 0.66555514D+05 0.66555514D+05 0.66555514D+05 0.11365273D+01  1  2 15  1  7  1        2 0.181269012087D-04 0.100000000000D+01
0.127625035491D-03 0.000000000000D+00 0.000000000000D+00 0.741633629157D-06 0.000000000000D+00  7 2 -2 23 -13 13 23 21 2 0.27413587D-01 0.11162707D+00 0.68498934D+05 0.68498934D+05 0.68498934D+05 0.11354608D+01  1  2 12  1  7  1        2 0.257927578639D-02 0.100000000000D+01
-.135909727658D-03 0.000000000000D+00 0.000000000000D+00 0.741633629157D-06 0.000000000000D+00  7 2 -2 23 -13 13 23 21 2 0.26268903D-01 0.11162707D+00 0.66555514D+05 0.66555514D+05 0.66555514D+05 0.11365273D+01  1  2  4  1  7  1        2 -.289036325060D-02 0.100000000000D+01
-.556042566004D-03 0.000000000000D+00 -.425272086931D-04 0.741633629157D-06 0.000000000000D+00  7 2 -2 23 -13 13 23 21 2 0.27431929D-01 0.11162707D+00 0.66555514D+05 0.66555514D+05 0.66555514D+05 0.11365273D+01  1  2  5  1  7  1        2 -.112552404575D-01 0.100000000000D+01
0.557401655276D-03 0.000000000000D+00 0.424873328362D-04 0.741633629157D-06 0.000000000000D+00  7 2 -2 23 -13 13 23 21 2 0.26268903D-01 0.11162707D+00 0.66555514D+05 0.66555514D+05 0.66555514D+05 0.11365273D+01  1  2  6  1  7  1        2 0.118541423635D-01 0.100000000000D+01
0.621980048521D-05 0.000000000000D+00 0.000000000000D+00 0.741633629157D-06 0.915519170263D-07  7 2 -2 23 -13 13 23 21 2 0.27378678D-01 0.11193096D+00 0.68498934D+05 0.68498934D+05 0.68498934D+05 0.11354608D+01  1  2 11  1  7  1        2 0.125042464880D-03 0.100000000000D+01
0.262354881639D-05 0.000000000000D+00 0.000000000000D+00 0.741633629157D-06 0.000000000000D+00  7 21 -2 23 -13 13 23 -2 2 0.27413587D-01 0.11162707D+00 0.68498934D+05 0.68498934D+05 0.68498934D+05 0.11354608D+01  1  2 12  3  7  1        2 0.298651376848D-03 0.100000000000D+01
-.420878744993D-05 0.000000000000D+00 -.324063309102D-06 0.741633629157D-06 0.000000000000D+00  7 21 -2 23 -13 13 23 -2 2 0.27431929D-01 0.11162707D+00 0.66555514D+05 0.66555514D+05 0.66555514D+05 0.11365273D+01  1  2  5  3  7  1        2 -.480012877235D-03 0.100000000000D+01
0.463418411970D-07 0.000000000000D+00 0.000000000000D+00 0.741633629157D-06 0.670833033562D-09  7 21 -2 23 -13 13 23 -2 2 0.27378678D-01 0.11193096D+00 0.68498934D+05 0.68498934D+05 0.68498934D+05 0.11354608D+01  1  2 11  3  7  1        2 0.525288145511D-05 0.100000000000D+01
  </mgrwgt>
  </event>
  <event>
  8     66 0.29152272E-05 0.81963255E+02 0.75467711E-02 0.10440310E+00
        2 -1    0    0  501    0 0.00000000E+00 0.00000000E+00 0.22528696E+03 0.22528719E+03 0.32000000E+00 0.0000E+00 0.9000E+01
       -2 -1    0    0    0  501 0.00000000E+00 0.00000000E+00 -.52583979E+03 0.52583989E+03 0.32000000E+00 0.0000E+00 0.9000E+01
       25  2    1    2    0    0 0.27907706E+02 0.70077696E+02 -.45907271E+03 0.55330512E+03 0.29951474E+03 0.0000E+00 0.0000E+00
       23  2    3    3    0    0 0.10832785E+03 -.40139045E+02 -.22066676E+03 0.26387848E+03 0.87131895E+02 0.0000E+00 0.0000E+00
       23  1    1    2    0    0 -.27907706E+02 -.70077696E+02 0.15851988E+03 0.19782196E+03 0.91188000E+02 0.0000E+00 0.9000E+01
      -13  1    4    4    0    0 0.94191792E+02 -.24039439E+02 -.93360689E+02 0.13478211E+03 0.10565837E+00 0.0000E+00 0.9000E+01
       13  1    4    4    0    0 0.14136060E+02 -.16099605E+02 -.12730607E+03 0.12909637E+03 0.10565837E+00 0.0000E+00 0.9000E+01
       23  1    3    3    0    0 -.80420147E+02 0.11021674E+03 -.23840595E+03 0.28942663E+03 0.91188000E+02 0.0000E+00 0.9000E+01
#aMCatNLO 1  0  0  1  2 0.60743053D+02 0.00000000D+00  -5  7  0 0.00000000D+00 0.00000000D+00 0.00000000D+00 0.00000000D+00 0.00000000D+00
  <mgrwgt>
 0.4576501220D-03    9    2    0
 0.344187405453949D+03 0.000000000000000D+00 0.000000000000000D+00 0.344187405453949D+03
 0.344187405453949D+03 0.000000000000000D+00 0.000000000000000D+00 -.344187405453949D+03
 0.285067123696114D+03 -.279077059113753D+02 -.700776961922919D+02 0.259342033067377D+03
 0.106306469623427D+03 0.941919097756722D+02 -.240394511046806D+02 -.430238818238646D+02
 0.852813844684087D+02 0.141359428197390D+02 -.160995936831960D+02 -.825463066447046D+02
 0.211719833119949D+03 -.804201466840359D+02 0.110216740980168D+03 -.133771844598808D+03
 0.000000000000000D+00 -.000000000000000D+00 -.000000000000000D+00 0.000000000000000D+00
 0.387890340757930D+03 0.000000000000000D+00 0.000000000000000D+00 0.387890340757930D+03
 0.367297937691564D+03 0.000000000000000D+00 0.000000000000000D+00 -.367297937691564D+03
 0.279961150201084D+03 -.110274366338704D+02 -.517986467359844D+02 0.259342033067377D+03
 0.110800056073936D+03 0.100677986287202D+03 -.170159071444164D+02 -.430238818238646D+02
 0.854153397664679D+02 0.192355224390007D+02 -.105774384062608D+02 -.825463066447046D+02
 0.214873089473844D+03 -.676756456777531D+02 0.124017312544524D+03 -.133771844598808D+03
 0.641386429341624D+02 -.412104264145795D+02 -.446253202578625D+02 0.205924030663667D+02
0.129865368455D-04 0.000000000000D+00 0.000000000000D+00 0.387726499406D-07 0.000000000000D+00  7 2 -2 23 -13 13 23 21 0 0.34659557D-01 0.80898454D-01 0.40216967D+05 0.40216967D+05 0.40216967D+05 0.11557070D+01  1  2  2  1  7  1        2 0.334640711585D-03 0.100000000000D+01
-.465524997061D-06 0.000000000000D+00 -.498717209203D-07 0.387726499406D-07 0.000000000000D+00  7 2 -2 23 -13 13 23 21 2 0.34659557D-01 0.80898454D-01 0.40216967D+05 0.40216967D+05 0.40216967D+05 0.11557070D+01  1  2  3  1  7  1        2 -.160222642228D-04 0.100000000000D+01
0.798799018730D-06 0.000000000000D+00 0.000000000000D+00 0.387726499406D-07 0.000000000000D+00  7 2 -2 23 -13 13 23 21 2 0.34659557D-01 0.80898454D-01 0.40216967D+05 0.40216967D+05 0.40216967D+05 0.11557070D+01  1  2 15  1  7  1        2 0.274927641261D-04 0.100000000000D+01
0.165758675337D-04 0.000000000000D+00 0.000000000000D+00 0.387726499406D-07 0.000000000000D+00  7 2 -2 23 -13 13 23 21 2 0.40107790D-01 0.80898454D-01 0.52533860D+05 0.52533860D+05 0.52533860D+05 0.11454117D+01  1  2 12  1  7  1        2 0.475799370985D-03 0.100000000000D+01
-.167796996122D-04 0.000000000000D+00 0.000000000000D+00 0.387726499406D-07 0.000000000000D+00  7 2 -2 23 -13 13 23 21 2 0.34659557D-01 0.80898454D-01 0.40216967D+05 0.40216967D+05 0.40216967D+05 0.11557070D+01  1  2  4  1  7  1        2 -.577517388891D-03 0.100000000000D+01
-.335090671964D-04 0.000000000000D+00 -.108834145220D-04 0.387726499406D-07 0.000000000000D+00  7 2 -2 23 -13 13 23 21 2 0.41421242D-01 0.80898454D-01 0.40216967D+05 0.40216967D+05 0.40216967D+05 0.11557070D+01  1  2  5  1  7  1        2 -.948952269733D-03 0.100000000000D+01
0.350610089166D-04 0.000000000000D+00 0.107128306851D-04 0.387726499406D-07 0.000000000000D+00  7 2 -2 23 -13 13 23 21 2 0.34659557D-01 0.80898454D-01 0.40216967D+05 0.40216967D+05 0.40216967D+05 0.11557070D+01  1  2  6  1  7  1        2 0.120671661528D-02 0.100000000000D+01
0.369902566562D-06 0.000000000000D+00 0.000000000000D+00 0.387726499406D-07 0.000000000000D+00  7 21 -2 23 -13 13 23 -2 2 0.40107790D-01 0.80898454D-01 0.52533860D+05 0.52533860D+05 0.52533860D+05 0.11454117D+01  1  2 12  3  7  1        2 0.435537308715D-04 0.100000000000D+01
-.774324257016D-06 0.000000000000D+00 -.284812766212D-06 0.387726499406D-07 0.000000000000D+00  7 21 -2 23 -13 13 23 -2 2 0.41421242D-01 0.80898454D-01 0.40216967D+05 0.40216967D+05 0.40216967D+05 0.11557070D+01  1  2  5  3  7  1        2 -.880611479579D-04 0.100000000000D+01
  </mgrwgt>
  </event>
  <event>
  8     66 0.29152272E-05 0.23668838E+03 0.75467711E-02 0.96168678E-01
        2 -1    0    0  501    0 0.00000000E+00 0.00000000E+00 0.20407769E+04 0.20407770E+04 0.32000000E+00 0.0000E+00 0.9000E+01
       -2 -1    0    0    0  501 0.00000000E+00 0.00000000E+00 -.16584430E+03 0.16584461E+03 0.32000000E+00 0.0000E+00 0.9000E+01
       25  2    1    2    0    0 -.14974695E+02 0.12154064E+03 0.19895733E+04 0.20156920E+04 0.29935928E+03 0.0000E+00 0.0000E+00
       23  2    3    3    0    0 0.10205259E+03 0.16641709E+02 0.74567825E+03 0.75859642E+03 0.93492232E+02 0.0000E+00 0.0000E+00
       23  1    1    2    0    0 0.14974695E+02 -.12154064E+03 -.11464066E+03 0.19092957E+03 0.91188000E+02 0.0000E+00 0.9000E+01
      -13  1    4    4    0    0 0.11614721E+03 -.13325610E+01 0.64312289E+03 0.65352813E+03 0.10565837E+00 0.0000E+00 0.9000E+01
       13  1    4    4    0    0 -.14094626E+02 0.17974270E+02 0.10255536E+03 0.10506829E+03 0.10565837E+00 0.0000E+00 0.9000E+01
       23  1    3    3    0    0 -.11702728E+03 0.10489893E+03 0.12438951E+04 0.12570956E+04 0.91188000E+02 0.0000E+00 0.9000E+01
#aMCatNLO 1  0  0  2  2 0.31814872D+03 0.00000000D+00  -5  7  0 0.00000000D+00 0.00000000D+00 0.00000000D+00 0.00000000D+00 0.00000000D+00
  <mgrwgt>
 0.4588982187D-03    7    2    0
 0.581765930316954D+03 0.000000000000000D+00 0.000000000000000D+00 0.581765930316954D+03
 0.581765930316954D+03 0.000000000000000D+00 0.000000000000000D+00 -.581765930316954D+03
 0.546828885325248D+03 0.149746951027417D+02 -.121540643337959D+03 -.525081145162943D+03
 0.203069145847463D+03 0.116147377481100D+03 -.133258564018809D+01 0.166568571210156D+03
 0.340010593052928D+02 -.140947920066784D+02 0.179742945673686D+02 0.251859803655917D+02
 0.379632770155905D+03 -.117027280577163D+03 0.104898934410778D+03 0.333326593587195D+03
 0.000000000000000D+00 -.000000000000000D+00 -.000000000000000D+00 -.000000000000000D+00
 0.688052368450837D+03 0.000000000000000D+00 0.000000000000000D+00 0.688052368450837D+03
 0.901068247897778D+03 0.000000000000000D+00 0.000000000000000D+00 -.901068247897778D+03
 0.560832329194401D+03 0.156823216875573D+03 -.769020140749662D+02 -.525081145162943D+03
 0.240708249117816D+03 0.172978082255141D+03 0.165515962283108D+02 0.166568571210156D+03
 0.330482712336700D+02 -.550836837990701D+01 0.206763754645124D+02 0.251859803655917D+02
 0.371655320870447D+03 -.208163599990374D+02 0.135175764659430D+03 0.333326593587195D+03
 0.382876445932282D+03 -.303476570751770D+03 -.955017222772872D+02 -.213015879446940D+03
0.550206880883D-04 0.000000000000D+00 0.000000000000D+00 0.420827742918D-06 0.000000000000D+00  7 2 -2 23 -13 13 23 21 0 0.31396571D+00 0.25514534D-01 0.56021390D+05 0.56021390D+05 0.56021390D+05 0.11429768D+01  1  2  2  2  7  2       -2 0.639221364585D-03 0.100000000000D+01
-.508560267548D-07 0.000000000000D+00 -.211293929539D-06 0.420827742918D-06 0.000000000000D+00  7 2 -2 23 -13 13 23 21 2 0.31396571D+00 0.25514534D-01 0.56021390D+05 0.56021390D+05 0.56021390D+05 0.11429768D+01  1  2  3  2  7  2       -2 -.771867052261D-06 0.100000000000D+01
0.335218387093D-05 0.000000000000D+00 0.000000000000D+00 0.420827742918D-06 0.000000000000D+00  7 2 -2 23 -13 13 23 21 2 0.31396571D+00 0.25514534D-01 0.56021390D+05 0.56021390D+05 0.56021390D+05 0.11429768D+01  1  2 15  2  7  2       -2 0.508777513344D-04 0.100000000000D+01
-.313287790175D-04 0.000000000000D+00 0.000000000000D+00 0.420827742918D-06 0.000000000000D+00  7 2 -2 23 -13 13 23 21 2 0.31396571D+00 0.25514534D-01 0.56021390D+05 0.56021390D+05 0.56021390D+05 0.11429768D+01  1  2  4  2  7  2       -2 -.475492362543D-03 0.100000000000D+01
-.206870951217D-05 0.000000000000D+00 -.182341221257D-04 0.420827742918D-06 0.000000000000D+00  7 2 -2 23 -13 13 23 21 2 0.31396571D+00 0.47338606D-01 0.56021390D+05 0.56021390D+05 0.56021390D+05 0.11429768D+01  1  2  5  2  7  2       -2 -.103309494361D-04 0.100000000000D+01
0.136504583545D-04 0.000000000000D+00 0.152310351886D-04 0.420827742918D-06 0.000000000000D+00  7 2 -2 23 -13 13 23 21 2 0.31396571D+00 0.25514534D-01 0.56021390D+05 0.56021390D+05 0.56021390D+05 0.11429768D+01  1  2  6  2  7  2       -2 0.207179752813D-03 0.100000000000D+01
0.872163144333D-06 0.000000000000D+00 -.122879750542D-05 0.420827742918D-06 0.000000000000D+00  7 2 21 23 -13 13 23 2 2 0.31396571D+00 0.47338606D-01 0.56021390D+05 0.56021390D+05 0.56021390D+05 0.11429768D+01  1  2  5  4  7  2       -2 0.482145289991D-04 0.100000000000D+01
  </mgrwgt>
  </event>
  <event>
  9     66 0.29152272E-05 0.26855910E+03 0.75467711E-02 0.98728540E-01
       21 -1    0    0  501  502 0.00000000E+00 0.00000000E+00 0.27295774E+03 0.27295877E+03 0.75000000E+00 0.0000E+00 0.9000E+01
       -2 -1    0    0    0  501 0.00000000E+00 0.00000000E+00 -.82128589E+03 0.82128595E+03 0.32000000E+00 0.0000E+00 0.9000E+01
       25  2    1    2    0    0 -.29878529E+03 -.55639420E+02 -.52007456E+03 0.67150848E+03 0.29677887E+03 0.0000E+00 0.0000E+00
       23  2    3    3    0    0 -.18692983E+03 0.25409310E+02 -.44051946E+03 0.48786533E+03 0.91470171E+02 0.0000E+00 0.0000E+00
       23  1    1    2    0    0 0.16526178E+03 0.32368919E+01 -.14480141E+03 0.23791728E+03 0.91188000E+02 0.0000E+00 0.9000E+01
      -13  1    4    4    0    0 -.19736042E+03 0.22715001E+02 -.42238367E+03 0.46677091E+03 0.10565837E+00 0.0000E+00 0.9000E+01
       13  1    4    4    0    0 0.10430591E+02 0.26943092E+01 -.18135793E+02 0.21094423E+02 0.10565837E+00 0.0000E+00 0.9000E+01
       23  1    3    3    0    0 -.11185546E+03 -.81048730E+02 -.79555096E+02 0.18364314E+03 0.91188000E+02 0.0000E+00 0.9000E+01
       -2  1    1    2    0  502 0.13352351E+03 0.52402528E+02 0.11654782E+03 0.18481896E+03 0.32000000E+00 0.0000E+00 0.9000E+01
#aMCatNLO 2  0  0  1  2 0.14343832D+03 0.00000000D+00  -5  7  0 0.00000000D+00 0.00000000D+00 0.00000000D+00 0.00000000D+00 0.00000000D+00
  <mgrwgt>
 0.2404261079D-03    2    2    0
 0.301836300634056D+03 0.000000000000000D+00 0.000000000000000D+00 0.301836300634056D+03
 0.301836300634056D+03 0.000000000000000D+00 0.000000000000000D+00 -.301836300634056D+03
 0.235771977228722D+03 0.212089626855226D+03 0.216149102127425D+02 0.427078416599023D+02
 0.196296723086968D+03 -.150695601091092D+03 0.410291737976072D+02 -.118911085286285D+03
 0.143447453534444D+02 0.132481169354414D+02 0.379993760356198D+01 -.397738496113580D+01
 0.157259155598977D+03 -.746421426995753D+02 -.664440216139117D+02 0.801806285875184D+02
 0.000000000000000D+00 0.000000000000000D+00 0.000000000000000D+00 0.000000000000000D+00
 0.692558622435772D+03 0.000000000000000D+00 0.000000000000000D+00 0.692558622435772D+03
 0.323693686461418D+03 0.000000000000000D+00 0.000000000000000D+00 -.323693686461418D+03
 0.193548818720570D+03 0.165261782258985D+03 0.323689194517497D+01 0.427078416599023D+02
 0.231531993182276D+03 -.197360698212619D+03 0.227150272732102D+02 -.118911085286285D+03
 0.114839784331656D+02 0.104308682137153D+02 0.269428243368212D+01 -.397738496113580D+01
 0.183914992503477D+03 -.111855457634088D+03 -.810487292949932D+02 0.801806285875184D+02
 0.395772526057701D+03 0.133523505374007D+03 0.524025276429260D+02 0.368864935974354D+03
-.459853739744D-05 0.000000000000D+00 0.000000000000D+00 0.103154996234D-07 0.000000000000D+00  7 21 -2 23 -13 13 23 -2 2 0.41771462D-01 0.11781985D+00 0.12502235D+06 0.12502235D+06 0.12502235D+06 0.11138489D+01  1  2 13  3  7  1        2 -.184750502088D-03 0.100000000000D+01
0.127946712101D-04 0.000000000000D+00 0.000000000000D+00 0.103154996234D-07 0.567131875464D-12  7 21 -2 23 -13 13 23 -2 2 0.41993575D-01 0.12635173D+00 0.12502235D+06 0.12502235D+06 0.12502235D+06 0.11138489D+01  1  2  1  3  7  1        2 0.425176610008D-03 0.100000000000D+01
  </mgrwgt>
  </event>
  <event>
  7     66 0.29152272E-05 0.45114523E+03 0.75467711E-02 0.83252759E-01
        2 -1    0    0  501    0 0.00000000E+00 0.00000000E+00 0.15041261E+04 0.15041262E+04 0.32000000E+00 0.0000E+00 0.9000E+01
       -2 -1    0    0    0  501 0.00000000E+00 0.00000000E+00 -.33787823E+03 0.33787838E+03 0.32000000E+00 0.0000E+00 0.9000E+01
       25  2    1    2    0    0 -.42870326E+02 -.39645201E+03 -.10217786E+03 0.50925130E+03 0.29980746E+03 0.0000E+00 0.0000E+00
       23  1    1    2    0    0 0.42870326E+02 0.39645201E+03 0.12684258E+04 0.13327533E+04 0.91188000E+02 0.0000E+00 0.9000E+01
      -11  1    3    3    0    0 0.30822125E+02 -.99454213E+02 -.16727957E+02 0.10545600E+03 0.51099893E-03 0.0000E+00 0.9000E+01
       11  1    3    3    0    0 -.13426773E+03 -.21011611E+03 -.22045792E+02 0.25032503E+03 0.51099893E-03 0.0000E+00 0.9000E+01
       23  1    3    3    0    0 0.60575276E+02 -.86881681E+02 -.63404108E+02 0.15347027E+03 0.91188000E+02 0.0000E+00 0.9000E+01
#aMCatNLO 1  0  0  1  1 0.14597646D+04 0.00000000D+00  -5  7  0 0.00000000D+00 0.00000000D+00 0.00000000D+00 0.00000000D+00 0.00000000D+00
  <mgrwgt>
 0.1020962642D-02    3    2    0
 0.712889645819546D+03 0.000000000000000D+00 0.000000000000000D+00 0.712889645819546D+03
 0.712889645819546D+03 0.000000000000000D+00 0.000000000000000D+00 -.712889645819546D+03
 0.684284496021648D+03 0.428703261336657D+02 0.396452008975209D+03 0.548559896336138D+03
 0.149924593390903D+03 0.308221246796716D+02 -.994542129299347D+02 -.107871404293008D+03
 0.341434826268701D+03 -.134267726570870D+03 -.210116114882407D+03 -.233240512041436D+03
 0.250135375957841D+03 0.605752757575329D+02 -.868816811628669D+02 -.207447980001694D+03
 0.000000000000000D+00 0.000000000000000D+00 -.000000000000000D+00 -.000000000000000D+00
 0.136747045350921D+04 0.000000000000000D+00 0.000000000000000D+00 0.136747045350921D+04
 0.255459382251146D+04 0.000000000000000D+00 0.000000000000000D+00 -.255459382251146D+04
 0.120575387809510D+04 -.568153615249247D+03 0.906537739318261D+03 0.548559896336138D+03
 0.125087623832828D+03 -.580856198390216D+02 -.252335994244631D+02 -.107871404293008D+03
 0.456317315987925D+03 -.392170245844374D+03 0.518215085035530D+01 -.233240512041436D+03
 0.253370321080447D+03 -.102201332234280D+03 0.490050154898849D+02 -.207447980001694D+03
 0.188153513702438D+04 0.112061081316692D+04 -.935491306234038D+03 -.118712336900225D+04
0.172624270931D-03 0.000000000000D+00 0.000000000000D+00 0.379664597805D-08 0.000000000000D+00  7 2 -2 23 -11 11 23 21 0 0.23140404D+00 0.51981280D-01 0.20353202D+06 0.20353202D+06 0.20353202D+06 0.10972420D+01  1  2  2  1  7  1        2 0.999791139114D-03 0.100000000000D+01
-.714925891301D-05 0.000000000000D+00 -.662922653390D-06 0.379664597805D-08 0.000000000000D+00  7 2 -2 23 -11 11 23 21 2 0.23140404D+00 0.51981280D-01 0.20353202D+06 0.20353202D+06 0.20353202D+06 0.10972420D+01  1  2  3  1  7  1        2 -.498509292518D-04 0.100000000000D+01
0.101855223482D-04 0.000000000000D+00 0.000000000000D+00 0.379664597805D-08 0.000000000000D+00  7 2 -2 23 -11 11 23 21 2 0.23140404D+00 0.51981280D-01 0.20353202D+06 0.20353202D+06 0.20353202D+06 0.10972420D+01  1  2 15  1  7  1        2 0.710224318563D-04 0.100000000000D+01
  </mgrwgt>
  </event>
  <event>
  8     66 0.29152272E-05 0.19537169E+03 0.75467711E-02 0.10292449E+00
        2 -1    0    0  501    0 0.00000000E+00 0.00000000E+00 0.14328473E+03 0.14328509E+03 0.32000000E+00 0.0000E+00 0.9000E+01
       -2 -1    0    0    0  501 0.00000000E+00 0.00000000E+00 -.44874598E+03 0.44874610E+03 0.32000000E+00 0.0000E+00 0.9000E+01
       25  2    1    2    0    0 0.14233724E+02 -.12379493E+03 -.11135026E+03 0.34399467E+03 0.30067536E+03 0.0000E+00 0.0000E+00
       23  2    3    3    0    0 0.56533656E+00 -.12416410E+03 0.46439985E+02 0.16123807E+03 0.91782356E+02 0.0000E+00 0.0000E+00
       23  1    1    2    0    0 -.14233724E+02 0.12379493E+03 -.19411099E+03 0.24803651E+03 0.91188000E+02 0.0000E+00 0.9000E+01
      -11  1    4    4    0    0 -.33212911E+02 -.32644714E+02 0.43367468E+02 0.63635777E+02 0.51099893E-03 0.0000E+00 0.9000E+01
       11  1    4    4    0    0 0.33778248E+02 -.91519384E+02 0.30725168E+01 0.97602296E+02 0.51099893E-03 0.0000E+00 0.9000E+01
       23  1    3    3    0    0 0.13668388E+02 0.36916791E+00 -.15779025E+03 0.18275660E+03 0.91188000E+02 0.0000E+00 0.9000E+01
#aMCatNLO 1  0  0  2  1 0.11762083D+03 0.00000000D+00  -5  7  0 0.00000000D+00 0.00000000D+00 0.00000000D+00 0.00000000D+00 0.00000000D+00
  <mgrwgt>
 0.3355968208D-03    3    2    0
 0.253571659644591D+03 0.000000000000000D+00 0.000000000000000D+00 0.253571659644591D+03
 0.253571659644591D+03 0.000000000000000D+00 0.000000000000000D+00 -.253571659644591D+03
 0.172637518543190D+03 -.142337242357969D+02 0.123794931001277D+03 -.772054247933306D+02
 0.100408392418446D+03 -.332129111575803D+02 -.326447143962019D+02 0.889554406570266D+02
 0.115790024614908D+03 0.337782477207657D+02 -.915193845001599D+02 0.623743700725512D+02
 0.118307383712638D+03 0.136683876726115D+02 0.369167895084352D+00 -.741243859362471D+02
 0.000000000000000D+00 -.000000000000000D+00 -.000000000000000D+00 0.000000000000000D+00
 0.492216277348375D+03 0.000000000000000D+00 0.000000000000000D+00 0.492216277348375D+03
 0.275215795168745D+03 0.000000000000000D+00 0.000000000000000D+00 -.275215795168745D+03
 0.192656673123797D+03 0.183272349820408D+02 0.150015923139925D+03 -.772054247933306D+02
 0.923253065646600D+02 -.160333494354138D+02 -.188101971189725D+02 0.889554406570266D+02
 0.111652118996616D+03 0.540515904989715D+02 -.751934784340934D+02 0.623743700725512D+02
 0.123970363635958D+03 0.352641207304174D+02 0.177599807070990D+02 -.741243859362471D+02
 0.246827610196089D+03 -.916095967760160D+02 -.737722282939581D+02 0.217000482179631D+03
0.544701624191D-05 0.000000000000D+00 0.000000000000D+00 0.681748653284D-07 0.000000000000D+00  7 2 -2 23 -11 11 23 21 0 0.22043841D-01 0.69037880D-01 0.38170096D+05 0.38170096D+05 0.38170096D+05 0.11577534D+01  1  2  2  2  7  2       -2 0.329667609494D-03 0.100000000000D+01
-.277597516708D-06 0.000000000000D+00 -.209179766012D-07 0.681748653284D-07 0.000000000000D+00  7 2 -2 23 -11 11 23 21 2 0.22043841D-01 0.69037880D-01 0.38170096D+05 0.38170096D+05 0.38170096D+05 0.11577534D+01  1  2  3  2  7  2       -2 -.225198412344D-04 0.100000000000D+01
0.350685702473D-06 0.000000000000D+00 0.000000000000D+00 0.681748653284D-07 0.000000000000D+00  7 2 -2 23 -11 11 23 21 2 0.22043841D-01 0.69037880D-01 0.38170096D+05 0.38170096D+05 0.38170096D+05 0.11577534D+01  1  2 15  2  7  2       -2 0.284490525583D-04 0.100000000000D+01
  </mgrwgt>
  </event>
  <event>
  8     66 0.29152272E-05 0.18710956E+03 0.75467711E-02 0.96827888E-01
        2 -1    0    0  501    0 0.00000000E+00 0.00000000E+00 0.10326214E+04 0.10326214E+04 0.32000000E+00 0.0000E+00 0.9000E+01
       -2 -1    0    0    0  501 0.00000000E+00 0.00000000E+00 -.65428230E+02 0.65429012E+02 0.32000000E+00 0.0000E+00 0.9000E+01
       25  2    1    2    0    0 0.66041980E+02 0.78729071E+02 0.88370269E+03 0.93728440E+03 0.29497760E+03 0.0000E+00 0.0000E+00
       23  2    3    3    0    0 0.69861465E+02 -.21757156E+01 0.73921455E+03 0.74820175E+03 0.92099689E+02 0.0000E+00 0.0000E+00
       23  1    1    2    0    0 -.66041980E+02 -.78729071E+02 0.83490440E+02 0.16076602E+03 0.91188000E+02 0.0000E+00 0.9000E+01
      -11  1    4    4    0    0 0.92204563E+02 -.50377382E+01 0.55741065E+03 0.56500769E+03 0.51099893E-03 0.0000E+00 0.9000E+01
       11  1    4    4    0    0 -.22343098E+02 0.28620226E+01 0.18180390E+03 0.18319406E+03 0.51099893E-03 0.0000E+00 0.9000E+01
       23  1    3    3    0    0 -.38194851E+01 0.80904786E+02 0.14448814E+03 0.18908265E+03 0.91188000E+02 0.0000E+00 0.9000E+01
#aMCatNLO 1  0  0  2  1 0.33794897D+03 0.00000000D+00  -5  7  0 0.00000000D+00 0.00000000D+00 0.00000000D+00 0.00000000D+00 0.00000000D+00
  <mgrwgt>
 0.7759315997D-03    5    2    0
 0.259928921830196D+03 0.000000000000000D+00 0.000000000000000D+00 0.259928921830196D+03
 0.259928921830196D+03 0.000000000000000D+00 0.000000000000000D+00 -.259928921830196D+03
 0.184238484072250D+03 -.660419795865458D+02 -.787290707957394D+02 -.122754869610825D+03
 0.156356559152134D+03 0.922045631382458D+02 -.503773819129840D+01 0.126175723973734D+03
 0.486995266020356D+02 -.223430984905815D+02 0.286202262733704D+01 0.431768302169480D+02
 0.130563273833972D+03 -.381948506111840D+01 0.809047863597008D+02 -.465976845798575D+02
 0.000000000000000D+00 -.000000000000000D+00 -.000000000000000D+00 -.000000000000000D+00
 0.378441373296865D+03 0.000000000000000D+00 0.000000000000000D+00 0.378441373296865D+03
 0.727356585139628D+03 0.000000000000000D+00 0.000000000000000D+00 -.727356585139628D+03
 0.159067433711324D+03 0.259874128061321D+02 -.352575309115584D+02 -.122754869610825D+03
 0.239290236418946D+03 0.198264879352983D+03 0.450615306030118D+02 0.126175723973734D+03
 0.457467235357030D+02 0.297493584467988D+01 0.148213968096439D+02 0.431768302169480D+02
 0.175945348233159D+03 0.783457232582374D+02 0.119716822793738D+03 -.465976845798575D+02
 0.485748216537361D+03 -.305572951262033D+03 -.144342219294835D+03 -.348915211842763D+03
0.383337562559D-05 0.000000000000D+00 0.000000000000D+00 0.225225629658D-08 0.000000000000D+00  7 2 -2 23 -11 11 23 21 0 0.15886489D+00 0.10065945D-01 0.35009989D+05 0.35009989D+05 0.35009989D+05 0.11611637D+01  1  2  2  2  7  2       -2 0.695649276318D-03 0.100000000000D+01
-.184986683461D-06 0.000000000000D+00 -.147211717532D-07 0.225225629658D-08 0.000000000000D+00  7 2 -2 23 -11 11 23 21 2 0.15886489D+00 0.10065945D-01 0.35009989D+05 0.35009989D+05 0.35009989D+05 0.11611637D+01  1  2  3  2  7  2       -2 -.452622673466D-04 0.100000000000D+01
0.237303810945D-06 0.000000000000D+00 0.000000000000D+00 0.225225629658D-08 0.000000000000D+00  7 2 -2 23 -11 11 23 21 2 0.15886489D+00 0.10065945D-01 0.35009989D+05 0.35009989D+05 0.35009989D+05 0.11611637D+01  1  2 15  2  7  2       -2 0.580631445054D-04 0.100000000000D+01
0.892904963764D-06 0.000000000000D+00 -.141779573642D-05 0.225225629658D-08 0.000000000000D+00  7 2 -2 23 -11 11 23 21 2 0.15886489D+00 0.40766381D-01 0.35009989D+05 0.35009989D+05 0.35009989D+05 0.11611637D+01  1  2  5  2  7  2       -2 0.217323200590D-04 0.100000000000D+01
0.162924742675D-06 0.000000000000D+00 -.237036089721D-06 0.225225629658D-08 0.000000000000D+00  7 2 21 23 -11 11 23 2 2 0.15886489D+00 0.40766381D-01 0.35009989D+05 0.35009989D+05 0.35009989D+05 0.11611637D+01  1  2  5  4  7  2       -2 0.457491261500D-04 0.100000000000D+01
  </mgrwgt>
  </event>
  <event>
  9     66 0.29152272E-05 0.37481556E+03 0.75467711E-02 0.97407501E-01
        2 -1    0    0  501    0 0.00000000E+00 0.00000000E+00 0.71189114E+03 0.71189121E+03 0.32000000E+00 0.0000E+00 0.9000E+01
       -2 -1    0    0    0  502 0.00000000E+00 0.00000000E+00 -.28519698E+03 0.28519716E+03 0.32000000E+00 0.0000E+00 0.9000E+01
       25  2    1    2    0    0 -.29420477E+03 0.22622385E+02 -.66590698E+01 0.42088140E+03 0.30004764E+03 0.0000E+00 0.0000E+00
       23  2    3    3    0    0 -.29765851E+03 -.15344588E+02 0.35011260E+02 0.31361963E+03 0.91079283E+02 0.0000E+00 0.0000E+00
       23  1    1    2    0    0 0.32939208E+03 -.32000328E+02 0.39481882E+03 0.52318287E+03 0.91188000E+02 0.0000E+00 0.9000E+01
      -11  1    4    4    0    0 -.15421773E+03 0.33868475E+02 -.39303051E+00 0.15789343E+03 0.51099893E-03 0.0000E+00 0.9000E+01
       11  1    4    4    0    0 -.14344079E+03 -.49213064E+02 0.35404290E+02 0.15572620E+03 0.51099893E-03 0.0000E+00 0.9000E+01
       23  1    3    3    0    0 0.34537412E+01 0.37966974E+02 -.41670330E+02 0.10726177E+03 0.91188000E+02 0.0000E+00 0.9000E+01
       21  1    1    2  501  502 -.35187306E+02 0.93779423E+01 0.38534409E+02 0.53024103E+02 0.75000000E+00 0.0000E+00 0.9000E+01
#aMCatNLO 2  0  0  2  1 0.36415551D+02 0.00000000D+00  -5  7  0 0.00000000D+00 0.00000000D+00 0.00000000D+00 0.00000000D+00 0.00000000D+00
  <mgrwgt>
 0.2052759233D-03    2    2    0
 0.429902098246380D+03 0.000000000000000D+00 0.000000000000000D+00 0.429902098246380D+03
 0.429902098246380D+03 0.000000000000000D+00 0.000000000000000D+00 -.429902098246380D+03
 0.382383525839197D+03 0.313474529504580D+03 -.277580629691751D+02 0.197142382001681D+03
 0.180225019221363D+03 -.161450272116913D+03 0.357960563772647D+02 -.716485138335114D+02
 0.160337430938493D+03 -.149887695241210D+03 -.474948663421803D+02 -.314007682449471D+02
 0.136858220493708D+03 -.213656214645772D+01 0.394568729340907D+02 -.940930999232230D+02
 0.000000000000000D+00 -.000000000000000D+00 0.000000000000000D+00 0.000000000000000D+00
 0.459855920911493D+03 0.000000000000000D+00 0.000000000000000D+00 0.459855920911493D+03
 0.441499573140731D+03 0.000000000000000D+00 0.000000000000000D+00 -.441499573140731D+03
 0.395857970907287D+03 0.329392079501920D+03 -.320003276067417D+02 0.197142382001681D+03
 0.173388842316764D+03 -.154217727534908D+03 0.338684753032306D+02 -.716485138335114D+02
 0.154865080564767D+03 -.143440786721020D+03 -.492130636804264D+02 -.314007682449471D+02
 0.136463116680539D+03 0.345374120796219D+01 0.379669736570230D+02 -.940930999232230D+02
 0.407804835828676D+02 -.351873064539536D+02 0.937794232691449D+01 0.183563477707617D+02
-.899214272424D-07 0.000000000000D+00 0.000000000000D+00 0.946113371814D-06 0.000000000000D+00  7 2 -2 23 -11 11 23 21 2 0.10238698D+00 0.42723584D-01 0.14048671D+06 0.14048671D+06 0.14048671D+06 0.11098045D+01  1  2  8  2  7  2       -2 -.311589311724D-05 0.100000000000D+01
0.691611940435D-05 0.000000000000D+00 0.000000000000D+00 0.946113371814D-06 0.466723483790D-08  7 2 -2 23 -11 11 23 21 2 0.10952089D+00 0.43876139D-01 0.15526331D+06 0.15526331D+06 0.15526331D+06 0.11063719D+01  1  2  1  2  7  2       -2 0.208391816419D-03 0.100000000000D+01
  </mgrwgt>
  </event>
  <event>
  8     66 0.29152272E-05 0.27360589E+03 0.75467711E-02 0.97424921E-01
        2 -1    0    0  501    0 0.00000000E+00 0.00000000E+00 0.92513088E+03 0.92513094E+03 0.32000000E+00 0.0000E+00 0.9000E+01
       -2 -1    0    0    0  501 0.00000000E+00 0.00000000E+00 -.11174938E+03 0.11174984E+03 0.32000000E+00 0.0000E+00 0.9000E+01
       25  2    1    2    0    0 0.79351177E+02 -.17539578E+03 0.72146066E+03 0.80487867E+03 0.30043950E+03 0.0000E+00 0.0000E+00
       23  2    3    3    0    0 -.28206673E+02 -.18450524E+03 0.34523112E+03 0.40298864E+03 0.91528771E+02 0.0000E+00 0.0000E+00
       23  1    1    2    0    0 -.79351177E+02 0.17539578E+03 0.91920834E+02 0.23200211E+03 0.91188000E+02 0.0000E+00 0.9000E+01
      -13  1    4    4    0    0 0.13154516E+02 -.68049995E+02 0.58276833E+02 0.90554092E+02 0.10565837E+00 0.0000E+00 0.9000E+01
       13  1    4    4    0    0 -.41361188E+02 -.11645525E+03 0.28695428E+03 0.31243455E+03 0.10565837E+00 0.0000E+00 0.9000E+01
       23  1    3    3    0    0 0.10755785E+03 0.91094639E+01 0.37622955E+03 0.40189003E+03 0.91188000E+02 0.0000E+00 0.9000E+01
#aMCatNLO 1  0  0  1  2 0.20686399D+03 0.00000000D+00  -5  7  0 0.00000000D+00 0.00000000D+00 0.00000000D+00 0.00000000D+00 0.00000000D+00
  <mgrwgt>
 0.5561021835D-03    3    2    0
 0.321532382527824D+03 0.000000000000000D+00 0.000000000000000D+00 0.321532382527824D+03
 0.321532382527824D+03 0.000000000000000D+00 0.000000000000000D+00 -.321532382527824D+03
 0.257815130604964D+03 -.793511776363627D+02 0.175395781161480D+03 -.145234640438606D+03
 0.722982244411299D+02 0.131545880648057D+02 -.680499304646021D+02 -.205717533027226D+02
 0.140816498965065D+03 -.413612604482840D+02 -.116455314000953D+03 0.675032766304483D+02
 0.172134911044490D+03 0.107557850019841D+03 0.910946330407491D+01 0.983031171108802D+02
 0.000000000000000D+00 0.000000000000000D+00 0.000000000000000D+00 -.000000000000000D+00
 0.343898542418244D+03 0.000000000000000D+00 0.000000000000000D+00 0.343898542418244D+03
 0.208030908320574D+04 0.000000000000000D+00 0.000000000000000D+00 -.208030908320574D+04
 0.274613785758538D+03 -.157417804956162D+03 0.145684638462980D+03 -.145234640438606D+03
 0.797784417762416D+02 -.914343531588473D+01 -.765362680624116D+02 -.205717533027226D+02
 0.173683296939680D+03 -.874743425978013D+02 -.134005353128421D+03 0.675032766304483D+02
 0.147442798175110D+03 0.607002261030948D+02 -.872393873339234D+01 0.983031171108802D+02
 0.174868930297441D+04 0.193335356766753D+03 0.735809214612455D+02 -.173641054078750D+04
0.603799030363D-05 0.000000000000D+00 0.000000000000D+00 0.275705326576D-06 0.000000000000D+00  7 2 -2 23 -13 13 23 21 0 0.14232787D+00 0.17192253D-01 0.74860181D+05 0.74860181D+05 0.74860181D+05 0.11321896D+01  1  2  2  1  7  1        2 0.549881159832D-03 0.100000000000D+01
-.324818147500D-06 0.000000000000D+00 -.231874726053D-07 0.275705326576D-06 0.000000000000D+00  7 2 -2 23 -13 13 23 21 2 0.14232787D+00 0.17192253D-01 0.74860181D+05 0.74860181D+05 0.74860181D+05 0.11321896D+01  1  2  3  1  7  1        2 -.379188422204D-04 0.100000000000D+01
0.378108312768D-06 0.000000000000D+00 0.000000000000D+00 0.275705326576D-06 0.000000000000D+00  7 2 -2 23 -13 13 23 21 2 0.14232787D+00 0.17192253D-01 0.74860181D+05 0.74860181D+05 0.74860181D+05 0.11321896D+01  1  2 15  1  7  1        2 0.441398658432D-04 0.100000000000D+01
  </mgrwgt>
  </event>
  <event>
  8     66 0.29152272E-05 0.26386443E+03 0.75467711E-02 0.96338881E-01
        2 -1    0    0  501    0 0.00000000E+00 0.00000000E+00 0.76314162E+03 0.76314169E+03 0.32000000E+00 0.0000E+00 0.9000E+01
       -2 -1    0    0    0  501 0.00000000E+00 0.00000000E+00 -.60646089E+03 0.60646098E+03 0.32000000E+00 0.0000E+00 0.9000E+01
       25  2    1    2    0    0 0.17519245E+03 -.17250305E+02 -.54156948E+03 0.64375243E+03 0.30021613E+03 0.0000E+00 0.0000E+00
       23  2    3    3    0    0 0.20687446E+03 0.26071233E+02 -.44776269E+03 0.50234709E+03 0.91566456E+02 0.0000E+00 0.0000E+00
       23  1    1    2    0    0 -.17519245E+03 0.17250305E+02 0.69825021E+03 0.72585024E+03 0.91188000E+02 0.0000E+00 0.9000E+01
      -11  1    4    4    0    0 0.73926383E+01 0.22999010E+02 -.24422553E+02 0.34352099E+02 0.51099893E-03 0.0000E+00 0.9000E+01
       11  1    4    4    0    0 0.19948182E+03 0.30722223E+01 -.42334014E+03 0.46799499E+03 0.51099893E-03 0.0000E+00 0.9000E+01
       23  1    3    3    0    0 -.31682015E+02 -.43321538E+02 -.93806785E+02 0.14140534E+03 0.91188000E+02 0.0000E+00 0.9000E+01
#aMCatNLO 1  0  0  2  2 0.27056380D+03 0.00000000D+00  -5  7  0 0.00000000D+00 0.00000000D+00 0.00000000D+00 0.00000000D+00 0.00000000D+00
  <mgrwgt>
 0.7785958835D-03    4    2    0
 0.680305557734234D+03 0.000000000000000D+00 0.000000000000000D+00 0.680305557734234D+03
 0.680305557734234D+03 0.000000000000000D+00 0.000000000000000D+00 -.680305557734234D+03
 0.650240218076616D+03 -.175192447731361D+03 0.172503053550369D+02 0.619279519347586D+03
 0.373914844895354D+02 0.739263825666965D+01 0.229990104669583D+02 -.285397534936434D+02
 0.519837311504718D+03 0.199481824096913D+03 0.307222230892541D+01 -.480029575898721D+03
 0.153142101397600D+03 -.316820146222216D+02 -.433215381309207D+02 -.110710189955221D+03
 0.000000000000000D+00 0.000000000000000D+00 -.000000000000000D+00 0.000000000000000D+00
 0.971815137240221D+03 0.000000000000000D+00 0.000000000000000D+00 0.971815137240221D+03
 0.759412706337698D+03 0.000000000000000D+00 0.000000000000000D+00 -.759412706337698D+03
 0.688259373787866D+03 -.261007275428305D+03 0.117276567791619D+03 0.619279519347586D+03
 0.406374924805945D+02 0.238998957843352D+01 0.288301268718578D+02 -.285397534936434D+02
 0.504650289308642D+03 0.133799154131367D+03 0.796323245643445D+02 -.480029575898721D+03
 0.153704579970181D+03 -.513547849771796D+02 -.203908425484633D+02 -.110710189955221D+03
 0.343976108030634D+03 0.176172916695684D+03 -.205348176679358D+03 0.212402430902523D+03
0.181090489833D-03 0.000000000000D+00 0.000000000000D+00 0.456716367334D-05 0.000000000000D+00  7 2 -2 23 -11 11 23 21 0 0.11740641D+00 0.93301687D-01 0.69624435D+05 0.69624435D+05 0.69624435D+05 0.11348583D+01  1  2  2  2  7  2       -2 0.859492460771D-03 0.100000000000D+01
0.911836102414D-06 0.000000000000D+00 -.695435163181D-06 0.456716367334D-05 0.000000000000D+00  7 2 -2 23 -11 11 23 21 2 0.11740641D+00 0.93301687D-01 0.69624435D+05 0.69624435D+05 0.69624435D+05 0.11348583D+01  1  2  3  2  7  2       -2 0.557373707462D-05 0.100000000000D+01
0.102673623122D-04 0.000000000000D+00 0.000000000000D+00 0.456716367334D-05 0.000000000000D+00  7 2 -2 23 -11 11 23 21 2 0.11740641D+00 0.93301687D-01 0.69624435D+05 0.69624435D+05 0.69624435D+05 0.11348583D+01  1  2 15  2  7  2       -2 0.627608161454D-04 0.100000000000D+01
-.244134824673D-04 0.000000000000D+00 0.000000000000D+00 0.456716367334D-05 0.000000000000D+00  7 2 -2 23 -11 11 23 21 2 0.11740641D+00 0.93301687D-01 0.69624435D+05 0.69624435D+05 0.69624435D+05 0.11348583D+01  1  2  4  2  7  2       -2 -.149231130450D-03 0.100000000000D+01
  </mgrwgt>
  </event>
  <event>
  7     66 0.29152272E-05 0.86551956E+03 0.75467711E-02 0.86350442E-01
        2 -1    0    0  501    0 0.00000000E+00 0.00000000E+00 0.25460210E+04 0.25460210E+04 0.32000000E+00 0.0000E+00 0.9000E+01
       -2 -1    0    0    0  501 0.00000000E+00 0.00000000E+00 -.33192224E+03 0.33192240E+03 0.32000000E+00 0.0000E+00 0.9000E+01
       23  2    1    2    0    0 -.17973367E+03 -.63033842E+03 0.13385434E+04 0.14931784E+04 0.90843710E+02 0.0000E+00 0.0000E+00
       23  1    1    2    0    0 0.27231753E+03 0.80512651E+03 0.68629686E+03 0.10962227E+04 0.91188000E+02 0.0000E+00 0.9000E+01
      -13  1    3    3    0    0 -.66151587E+02 -.34551930E+03 0.78903053E+03 0.86390324E+03 0.10565837E+00 0.0000E+00 0.9000E+01
       13  1    3    3    0    0 -.11358208E+03 -.28481912E+03 0.54951290E+03 0.62927518E+03 0.10565837E+00 0.0000E+00 0.9000E+01
       23  1    1    2    0    0 -.92583856E+02 -.17478809E+03 0.18925845E+03 0.28854230E+03 0.91188000E+02 0.0000E+00 0.9000E+01
#aMCatNLO 1  0  0  1  2 0.43911986D+03 0.00000000D+00  -5  7  0 0.00000000D+00 0.00000000D+00 0.00000000D+00 0.00000000D+00 0.00000000D+00
  <mgrwgt>
 0.9501863461D-03    3    2    0
 0.919283008444462D+03 0.000000000000000D+00 0.000000000000000D+00 0.919283008444462D+03
 0.919283008444462D+03 0.000000000000000D+00 0.000000000000000D+00 -.919283008444462D+03
 0.889463761292732D+03 0.272317531634894D+03 0.805126523965187D+03 -.245855595179424D+03
 0.402092312802727D+03 -.661515228100593D+02 -.345519360694740D+03 0.194726925282699D+03
 0.323264080921735D+03 -.113582154639270D+03 -.284819040126849D+03 0.102356604783937D+03
 0.223745861871731D+03 -.925838541855648D+02 -.174788123143598D+03 -.512279348872125D+02
 0.000000000000000D+00 -.000000000000000D+00 0.000000000000000D+00 -.000000000000000D+00
 0.995752818893670D+03 0.000000000000000D+00 0.000000000000000D+00 0.995752818893670D+03
 0.189757864990428D+04 0.000000000000000D+00 0.000000000000000D+00 -.189757864990428D+04
 0.866063096689512D+03 0.446704030831293D+03 0.694089742945012D+03 -.245855595179424D+03
 0.444397201699141D+03 0.179351104244251D+02 -.399059681328541D+03 0.194726925282699D+03
 0.346009638357146D+03 -.470993774726804D+02 -.327150491264852D+03 0.102356604783937D+03
 0.233808151900185D+03 -.471324033620466D+02 -.203728338214125D+03 -.512279348872125D+02
 0.100305338015197D+04 -.370407360420991D+03 0.235848767862506D+03 -.901825831010610D+03
0.640990468306D-03 0.000000000000D+00 0.000000000000D+00 0.132842908600D-08 0.000000000000D+00  7 2 -2 23 -13 13 23 21 0 0.39169555D+00 0.51064974D-01 0.74912410D+06 0.74912410D+06 0.74912410D+06 0.10563180D+01  1  2  2  1  7  1        2 0.940954592611D-03 0.100000000000D+01
-.354533363988D-04 0.000000000000D+00 -.246157217496D-05 0.132842908600D-08 0.000000000000D+00  7 2 -2 23 -13 13 23 21 2 0.39169555D+00 0.51064974D-01 0.74912410D+06 0.74912410D+06 0.74912410D+06 0.10563180D+01  1  2  3  1  7  1        2 -.580715684899D-04 0.100000000000D+01
0.410894242809D-04 0.000000000000D+00 0.000000000000D+00 0.132842908600D-08 0.000000000000D+00  7 2 -2 23 -13 13 23 21 2 0.39169555D+00 0.51064974D-01 0.74912410D+06 0.74912410D+06 0.74912410D+06 0.10563180D+01  1  2 15  1  7  1        2 0.673033220201D-04 0.100000000000D+01
  </mgrwgt>
  </event>
  <event>
  8     66 0.29152272E-05 0.13374901E+03 0.75467711E-02 0.10318828E+00
        2 -1    0    0  501    0 0.00000000E+00 0.00000000E+00 0.14078680E+04 0.14078681E+04 0.32000000E+00 0.0000E+00 0.9000E+01
       -2 -1    0    0    0  501 0.00000000E+00 0.00000000E+00 -.13461117E+03 0.13461155E+03 0.32000000E+00 0.0000E+00 0.9000E+01
       25  2    1    2    0    0 -.10217610E+03 -.13957136E+03 0.11049943E+03 0.36339513E+03 0.29987627E+03 0.0000E+00 0.0000E+00
       23  2    3    3    0    0 -.15249552E+03 -.70131983E+02 -.10814409E+02 0.18907884E+03 0.86374052E+02 0.0000E+00 0.0000E+00
       23  1    1    2    0    0 0.10217610E+03 0.13957136E+03 0.11627574E+04 0.11790845E+04 0.91188000E+02 0.0000E+00 0.9000E+01
      -13  1    4    4    0    0 -.20244234E+02 -.29058015E+02 -.33501518E+02 0.48749976E+02 0.10565837E+00 0.0000E+00 0.9000E+01
       13  1    4    4    0    0 -.13225129E+03 -.41073968E+02 0.22687109E+02 0.14032886E+03 0.10565837E+00 0.0000E+00 0.9000E+01
       23  1    3    3    0    0 0.50319421E+02 -.69439378E+02 0.12131383E+03 0.17431629E+03 0.91188000E+02 0.0000E+00 0.9000E+01
#aMCatNLO 1  0  0  2  1 0.65209869D+01 0.00000000D+00  -5  7  0 0.00000000D+00 0.00000000D+00 0.00000000D+00 0.00000000D+00 0.00000000D+00
  <mgrwgt>
 0.2588343166D-03   11    2    0
 0.435333301788364D+03 0.000000000000000D+00 0.000000000000000D+00 0.435333301788364D+03
 0.435333301788364D+03 0.000000000000000D+00 0.000000000000000D+00 -.435333301788364D+03
 0.388466610566155D+03 0.102176100883175D+03 0.139571361527258D+03 0.335664915697925D+03
 0.135358100261798D+03 -.202440666237740D+02 -.290579973578555D+02 -.130643124053913D+03
 0.215430336948395D+03 -.132251455169865D+03 -.410739859684447D+02 -.165023363072676D+03
 0.131411555800380D+03 0.503194209104633D+02 -.694393782009580D+02 -.399984285713365D+02
 0.000000000000000D+00 -.000000000000000D+00 0.000000000000000D+00 -.000000000000000D+00
 0.437339270847993D+03 0.000000000000000D+00 0.000000000000000D+00 0.437339270847993D+03
 0.440677558249429D+03 0.000000000000000D+00 0.000000000000000D+00 -.440677558249429D+03
 0.389043312969134D+03 0.105040681869627D+03 0.139050233886419D+03 0.335664915697925D+03
 0.135251676983698D+03 -.192470586124542D+02 -.292393741230068D+02 -.130643124053913D+03
 0.214516917610814D+03 -.130667399850047D+03 -.413621590086481D+02 -.165023363072676D+03
 0.131879115620434D+03 0.512894631291307D+02 -.696158493202313D+02 -.399984285713365D+02
 0.732580591334197D+01 -.641568653625635D+01 0.116714856546687D+01 -.333828740143563D+01
0.765061415285D-05 0.000000000000D+00 0.000000000000D+00 0.815485194788D-07 0.000000000000D+00  7 2 -2 23 -13 13 23 21 0 0.21659511D+00 0.20709443D-01 0.61160381D+05 0.61160381D+05 0.61160381D+05 0.11396775D+01  1  2  2  2  7  2       -2 0.272468536121D-03 0.100000000000D+01
-.259782121984D-06 0.000000000000D+00 -.293803727999D-07 0.815485194788D-07 0.000000000000D+00  7 2 -2 23 -13 13 23 21 2 0.21659511D+00 0.20709443D-01 0.61160381D+05 0.61160381D+05 0.61160381D+05 0.11396775D+01  1  2  3  2  7  2       -2 -.120169233843D-04 0.100000000000D+01
0.475137046479D-06 0.000000000000D+00 0.000000000000D+00 0.815485194788D-07 0.000000000000D+00  7 2 -2 23 -13 13 23 21 2 0.21659511D+00 0.20709443D-01 0.61160381D+05 0.61160381D+05 0.61160381D+05 0.11396775D+01  1  2 15  2  7  2       -2 0.219787468089D-04 0.100000000000D+01
0.430851283375D-05 0.000000000000D+00 0.000000000000D+00 0.815485194788D-07 0.000000000000D+00  7 2 -2 23 -13 13 23 21 2 0.21659511D+00 0.21010985D-01 0.62733522D+05 0.62733522D+05 0.62733522D+05 0.11387283D+01  1  2 12  2  7  2       -2 0.194164617382D-03 0.100000000000D+01
-.162654121623D-04 0.000000000000D+00 0.000000000000D+00 0.815485194788D-07 0.000000000000D+00  7 2 -2 23 -13 13 23 21 2 0.21659511D+00 0.20709443D-01 0.61160381D+05 0.61160381D+05 0.61160381D+05 0.11396775D+01  1  2  4  2  7  2       -2 -.752400551181D-03 0.100000000000D+01
-.483029371287D-03 0.000000000000D+00 -.590471887309D-04 0.815485194788D-07 0.000000000000D+00  7 2 -2 23 -13 13 23 21 2 0.21659511D+00 0.21059440D-01 0.61160381D+05 0.61160381D+05 0.61160381D+05 0.11396775D+01  1  2  5  2  7  2       -2 -.217334960276D-01 0.100000000000D+01
0.483959277330D-03 0.000000000000D+00 0.590388974308D-04 0.815485194788D-07 0.000000000000D+00  7 2 -2 23 -13 13 23 21 2 0.21659511D+00 0.20709443D-01 0.61160381D+05 0.61160381D+05 0.61160381D+05 0.11396775D+01  1  2  6  2  7  2       -2 0.223868429143D-01 0.100000000000D+01
0.120972552310D-04 0.000000000000D+00 0.000000000000D+00 0.815485194788D-07 0.132635646666D-07  7 2 -2 23 -13 13 23 21 2 0.21759316D+00 0.20963677D-01 0.62733522D+05 0.62733522D+05 0.62733522D+05 0.11387283D+01  1  2 11  2  7  2       -2 0.542808662124D-03 0.100000000000D+01
0.297483948655D-06 0.000000000000D+00 0.000000000000D+00 0.815485194788D-07 0.000000000000D+00  7 2 21 23 -13 13 23 2 2 0.21659511D+00 0.21010985D-01 0.62733522D+05 0.62733522D+05 0.62733522D+05 0.11387283D+01  1  2 12  4  7  2       -2 0.172406668109D-03 0.100000000000D+01
-.147430468549D-05 0.000000000000D+00 -.180968555552D-06 0.815485194788D-07 0.000000000000D+00  7 2 21 23 -13 13 23 2 2 0.21659511D+00 0.21059440D-01 0.61160381D+05 0.61160381D+05 0.61160381D+05 0.11396775D+01  1  2  5  4  7  2       -2 -.853258326157D-03 0.100000000000D+01
0.334945403530D-07 0.000000000000D+00 0.000000000000D+00 0.815485194788D-07 0.298259071097D-10  7 2 21 23 -13 13 23 2 2 0.21759316D+00 0.20963677D-01 0.62733522D+05 0.62733522D+05 0.62733522D+05 0.11387283D+01  1  2 11  4  7  2       -2 0.193360001505D-04 0.100000000000D+01
  </mgrwgt>
  </event>
  <event>
  9     66 0.29152272E-05 0.32626962E+03 0.75467711E-02 0.99231920E-01
        2 -1    0    0  502    0 0.00000000E+00 0.00000000E+00 0.33134367E+03 0.33134382E+03 0.32000000E+00 0.0000E+00 0.9000E+01
       -2 -1    0    0    0  501 0.00000000E+00 0.00000000E+00 -.43962325E+03 0.43962337E+03 0.32000000E+00 0.0000E+00 0.9000E+01
       25  2    1    2    0    0 -.13009476E+03 -.24175686E+03 -.12638203E+03 0.42437537E+03 0.29791108E+03 0.0000E+00 0.0000E+00
       23  2    3    3    0    0 -.48435139E+02 -.33424311E+02 0.53343176E+02 0.12323230E+03 0.94220795E+02 0.0000E+00 0.0000E+00
       23  1    1    2    0    0 0.12633542E+03 0.26954154E+03 0.35865137E+02 0.31339247E+03 0.91188000E+02 0.0000E+00 0.9000E+01
      -13  1    4    4    0    0 0.17255128E+02 -.27069448E+02 0.47019849E+02 0.56933047E+02 0.10565837E+00 0.0000E+00 0.9000E+01
       13  1    4    4    0    0 -.65690267E+02 -.63548623E+01 0.63233278E+01 0.66299254E+02 0.10565837E+00 0.0000E+00 0.9000E+01
       23  1    3    3    0    0 -.81659623E+02 -.20833255E+03 -.17972521E+03 0.30114307E+03 0.91188000E+02 0.0000E+00 0.9000E+01
       21  1    1    2  502  501 0.37593466E+01 -.27784678E+02 -.17762690E+02 0.33199347E+02 0.75000000E+00 0.0000E+00 0.9000E+01
#aMCatNLO 2  0  0  1  1 0.28037850D+02 0.00000000D+00  -5  7  0 0.00000000D+00 0.00000000D+00 0.00000000D+00 0.00000000D+00 0.00000000D+00
  <mgrwgt>
 0.3171137829D-03    2    2    0
 0.365828496457299D+03 0.000000000000000D+00 0.000000000000000D+00 0.365828496457299D+03
 0.365828496457299D+03 0.000000000000000D+00 0.000000000000000D+00 -.365828496457299D+03
 0.310860282019486D+03 0.127956085128222D+03 0.257563452503608D+03 0.748810510497529D+02
 0.643422287218438D+02 0.175827214525167D+02 -.294898987123818D+02 0.544161389401227D+02
 0.675390824564720D+02 -.653433519070576D+02 -.891957600482971D+01 0.145676073706913D+02
 0.288915399716795D+03 -.801954546736806D+02 -.219153977786396D+03 -.143864797360567D+03
 0.000000000000000D+00 0.000000000000000D+00 -.000000000000000D+00 -.000000000000000D+00
 0.374823810374699D+03 0.000000000000000D+00 0.000000000000000D+00 0.374823810374699D+03
 0.388617312106176D+03 0.000000000000000D+00 0.000000000000000D+00 -.388617312106176D+03
 0.320211966357497D+03 0.126335415184329D+03 0.269541542472441D+03 0.748810510497529D+02
 0.631792334131937D+02 0.172552308974890D+02 -.270694729206615D+02 0.544161389401227D+02
 0.675856763871372D+02 -.656903686486380D+02 -.635483556091350D+01 0.145676073706913D+02
 0.281217139310391D+03 -.816596240653994D+02 -.208332556207187D+03 -.143864797360567D+03
 0.312471070126544D+02 0.375934663221966D+01 -.277846777836785D+02 -.137935017314771D+02
-.555556671393D-06 0.000000000000D+00 0.000000000000D+00 0.460900262465D-08 0.000000000000D+00  7 2 -2 23 -13 13 23 21 2 0.49752017D-01 0.63667479D-01 0.10645186D+06 0.10645186D+06 0.10645186D+06 0.11195006D+01  1  2  8  1  7  1        2 -.199778934664D-04 0.100000000000D+01
0.109995850274D-04 0.000000000000D+00 0.000000000000D+00 0.460900262465D-08 0.391209335603D-10  7 2 -2 23 -13 13 23 21 2 0.50975364D-01 0.67633563D-01 0.11529478D+06 0.11529478D+06 0.11529478D+06 0.11166849D+01  1  2  1  1  7  1        2 0.337091676357D-03 0.100000000000D+01
  </mgrwgt>
  </event>
  <event>
  8     66 0.29152272E-05 0.28523449E+03 0.75467711E-02 0.99974742E-01
        2 -1    0    0  501    0 0.00000000E+00 0.00000000E+00 0.26630319E+04 0.26630319E+04 0.32000000E+00 0.0000E+00 0.9000E+01
       -2 -1    0    0    0  501 0.00000000E+00 0.00000000E+00 -.34337039E+02 0.34338530E+02 0.32000000E+00 0.0000E+00 0.9000E+01
       25  2    1    2    0    0 0.17399673E+03 0.10374359E+03 0.12691720E+04 0.13198163E+04 0.30013343E+03 0.0000E+00 0.0000E+00
       23  2    3    3    0    0 -.26587952E+00 -.54106741E+02 0.46604125E+03 0.47802159E+03 0.91556466E+02 0.0000E+00 0.0000E+00
       23  1    1    2    0    0 -.17399673E+03 -.10374359E+03 0.13595229E+04 0.13775541E+04 0.91188000E+02 0.0000E+00 0.9000E+01
      -13  1    4    4    0    0 0.36039015E+02 -.71024896E+01 0.88235593E+02 0.95576080E+02 0.10565837E+00 0.0000E+00 0.9000E+01
       13  1    4    4    0    0 -.36304895E+02 -.47004251E+02 0.37780566E+03 0.38244551E+03 0.10565837E+00 0.0000E+00 0.9000E+01
       23  1    3    3    0    0 0.17426261E+03 0.15785033E+03 0.80313073E+03 0.84179475E+03 0.91188000E+02 0.0000E+00 0.9000E+01
#aMCatNLO 1  0  0  2  2 0.66299921D+02 0.00000000D+00  -5  7  0 0.00000000D+00 0.00000000D+00 0.00000000D+00 0.00000000D+00 0.00000000D+00
  <mgrwgt>
 0.6033507448D-03    4    2    0
 0.302394884559555D+03 0.000000000000000D+00 0.000000000000000D+00 0.302394884559555D+03
 0.302394884559555D+03 0.000000000000000D+00 0.000000000000000D+00 -.302394884559555D+03
 0.234797161090883D+03 -.173996730227077D+03 -.103743589222330D+03 0.760056647750172D+02
 0.427580409731640D+02 0.360391108943554D+02 -.710243666859770D+01 -.218857932727074D+02
 0.635947484924322D+02 -.363049905660534D+02 -.470043039241747D+02 0.227340077509071D+02
 0.263639818562631D+03 0.174262609898775D+03 0.157850329815102D+03 -.768538792532169D+02
 0.000000000000000D+00 0.000000000000000D+00 -.000000000000000D+00 0.000000000000000D+00
 0.392909613519113D+03 0.000000000000000D+00 0.000000000000000D+00 0.392909613519113D+03
 0.316595224707269D+03 0.000000000000000D+00 0.000000000000000D+00 -.316595224707269D+03
 0.250189865085693D+03 -.198876790207184D+03 -.946090824741083D+02 0.760056647750172D+02
 0.390371318918762D+02 0.318429804885403D+02 -.556186234767635D+01 -.218857932727074D+02
 0.659359059515877D+02 -.429499733756684D+02 -.445646538443607D+02 0.227340077509071D+02
 0.253250068937428D+03 0.147745918296741D+03 0.167585712228688D+03 -.768538792532169D+02
 0.101091866359797D+03 0.622378647975711D+02 -.228501135625425D+02 0.763143888118441D+02
0.109730453305D-04 0.000000000000D+00 0.000000000000D+00 0.413207539574D-06 0.000000000000D+00  7 2 -2 23 -13 13 23 21 0 0.40969733D+00 0.52827375D-02 0.81358717D+05 0.81358717D+05 0.81358717D+05 0.11291494D+01  1  2  2  2  7  2       -2 0.670206068856D-03 0.100000000000D+01
-.607083804634D-06 0.000000000000D+00 -.421393833382D-07 0.413207539574D-06 0.000000000000D+00  7 2 -2 23 -13 13 23 21 2 0.40969733D+00 0.52827375D-02 0.81358717D+05 0.81358717D+05 0.81358717D+05 0.11291494D+01  1  2  3  2  7  2       -2 -.472751225982D-04 0.100000000000D+01
0.700001943247D-06 0.000000000000D+00 0.000000000000D+00 0.413207539574D-06 0.000000000000D+00  7 2 -2 23 -13 13 23 21 2 0.40969733D+00 0.52827375D-02 0.81358717D+05 0.81358717D+05 0.81358717D+05 0.11291494D+01  1  2 15  2  7  2       -2 0.545108886670D-04 0.100000000000D+01
-.951441232013D-06 0.000000000000D+00 0.000000000000D+00 0.413207539574D-06 0.000000000000D+00  7 2 -2 23 -13 13 23 21 2 0.40969733D+00 0.52827375D-02 0.81358717D+05 0.81358717D+05 0.81358717D+05 0.11291494D+01  1  2  4  2  7  2       -2 -.740910901346D-04 0.100000000000D+01
  </mgrwgt>
  </event>
  <event>
  8     66 0.29152272E-05 0.39736903E+03 0.75467711E-02 0.92610913E-01
        2 -1    0    0  501    0 0.00000000E+00 0.00000000E+00 0.27749422E+03 0.27749441E+03 0.32000000E+00 0.0000E+00 0.9000E+01
       -2 -1    0    0    0  501 0.00000000E+00 0.00000000E+00 -.68307402E+03 0.68307410E+03 0.32000000E+00 0.0000E+00 0.9000E+01
       25  2    1    2    0    0 -.23341998E+02 -.34297741E+03 -.52219242E+02 0.45921306E+03 0.29995238E+03 0.0000E+00 0.0000E+00
       23  2    3    3    0    0 -.10894159E+02 0.39647491E+01 -.38737566E+02 0.10001838E+03 0.91480460E+02 0.0000E+00 0.0000E+00
       23  1    1    2    0    0 0.23341998E+02 0.34297741E+03 -.35336056E+03 0.50135545E+03 0.91188000E+02 0.0000E+00 0.9000E+01
      -13  1    4    4    0    0 0.53309647E+01 0.40138517E+02 0.52164846E+01 0.40825759E+02 0.10565837E+00 0.0000E+00 0.9000E+01
       13  1    4    4    0    0 -.16225124E+02 -.36173768E+02 -.43954050E+02 0.59192616E+02 0.10565837E+00 0.0000E+00 0.9000E+01
       23  1    3    3    0    0 -.12447839E+02 -.34694216E+03 -.13481676E+02 0.35919468E+03 0.91188000E+02 0.0000E+00 0.9000E+01
#aMCatNLO 1  0  0  2  2 0.33655975D+03 0.00000000D+00  -5  7  0 0.00000000D+00 0.00000000D+00 0.00000000D+00 0.00000000D+00 0.00000000D+00
  <mgrwgt>
 0.5527645326D-03    3    2    0
 0.435372507126195D+03 0.000000000000000D+00 0.000000000000000D+00 0.435372507126195D+03
 0.435372507126195D+03 0.000000000000000D+00 0.000000000000000D+00 -.435372507126195D+03
 0.388483822663713D+03 0.233419983192047D+02 0.342977410323881D+03 -.156288439269837D+03
 0.474669871772492D+02 0.533099340135508D+01 0.401386190321468D+02 0.247706811216816D+02
 0.448256199163841D+02 -.162251525179197D+02 -.361738698158515D+02 -.209172600788010D+02
 0.389968584495044D+03 -.124478392026401D+02 -.346942159540176D+03 0.152435018226957D+03
 0.000000000000000D+00 -.000000000000000D+00 0.000000000000000D+00 0.000000000000000D+00
 0.980043059113519D+03 0.000000000000000D+00 0.000000000000000D+00 0.980043059113519D+03
 0.521933457263536D+03 0.000000000000000D+00 0.000000000000000D+00 -.521933457263536D+03
 0.397596764731495D+03 0.166732374939458D+03 0.312317426472808D+03 -.156288439269837D+03
 0.496603359528638D+02 0.230481634562645D+02 0.363503024060678D+02 0.247706811216816D+02
 0.448483619682200D+02 0.132440127993686D+00 -.396714791965308D+02 -.209172600788010D+02
 0.441419761513583D+03 0.139207207319875D+03 -.379369309722145D+03 0.152435018226957D+03
 0.568451292210894D+03 -.329120185843592D+03 0.703730600397998D+02 0.458109601849983D+03
0.501906453912D-04 0.000000000000D+00 0.000000000000D+00 0.108355749525D-05 0.000000000000D+00  7 2 -2 23 -13 13 23 21 0 0.42691439D-01 0.10508833D+00 0.15790214D+06 0.15790214D+06 0.15790214D+06 0.11057967D+01  1  2  2  2  7  2       -2 0.546800939991D-03 0.100000000000D+01
-.276008644272D-05 0.000000000000D+00 -.192745293803D-06 0.108355749525D-05 0.000000000000D+00  7 2 -2 23 -13 13 23 21 2 0.42691439D-01 0.10508833D+00 0.15790214D+06 0.15790214D+06 0.15790214D+06 0.11057967D+01  1  2  3  2  7  2       -2 -.367688205951D-04 0.100000000000D+01
0.320774918408D-05 0.000000000000D+00 0.000000000000D+00 0.108355749525D-05 0.000000000000D+00  7 2 -2 23 -13 13 23 21 2 0.42691439D-01 0.10508833D+00 0.15790214D+06 0.15790214D+06 0.15790214D+06 0.11057967D+01  1  2 15  2  7  2       -2 0.427324131730D-04 0.100000000000D+01
  </mgrwgt>
  </event>
  <event>
  8     66 0.29152272E-05 0.16957138E+03 0.75467711E-02 0.98531619E-01
        2 -1    0    0  501    0 0.00000000E+00 0.00000000E+00 0.21741667E+04 0.21741668E+04 0.32000000E+00 0.0000E+00 0.9000E+01
       -2 -1    0    0    0  501 0.00000000E+00 0.00000000E+00 -.69936769E+02 0.69937501E+02 0.32000000E+00 0.0000E+00 0.9000E+01
       25  2    1    2    0    0 -.22124792E+03 0.44626600E+02 0.18673512E+04 0.19044442E+04 0.29826980E+03 0.0000E+00 0.0000E+00
       23  2    3    3    0    0 -.21105754E+03 0.11738034E+03 0.12926358E+04 0.13179205E+04 0.87656860E+02 0.0000E+00 0.0000E+00
       23  1    1    2    0    0 0.22124792E+03 -.44626600E+02 0.23687874E+03 0.33966007E+03 0.91188000E+02 0.0000E+00 0.9000E+01
      -11  1    4    4    0    0 -.60976512E+02 -.66633331E+01 0.26560364E+03 0.27259463E+03 0.51099893E-03 0.0000E+00 0.9000E+01
       11  1    4    4    0    0 -.15008102E+03 0.12404368E+03 0.10270322E+04 0.10453259E+04 0.51099893E-03 0.0000E+00 0.9000E+01
       23  1    3    3    0    0 -.10190390E+02 -.72753745E+02 0.57471541E+03 0.58652366E+03 0.91188000E+02 0.0000E+00 0.9000E+01
#aMCatNLO 1  0  0  1  2 0.92596259D+02 0.00000000D+00  -5  7  0 0.00000000D+00 0.00000000D+00 0.00000000D+00 0.00000000D+00 0.00000000D+00
  <mgrwgt>
 0.8668468371D-03    9    2    0
 0.389942360933792D+03 0.000000000000000D+00 0.000000000000000D+00 0.389942360933792D+03
 0.389942360933792D+03 0.000000000000000D+00 0.000000000000000D+00 -.389942360933792D+03
 0.338236242858619D+03 0.221247924621865D+03 -.446265998112474D+02 -.234832551148513D+03
 0.677531120648611D+02 -.609765116561245D+02 -.666333308754146D+01 0.287741066392794D+02
 0.236840677149605D+03 -.150081023365022D+03 0.124043677715798D+03 0.134841977132977D+03
 0.137054689794499D+03 -.101903896007186D+02 -.727537448170094D+02 0.712164673762563D+02
 0.000000000000000D+00 -.000000000000000D+00 -.000000000000000D+00 0.000000000000000D+00
 0.509627128461075D+03 0.000000000000000D+00 0.000000000000000D+00 0.509627128461075D+03
 0.411010381546565D+03 0.000000000000000D+00 0.000000000000000D+00 -.411010381546565D+03
 0.351881634010686D+03 0.245401557277294D+03 -.117124556345149D+02 -.234832551148513D+03
 0.633079117844722D+02 -.563894694542012D+02 -.412572776134431D+00 0.287741066392794D+02
 0.239835562983800D+03 -.133397695508072D+03 0.146778040959000D+03 0.134841977132977D+03
 0.130337385006215D+03 -.831858013320636D+00 -.600008781014974D+02 0.712164673762563D+02
 0.135275016222466D+03 -.547825343017007D+02 -.746521344468529D+02 0.986167469145096D+02
0.163633487528D-04 0.000000000000D+00 0.000000000000D+00 0.998898385322D-08 0.000000000000D+00  7 2 -2 23 -11 11 23 21 0 0.33448725D+00 0.10759561D-01 0.95041171D+05 0.95041171D+05 0.95041171D+05 0.11235392D+01  1  2  2  1  7  1        2 0.637922993516D-03 0.100000000000D+01
-.848052148518D-06 0.000000000000D+00 -.628395677795D-07 0.998898385322D-08 0.000000000000D+00  7 2 -2 23 -11 11 23 21 2 0.33448725D+00 0.10759561D-01 0.95041171D+05 0.95041171D+05 0.95041171D+05 0.11235392D+01  1  2  3  1  7  1        2 -.417344845241D-04 0.100000000000D+01
0.102161963095D-05 0.000000000000D+00 0.000000000000D+00 0.998898385322D-08 0.000000000000D+00  7 2 -2 23 -11 11 23 21 2 0.33448725D+00 0.10759561D-01 0.95041171D+05 0.95041171D+05 0.95041171D+05 0.11235392D+01  1  2 15  1  7  1        2 0.502761165712D-04 0.100000000000D+01
0.193444083539D-04 0.000000000000D+00 0.000000000000D+00 0.998898385322D-08 0.000000000000D+00  7 2 -2 23 -11 11 23 21 2 0.44414395D+00 0.10759561D-01 0.12907701D+06 0.12907701D+06 0.12907701D+06 0.11127375D+01  1  2 12  1  7  1        2 0.359771222963D-03 0.100000000000D+01
-.208582754945D-04 0.000000000000D+00 0.000000000000D+00 0.998898385322D-08 0.000000000000D+00  7 2 -2 23 -11 11 23 21 2 0.33448725D+00 0.10759561D-01 0.95041171D+05 0.95041171D+05 0.95041171D+05 0.11235392D+01  1  2  4  1  7  1        2 -.102648095090D-02 0.100000000000D+01
-.281880393188D-04 0.000000000000D+00 -.641841869823D-05 0.998898385322D-08 0.000000000000D+00  7 2 -2 23 -11 11 23 21 2 0.44373252D+00 0.10759561D-01 0.95041171D+05 0.95041171D+05 0.95041171D+05 0.11235392D+01  1  2  5  1  7  1        2 -.543671018372D-03 0.100000000000D+01
0.290809251969D-04 0.000000000000D+00 0.617034322927D-05 0.998898385322D-08 0.000000000000D+00  7 2 -2 23 -11 11 23 21 2 0.33448725D+00 0.10759561D-01 0.95041171D+05 0.95041171D+05 0.95041171D+05 0.11235392D+01  1  2  6  1  7  1        2 0.143113536673D-02 0.100000000000D+01
0.717841494139D-06 0.000000000000D+00 0.000000000000D+00 0.998898385322D-08 0.000000000000D+00  7 21 -2 23 -11 11 23 -2 2 0.44414395D+00 0.10759561D-01 0.12907701D+06 0.12907701D+06 0.12907701D+06 0.11127375D+01  1  2 12  3  7  1        2 0.107090477595D-05 0.100000000000D+01
-.912465352108D-06 0.000000000000D+00 -.237612241567D-06 0.998898385322D-08 0.000000000000D+00  7 21 -2 23 -11 11 23 -2 2 0.44373252D+00 0.10759561D-01 0.95041171D+05 0.95041171D+05 0.95041171D+05 0.11235392D+01  1  2  5  3  7  1        2 -.144331368173D-05 0.100000000000D+01
  </mgrwgt>
  </event>
  <event>
  8     66 0.29152272E-05 0.31413203E+03 0.75467711E-02 0.91602005E-01
        2 -1    0    0  501    0 0.00000000E+00 0.00000000E+00 0.91407130E+03 0.91407136E+03 0.32000000E+00 0.0000E+00 0.9000E+01
       -2 -1    0    0    0  501 0.00000000E+00 0.00000000E+00 -.28802156E+03 0.28802174E+03 0.32000000E+00 0.0000E+00 0.9000E+01
       25  2    1    2    0    0 -.28953319E+02 -.43690155E+03 0.15632438E+03 0.55349582E+03 0.30033157E+03 0.0000E+00 0.0000E+00
       23  2    3    3    0    0 -.20354755E+02 -.30294488E+03 -.15068426E+02 0.31746813E+03 0.91482452E+02 0.0000E+00 0.0000E+00
       23  1    1    2    0    0 0.28953319E+02 0.43690155E+03 0.46972536E+03 0.64859727E+03 0.91188000E+02 0.0000E+00 0.9000E+01
      -13  1    4    4    0    0 -.56371387E+02 -.20734328E+03 -.13535867E+02 0.21529561E+03 0.10565837E+00 0.0000E+00 0.9000E+01
       13  1    4    4    0    0 0.36016631E+02 -.95601605E+02 -.15325587E+01 0.10217252E+03 0.10565837E+00 0.0000E+00 0.9000E+01
       23  1    3    3    0    0 -.85985636E+01 -.13395667E+03 0.17139281E+03 0.23602769E+03 0.91188000E+02 0.0000E+00 0.9000E+01
#aMCatNLO 1  0  0  2  1 0.35000859D+03 0.00000000D+00  -5  7  0 0.00000000D+00 0.00000000D+00 0.00000000D+00 0.00000000D+00 0.00000000D+00
  <mgrwgt>
 0.3838814240D-03    9    2    0
 0.513100752950706D+03 0.000000000000000D+00 0.000000000000000D+00 0.513100752950706D+03
 0.513100752950706D+03 0.000000000000000D+00 0.000000000000000D+00 -.513100752950706D+03
 0.473204202645747D+03 0.289533187799714D+02 0.436901550528867D+03 0.154550013053036D+03
 0.260455359173203D+03 -.563715097777687D+02 -.207343426927911D+03 -.147200374718298D+03
 0.120619733150313D+03 0.360167546289401D+02 -.956014564174541D+02 -.641270219339163D+02
 0.171922210932150D+03 -.859856363114280D+01 -.133956667183502D+03 0.567773835991778D+02
 0.000000000000000D+00 -.000000000000000D+00 -.000000000000000D+00 -.000000000000000D+00
 0.667062621827124D+03 0.000000000000000D+00 0.000000000000000D+00 0.667062621827124D+03
 0.787257625784268D+03 0.000000000000000D+00 0.000000000000000D+00 -.787257625784268D+03
 0.640336756639232D+03 0.103352640273257D+03 0.605927747980817D+03 0.154550013053036D+03
 0.202716031130880D+03 -.254255109921897D+02 -.137037886553445D+03 -.147200374718298D+03
 0.102547681908475D+03 0.509273011349667D+02 -.617265106886601D+02 -.641270219339163D+02
 0.138648367374399D+03 0.121516747046085D+02 -.868146528248061D+02 0.567773835991778D+02
 0.370071410558404D+03 -.141006105120642D+03 -.320348697913907D+03 -.120195003957144D+03
0.207571631450D-04 0.000000000000D+00 0.000000000000D+00 0.938042113544D-06 0.000000000000D+00  7 2 -2 23 -13 13 23 21 0 0.14062637D+00 0.44311027D-01 0.21462899D+06 0.21462899D+06 0.21462899D+06 0.10954785D+01  1  2  2  2  7  2       -2 0.361312459768D-03 0.100000000000D+01
-.113854852358D-05 0.000000000000D+00 -.797129719635D-07 0.938042113544D-06 0.000000000000D+00  7 2 -2 23 -13 13 23 21 2 0.14062637D+00 0.44311027D-01 0.21462899D+06 0.21462899D+06 0.21462899D+06 0.10954785D+01  1  2  3  2  7  2       -2 -.237834131948D-04 0.100000000000D+01
0.132025985895D-05 0.000000000000D+00 0.000000000000D+00 0.938042113544D-06 0.000000000000D+00  7 2 -2 23 -13 13 23 21 2 0.14062637D+00 0.44311027D-01 0.21462899D+06 0.21462899D+06 0.21462899D+06 0.10954785D+01  1  2 15  2  7  2       -2 0.275792248637D-04 0.100000000000D+01
0.103736375468D-05 0.000000000000D+00 0.000000000000D+00 0.938042113544D-06 0.000000000000D+00  7 2 -2 23 -13 13 23 21 2 0.14062637D+00 0.71768580D-01 0.43382284D+06 0.43382284D+06 0.43382284D+06 0.10728955D+01  1  2 12  2  7  2       -2 0.757974387157D-05 0.100000000000D+01
-.782956860296D-05 0.000000000000D+00 0.000000000000D+00 0.938042113544D-06 0.000000000000D+00  7 2 -2 23 -13 13 23 21 2 0.14062637D+00 0.44311027D-01 0.21462899D+06 0.21462899D+06 0.21462899D+06 0.10954785D+01  1  2  4  2  7  2       -2 -.163553736504D-03 0.100000000000D+01
-.692459817712D-05 0.000000000000D+00 -.659622338858D-05 0.938042113544D-06 0.000000000000D+00  7 2 -2 23 -13 13 23 21 2 0.14062637D+00 0.85606389D-01 0.21462899D+06 0.21462899D+06 0.21462899D+06 0.10954785D+01  1  2  5  2  7  2       -2 -.365000964514D-04 0.100000000000D+01
0.101887509866D-04 0.000000000000D+00 0.538564643923D-05 0.938042113544D-06 0.000000000000D+00  7 2 -2 23 -13 13 23 21 2 0.14062637D+00 0.44311027D-01 0.21462899D+06 0.21462899D+06 0.21462899D+06 0.10954785D+01  1  2  6  2  7  2       -2 0.212835263176D-03 0.100000000000D+01
0.568479797476D-07 0.000000000000D+00 0.000000000000D+00 0.938042113544D-06 0.000000000000D+00  7 2 21 23 -13 13 23 2 2 0.14062637D+00 0.71768580D-01 0.43382284D+06 0.43382284D+06 0.43382284D+06 0.10728955D+01  1  2 12  4  7  2       -2 0.401320013246D-05 0.100000000000D+01
-.111085332833D-06 0.000000000000D+00 -.471126114281D-06 0.938042113544D-06 0.000000000000D+00  7 2 21 23 -13 13 23 2 2 0.14062637D+00 0.85606389D-01 0.21462899D+06 0.21462899D+06 0.21462899D+06 0.10954785D+01  1  2  5  4  7  2       -2 -.560122167769D-05 0.100000000000D+01
  </mgrwgt>
  </event>
  <event>
  8     66 0.29152272E-05 0.11193759E+03 0.75467711E-02 0.10369506E+00
        2 -1    0    0  501    0 0.00000000E+00 0.00000000E+00 0.27791353E+03 0.27791371E+03 0.32000000E+00 0.0000E+00 0.9000E+01
       -2 -1    0    0    0  501 0.00000000E+00 0.00000000E+00 -.26077165E+03 0.26077184E+03 0.32000000E+00 0.0000E+00 0.9000E+01
       25  2    1    2    0    0 -.95180314E+02 0.14398974E+02 -.12989319E+03 0.34069267E+03 0.29988770E+03 0.0000E+00 0.0000E+00
       23  2    3    3    0    0 -.82098407E+02 0.11319171E+03 -.11928968E+03 0.20519792E+03 0.91234029E+02 0.0000E+00 0.0000E+00
       23  1    1    2    0    0 0.95180314E+02 -.14398974E+02 0.14703506E+03 0.19799289E+03 0.91188000E+02 0.0000E+00 0.9000E+01
      -11  1    4    4    0    0 -.93947036E+02 0.74556622E+02 -.11206877E+03 0.16414672E+03 0.51099893E-03 0.0000E+00 0.9000E+01
       11  1    4    4    0    0 0.11848629E+02 0.38635085E+02 -.72209093E+01 0.41051204E+02 0.51099893E-03 0.0000E+00 0.9000E+01
       23  1    3    3    0    0 -.13081907E+02 -.98792733E+02 -.10603507E+02 0.13549475E+03 0.91188000E+02 0.0000E+00 0.9000E+01
#aMCatNLO 1  0  0  1  2 0.50411846D+02 0.00000000D+00  -5  7  0 0.00000000D+00 0.00000000D+00 0.00000000D+00 0.00000000D+00 0.00000000D+00
  <mgrwgt>
 0.2827888056D-03    9    2    0
 0.269206371974701D+03 0.000000000000000D+00 0.000000000000000D+00 0.269206371974701D+03
 0.269206371974701D+03 0.000000000000000D+00 0.000000000000000D+00 -.269206371974701D+03
 0.193411937226515D+03 0.951803138067164D+02 -.143989739806531D+02 0.140805907296792D+03
 0.167797912096889D+03 -.939470362333088D+02 0.745566220011586D+02 -.117351624627992D+03
 0.413019021790379D+02 0.118486289415863D+02 0.386350851159962D+02 -.853154815324595D+01
 0.135900992446960D+03 -.130819065149940D+02 -.987927331365016D+02 -.149227345155542D+02
 0.000000000000000D+00 0.000000000000000D+00 -.000000000000000D+00 0.000000000000000D+00
 0.347241778569629D+03 0.000000000000000D+00 0.000000000000000D+00 0.347241778569629D+03
 0.278650217217987D+03 0.000000000000000D+00 0.000000000000000D+00 -.278650217217987D+03
 0.188893183427898D+03 0.868169033233488D+02 0.138027866647996D+01 0.140805907296792D+03
 0.178819187804565D+03 -.101529725897701D+03 0.888628881108026D+02 -.117351624627992D+03
 0.441592275370205D+02 0.997905809470815D+01 0.421624057937594D+02 -.853154815324595D+01
 0.128896038063480D+03 -.188746781554700D+02 -.878635066655544D+02 -.149227345155542D+02
 0.851243589546516D+02 0.236084426351138D+02 -.445420659054877D+02 0.685915613516423D+02
0.284136744196D-05 0.000000000000D+00 0.000000000000D+00 0.362969885149D-06 0.000000000000D+00  7 2 -2 23 -11 11 23 21 0 0.42755956D-01 0.40118744D-01 0.45801003D+05 0.45801003D+05 0.45801003D+05 0.11506614D+01  1  2  2  1  7  1        2 0.238764992377D-03 0.100000000000D+01
-.147749509433D-06 0.000000000000D+00 -.109115991264D-07 0.362969885149D-06 0.000000000000D+00  7 2 -2 23 -11 11 23 21 2 0.42755956D-01 0.40118744D-01 0.45801003D+05 0.45801003D+05 0.45801003D+05 0.11506614D+01  1  2  3  1  7  1        2 -.164385821052D-04 0.100000000000D+01
0.170616697545D-06 0.000000000000D+00 0.000000000000D+00 0.362969885149D-06 0.000000000000D+00  7 2 -2 23 -11 11 23 21 2 0.42755956D-01 0.40118744D-01 0.45801003D+05 0.45801003D+05 0.45801003D+05 0.11506614D+01  1  2 15  1  7  1        2 0.189827810723D-04 0.100000000000D+01
0.692382310204D-05 0.000000000000D+00 0.000000000000D+00 0.362969885149D-06 0.000000000000D+00  7 2 -2 23 -11 11 23 21 2 0.55743611D-01 0.40118744D-01 0.58227596D+05 0.58227596D+05 0.58227596D+05 0.11415212D+01  1  2 12  1  7  1        2 0.569006615479D-03 0.100000000000D+01
-.713118373559D-05 0.000000000000D+00 0.000000000000D+00 0.362969885149D-06 0.000000000000D+00  7 2 -2 23 -11 11 23 21 2 0.42755956D-01 0.40118744D-01 0.45801003D+05 0.45801003D+05 0.45801003D+05 0.11506614D+01  1  2  4  1  7  1        2 -.793414135821D-03 0.100000000000D+01
-.905594744294D-05 0.000000000000D+00 -.162036169449D-05 0.362969885149D-06 0.000000000000D+00  7 2 -2 23 -11 11 23 21 2 0.56504156D-01 0.40118744D-01 0.45801003D+05 0.45801003D+05 0.45801003D+05 0.11506614D+01  1  2  5  1  7  1        2 -.745727685979D-03 0.100000000000D+01
0.920848938581D-05 0.000000000000D+00 0.155936147143D-05 0.362969885149D-06 0.000000000000D+00  7 2 -2 23 -11 11 23 21 2 0.42755956D-01 0.40118744D-01 0.45801003D+05 0.45801003D+05 0.45801003D+05 0.11506614D+01  1  2  6  1  7  1        2 0.102453476438D-02 0.100000000000D+01
0.244744247135D-06 0.000000000000D+00 0.000000000000D+00 0.362969885149D-06 0.000000000000D+00  7 21 -2 23 -11 11 23 -2 2 0.55743611D-01 0.40118744D-01 0.58227596D+05 0.58227596D+05 0.58227596D+05 0.11415212D+01  1  2 12  3  7  1        2 0.588108826221D-04 0.100000000000D+01
-.299575049233D-06 0.000000000000D+00 -.593964704988D-07 0.362969885149D-06 0.000000000000D+00  7 21 -2 23 -11 11 23 -2 2 0.56504156D-01 0.40118744D-01 0.45801003D+05 0.45801003D+05 0.45801003D+05 0.11506614D+01  1  2  5  3  7  1        2 -.717308263910D-04 0.100000000000D+01
  </mgrwgt>
  </event>
  <event>
  9     66 0.29152272E-05 0.45583855E+03 0.75467711E-02 0.94277395E-01
        2 -1    0    0  501    0 0.00000000E+00 0.00000000E+00 0.15384980E+04 0.15384980E+04 0.32000000E+00 0.0000E+00 0.9000E+01
       -2 -1    0    0    0  502 0.00000000E+00 0.00000000E+00 -.20856823E+03 0.20856847E+03 0.32000000E+00 0.0000E+00 0.9000E+01
       25  2    1    2    0    0 -.25649610E+03 0.28264143E+03 0.37388854E+03 0.61255229E+03 0.29958511E+03 0.0000E+00 0.0000E+00
       23  2    3    3    0    0 -.63612709E+02 0.28892873E+02 0.21762770E+03 0.24604849E+03 0.91086053E+02 0.0000E+00 0.0000E+00
       23  1    1    2    0    0 0.28891803E+03 -.39225463E+03 0.79980917E+03 0.94092894E+03 0.91188000E+02 0.0000E+00 0.9000E+01
      -13  1    4    4    0    0 -.16005935E+02 -.17256716E+02 0.14815814E+03 0.15001610E+03 0.10565837E+00 0.0000E+00 0.9000E+01
       13  1    4    4    0    0 -.47606774E+02 0.46149588E+02 0.69469560E+02 0.96032392E+02 0.10565837E+00 0.0000E+00 0.9000E+01
       23  1    3    3    0    0 -.19288339E+03 0.25374855E+03 0.15626083E+03 0.36650379E+03 0.91188000E+02 0.0000E+00 0.9000E+01
       21  1    1    2  501  502 -.32421926E+02 0.10961321E+03 0.15623206E+03 0.19358527E+03 0.75000000E+00 0.0000E+00 0.9000E+01
#aMCatNLO 2  0  0  2  1 0.11430764D+03 0.00000000D+00  -5  7  0 0.00000000D+00 0.00000000D+00 0.00000000D+00 0.00000000D+00 0.00000000D+00
  <mgrwgt>
 0.1603959838D-03    1    2    0
 0.505636085787250D+03 0.000000000000000D+00 0.000000000000000D+00 0.505636085787250D+03
 0.505636085787250D+03 0.000000000000000D+00 0.000000000000000D+00 -.505636085787250D+03
 0.465371955212633D+03 0.273270188728204D+03 -.339351860848682D+03 0.135718546431272D+03
 0.571376178609116D+02 -.178477160719269D+02 -.110298994207409D+02 0.531460979245305D+02
 0.734227515681544D+02 -.498422317322078D+02 0.537072464488206D+02 -.470999603794657D+01
 0.415339846932801D+03 -.205580240924069D+03 0.296674513820603D+03 -.184154648317856D+03
 0.000000000000000D+00 -.000000000000000D+00 0.000000000000000D+00 0.000000000000000D+00
 0.574126089715958D+03 0.000000000000000D+00 0.000000000000000D+00 0.574126089715958D+03
 0.558902767850272D+03 0.000000000000000D+00 0.000000000000000D+00 -.558902767850272D+03
 0.513879460726641D+03 0.288918027897156D+03 -.392254634291686D+03 0.135718546431272D+03
 0.581248097651027D+02 -.160058929197132D+02 -.172568009048106D+02 0.531460979245305D+02
 0.664709362055768D+02 -.476068160959328D+02 0.461496734395425D+02 -.470999603794657D+01
 0.379236757190328D+03 -.192883392386142D+03 0.253748554882144D+03 -.184154648317856D+03
 0.115316893678581D+03 -.324219264953682D+02 0.109613206874810D+03 0.152233218656856D+02
0.991606542991D-05 0.000000000000D+00 0.000000000000D+00 0.105902064482D-05 0.522088030264D-09  7 2 -2 23 -13 13 23 21 2 0.23669151D+00 0.32087372D-01 0.26589752D+06 0.26589752D+06 0.26589752D+06 0.10884506D+01  1  2  1  2  7  2       -2 0.160395983788D-03 0.100000000000D+01
  </mgrwgt>
  </event>
  <event>
  8     66 0.29152272E-05 0.24121737E+03 0.75467711E-02 0.96959500E-01
        2 -1    0    0  501    0 0.00000000E+00 0.00000000E+00 0.75100011E+03 0.75100017E+03 0.32000000E+00 0.0000E+00 0.9000E+01
       -2 -1    0    0    0  501 0.00000000E+00 0.00000000E+00 -.79417566E+02 0.79418211E+02 0.32000000E+00 0.0000E+00 0.9000E+01
       25  2    1    2    0    0 -.46458863E+02 0.12351540E+03 0.46781869E+03 0.57109342E+03 0.29979807E+03 0.0000E+00 0.0000E+00
       23  2    3    3    0    0 -.13118507E+03 0.20471775E+02 0.18733894E+03 0.24739500E+03 0.92085790E+02 0.0000E+00 0.0000E+00
       23  1    1    2    0    0 0.46458863E+02 -.12351540E+03 0.20376385E+03 0.25932497E+03 0.91188000E+02 0.0000E+00 0.9000E+01
      -13  1    4    4    0    0 -.72781673E+02 -.34219923E+02 0.79222604E+02 0.11289113E+03 0.10565837E+00 0.0000E+00 0.9000E+01
       13  1    4    4    0    0 -.58403401E+02 0.54691698E+02 0.10811633E+03 0.13450387E+03 0.10565837E+00 0.0000E+00 0.9000E+01
       23  1    3    3    0    0 0.84726211E+02 0.10304363E+03 0.28047975E+03 0.32369842E+03 0.91188000E+02 0.0000E+00 0.9000E+01
#aMCatNLO 1  0  0  1  1 0.26735053D+03 0.00000000D+00  -5  7  0 0.00000000D+00 0.00000000D+00 0.00000000D+00 0.00000000D+00 0.00000000D+00
  <mgrwgt>
 0.4575430626D-03    3    2    0
 0.244218951883973D+03 0.000000000000000D+00 0.000000000000000D+00 0.244218951883973D+03
 0.244218951883973D+03 0.000000000000000D+00 0.000000000000000D+00 -.244218951883973D+03
 0.160724581484414D+03 0.464588635378806D+02 -.123515405760174D+03 -.101320426375050D+02
 0.830041096339789D+02 -.727816915190210D+02 -.342200377652754D+02 -.205303826341054D+02
 0.800213179073037D+02 -.584033830808257D+02 0.546918130851576D+02 -.112327458543323D+01
 0.164687894742250D+03 0.847262110619661D+02 0.103043630440292D+03 0.317856998570436D+02
 0.000000000000000D+00 0.000000000000000D+00 0.000000000000000D+00 -.000000000000000D+00
 0.314593658316154D+03 0.000000000000000D+00 0.000000000000000D+00 0.314593658316154D+03
 0.772249761328834D+03 0.000000000000000D+00 0.000000000000000D+00 -.772249761328834D+03
 0.191015463829196D+03 -.338409458642040D+02 -.164084698168021D+03 -.101320426375050D+02
 0.138628387030832D+03 -.123378851201606D+03 -.597828751051615D+02 -.205303826341054D+02
 0.106257835164842D+03 -.100929619961072D+03 0.332065897471891D+02 -.112327458543323D+01
 0.120917757402151D+03 0.195244242966704D+02 0.701022029015270D+02 0.317856998570436D+02
 0.530023976217968D+03 0.238624992730212D+03 0.120558780624467D+03 -.457656103012680D+03
0.221420301517D-05 0.000000000000D+00 0.000000000000D+00 0.109771732915D-06 0.000000000000D+00  7 2 -2 23 -13 13 23 21 0 0.11553853D+00 0.12218142D-01 0.58185820D+05 0.58185820D+05 0.58185820D+05 0.11415482D+01  1  2  2  1  7  1        2 0.451949803844D-03 0.100000000000D+01
-.122988405088D-06 0.000000000000D+00 -.850312259131D-08 0.109771732915D-06 0.000000000000D+00  7 2 -2 23 -13 13 23 21 2 0.11553853D+00 0.12218142D-01 0.58185820D+05 0.58185820D+05 0.58185820D+05 0.11415482D+01  1  2  3  1  7  1        2 -.327133790899D-04 0.100000000000D+01
0.144016681539D-06 0.000000000000D+00 0.000000000000D+00 0.109771732915D-06 0.000000000000D+00  7 2 -2 23 -13 13 23 21 2 0.11553853D+00 0.12218142D-01 0.58185820D+05 0.58185820D+05 0.58185820D+05 0.11415482D+01  1  2 15  1  7  1        2 0.383066378906D-04 0.100000000000D+01
  </mgrwgt>
  </event>
  <event>
  8     66 0.29152272E-05 0.30176598E+03 0.75467711E-02 0.94980059E-01
        2 -1    0    0  501    0 0.00000000E+00 0.00000000E+00 0.15935379E+04 0.15935379E+04 0.32000000E+00 0.0000E+00 0.9000E+01
       -2 -1    0    0    0  501 0.00000000E+00 0.00000000E+00 -.15253073E+03 0.15253106E+03 0.32000000E+00 0.0000E+00 0.9000E+01
       25  2    1    2    0    0 0.27243959E+03 0.34767870E+03 0.76808420E+03 0.93597987E+03 0.30166400E+03 0.0000E+00 0.0000E+00
       23  2    3    3    0    0 0.74787070E+02 0.17493265E+03 0.52870752E+03 0.56920451E+03 0.90926330E+02 0.0000E+00 0.0000E+00
       23  1    1    2    0    0 -.27243959E+03 -.34767870E+03 0.67292298E+03 0.81008913E+03 0.91188000E+02 0.0000E+00 0.9000E+01
      -13  1    4    4    0    0 0.47360263E+02 0.58131128E+02 0.10627157E+03 0.13006106E+03 0.10565837E+00 0.0000E+00 0.9000E+01
       13  1    4    4    0    0 0.27426807E+02 0.11680152E+03 0.42243595E+03 0.43914345E+03 0.10565837E+00 0.0000E+00 0.9000E+01
       23  1    3    3    0    0 0.19765252E+03 0.17274606E+03 0.23937668E+03 0.36677536E+03 0.91188000E+02 0.0000E+00 0.9000E+01
#aMCatNLO 1  0  0  1  2 0.45662438D+02 0.00000000D+00  -5  7  0 0.00000000D+00 0.00000000D+00 0.00000000D+00 0.00000000D+00 0.00000000D+00
  <mgrwgt>
 0.2190707738D-03    7    2    0
 0.493015024526864D+03 0.000000000000000D+00 0.000000000000000D+00 0.493015024526864D+03
 0.493015024526864D+03 0.000000000000000D+00 0.000000000000000D+00 -.493015024526864D+03
 0.451086324400231D+03 -.272439586698882D+03 -.347678704496825D+03 0.773374137543981D+01
 0.750052021858176D+02 0.473602902202084D+02 0.581310493735641D+02 -.188795230905329D+01
 0.160280749801852D+03 0.274267799643942D+02 0.116801597442357D+03 0.106278301326010D+03
 0.299657772665826D+03 0.197652516514280D+03 0.172746057680904D+03 -.112124090392397D+03
 0.000000000000000D+00 0.000000000000000D+00 0.000000000000000D+00 0.000000000000000D+00
 0.176441098750586D+04 0.000000000000000D+00 0.000000000000000D+00 0.176441098750586D+04
 0.493953555496829D+03 0.000000000000000D+00 0.000000000000000D+00 -.493953555496829D+03
 0.465160873607742D+03 -.293602795184601D+03 -.348994233327207D+03 0.773374137543981D+01
 0.727295689794521D+02 0.439479558965041D+02 0.579189348359805D+02 -.188795230905329D+01
 0.158849270772722D+03 0.200556085445471D+02 0.116343397140497D+03 0.106278301326010D+03
 0.290347068974575D+03 0.184024758090171D+03 0.171898940897430D+03 -.112124090392397D+03
 0.127127776066820D+04 0.455744726533785D+02 0.283296045329943D+01 0.127045743200903D+04
0.979212700905D-05 0.000000000000D+00 0.000000000000D+00 0.141605797373D-06 0.000000000000D+00  7 2 -2 23 -13 13 23 21 0 0.24515971D+00 0.23466294D-01 0.21338403D+06 0.21338403D+06 0.21338403D+06 0.10956713D+01  1  2  2  1  7  1        2 0.217191051148D-03 0.100000000000D+01
-.541202579991D-06 0.000000000000D+00 -.376043460410D-07 0.141605797373D-06 0.000000000000D+00  7 2 -2 23 -13 13 23 21 2 0.24515971D+00 0.23466294D-01 0.21338403D+06 0.21338403D+06 0.21338403D+06 0.10956713D+01  1  2  3  1  7  1        2 -.144107078805D-04 0.100000000000D+01
0.610327998118D-06 0.000000000000D+00 0.000000000000D+00 0.141605797373D-06 0.000000000000D+00  7 2 -2 23 -13 13 23 21 2 0.24515971D+00 0.23466294D-01 0.21338403D+06 0.21338403D+06 0.21338403D+06 0.10956713D+01  1  2 15  1  7  1        2 0.162513240280D-04 0.100000000000D+01
0.119808757669D-02 0.000000000000D+00 0.000000000000D+00 0.141605797373D-06 0.000000000000D+00  7 2 -2 23 -13 13 23 21 2 0.87680747D+00 0.23466294D-01 0.23490854D+06 0.23490854D+06 0.23490854D+06 0.10924993D+01  1  2 12  1  7  1        2 0.596122903747D-05 0.100000000000D+01
-.119330800189D-02 0.000000000000D+00 -.276046845664D-05 0.141605797373D-06 0.000000000000D+00  7 2 -2 23 -13 13 23 21 2 0.87742680D+00 0.23466294D-01 0.21338403D+06 0.21338403D+06 0.21338403D+06 0.10956713D+01  1  2  5  1  7  1        2 -.592214927042D-05 0.100000000000D+01
0.179259288308D-03 0.000000000000D+00 0.000000000000D+00 0.141605797373D-06 0.000000000000D+00  7 21 -2 23 -13 13 23 -2 2 0.87680747D+00 0.23466294D-01 0.23490854D+06 0.23490854D+06 0.23490854D+06 0.10924993D+01  1  2 12  3  7  1        2 0.267893572900D-08 0.100000000000D+01
-.178583862848D-03 0.000000000000D+00 -.413300446117D-06 0.141605797373D-06 0.000000000000D+00  7 21 -2 23 -13 13 23 -2 2 0.87742680D+00 0.23466294D-01 0.21338403D+06 0.21338403D+06 0.21338403D+06 0.10956713D+01  1  2  5  3  7  1        2 -.265215599849D-08 0.100000000000D+01
  </mgrwgt>
  </event>
  <event>
  8     66 0.29152272E-05 0.18395403E+03 0.75467711E-02 0.10028576E+00
        2 -1    0    0  501    0 0.00000000E+00 0.00000000E+00 0.28501458E+04 0.28501458E+04 0.32000000E+00 0.0000E+00 0.9000E+01
       -2 -1    0    0    0  501 0.00000000E+00 0.00000000E+00 -.36589887E+02 0.36591287E+02 0.32000000E+00 0.0000E+00 0.9000E+01
       25  2    1    2    0    0 -.23400630E+03 0.29592110E+02 0.14075574E+04 0.14581778E+04 0.29904848E+03 0.0000E+00 0.0000E+00
       23  2    3    3    0    0 -.20209776E+02 0.10064111E+03 0.53346318E+03 0.55092211E+03 0.91624993E+02 0.0000E+00 0.0000E+00
       23  1    1    2    0    0 0.23400630E+03 -.29592110E+02 0.14059985E+04 0.14285593E+04 0.91188000E+02 0.0000E+00 0.9000E+01
      -13  1    4    4    0    0 -.29655488E+02 0.72849445E+02 0.50107904E+03 0.50721465E+03 0.10565837E+00 0.0000E+00 0.9000E+01
       13  1    4    4    0    0 0.94457126E+01 0.27791662E+02 0.32384137E+02 0.43707453E+02 0.10565837E+00 0.0000E+00 0.9000E+01
       23  1    3    3    0    0 -.21379653E+03 -.71048997E+02 0.87409422E+03 0.90725568E+03 0.91188000E+02 0.0000E+00 0.9000E+01
#aMCatNLO 1  0  0  1  2 0.19796687D+02 0.00000000D+00  -5  7  0 0.00000000D+00 0.00000000D+00 0.00000000D+00 0.00000000D+00 0.00000000D+00
  <mgrwgt>
 0.8034707766D-03    9    2    0
 0.322937394260649D+03 0.000000000000000D+00 0.000000000000000D+00 0.322937394260649D+03
 0.322937394260649D+03 0.000000000000000D+00 0.000000000000000D+00 -.322937394260649D+03
 0.260142914410006D+03 0.234006304271617D+03 -.295921097852623D+02 0.610281998204791D+02
 0.841981947963789D+02 -.296555401115088D+02 0.728495043625101D+02 0.300472072213090D+02
 0.542788191064952D+02 0.944576454210208D+01 0.277916021387267D+02 -.456573607031059D+02
 0.247254860208418D+03 -.213796528702210D+03 -.710489967159745D+02 -.454180463386822D+02
 0.000000000000000D+00 0.000000000000000D+00 -.000000000000000D+00 0.000000000000000D+00
 0.353287444452424D+03 0.000000000000000D+00 0.000000000000000D+00 0.353287444452424D+03
 0.326333506877251D+03 0.000000000000000D+00 0.000000000000000D+00 -.326333506877251D+03
 0.257197302281601D+03 0.231569841199801D+03 -.220492274309914D+02 0.610281998204791D+02
 0.866419414516647D+02 -.304601280204369D+02 0.753403740214501D+02 0.300472072213090D+02
 0.550259178283454D+02 0.893098346279731D+01 0.293852783016520D+02 -.456573607031059D+02
 0.247312949534335D+03 -.216125742952463D+03 -.638381387839248D+02 -.454180463386822D+02
 0.334428402337289D+02 0.608504631030140D+01 -.188382861081859D+02 0.269539375751732D+02
0.824440035759D-05 0.000000000000D+00 0.000000000000D+00 0.825995688659D-07 0.000000000000D+00  7 2 -2 23 -13 13 23 21 0 0.43848408D+00 0.56293225D-02 0.91185305D+05 0.91185305D+05 0.91185305D+05 0.11250256D+01  1  2  2  1  7  1        2 0.353697207591D-03 0.100000000000D+01
-.455512364008D-06 0.000000000000D+00 -.316606681736D-07 0.825995688659D-07 0.000000000000D+00  7 2 -2 23 -13 13 23 21 2 0.43848408D+00 0.56293225D-02 0.91185305D+05 0.91185305D+05 0.91185305D+05 0.11250256D+01  1  2  3  1  7  1        2 -.247341803558D-04 0.100000000000D+01
0.521548281878D-06 0.000000000000D+00 0.000000000000D+00 0.825995688659D-07 0.000000000000D+00  7 2 -2 23 -13 13 23 21 2 0.43848408D+00 0.56293225D-02 0.91185305D+05 0.91185305D+05 0.91185305D+05 0.11250256D+01  1  2 15  1  7  1        2 0.283199102539D-04 0.100000000000D+01
0.368586581923D-04 0.000000000000D+00 0.000000000000D+00 0.825995688659D-07 0.000000000000D+00  7 2 -2 23 -13 13 23 21 2 0.48186585D+00 0.56293225D-02 0.97572786D+05 0.97572786D+05 0.97572786D+05 0.11225988D+01  1  2 12  1  7  1        2 0.132828617610D-02 0.100000000000D+01
-.375459140278D-04 0.000000000000D+00 0.000000000000D+00 0.825995688659D-07 0.000000000000D+00  7 2 -2 23 -13 13 23 21 2 0.43848408D+00 0.56293225D-02 0.91185305D+05 0.91185305D+05 0.91185305D+05 0.11250256D+01  1  2  4  1  7  1        2 -.203873150888D-02 0.100000000000D+01
-.640039138348D-04 0.000000000000D+00 -.733495853349D-05 0.825995688659D-07 0.000000000000D+00  7 2 -2 23 -13 13 23 21 2 0.48101477D+00 0.56293225D-02 0.91185305D+05 0.91185305D+05 0.91185305D+05 0.11250256D+01  1  2  5  1  7  1        2 -.234143848150D-02 0.100000000000D+01
0.644379473725D-04 0.000000000000D+00 0.730363997087D-05 0.825995688659D-07 0.000000000000D+00  7 2 -2 23 -13 13 23 21 2 0.43848408D+00 0.56293225D-02 0.91185305D+05 0.91185305D+05 0.91185305D+05 0.11250256D+01  1  2  6  1  7  1        2 0.349896059472D-02 0.100000000000D+01
0.570491660665D-06 0.000000000000D+00 0.000000000000D+00 0.825995688659D-07 0.000000000000D+00  7 21 -2 23 -13 13 23 -2 2 0.48186585D+00 0.56293225D-02 0.97572786D+05 0.97572786D+05 0.97572786D+05 0.11225988D+01  1  2 12  3  7  1        2 0.124864890269D-05 0.100000000000D+01
-.951263631877D-06 0.000000000000D+00 -.111415788162D-06 0.825995688659D-07 0.000000000000D+00  7 21 -2 23 -13 13 23 -2 2 0.48101477D+00 0.56293225D-02 0.91185305D+05 0.91185305D+05 0.91185305D+05 0.11250256D+01  1  2  5  3  7  1        2 -.213759023776D-05 0.100000000000D+01
  </mgrwgt>
  </event>
  <event>
  8     66 0.29152272E-05 0.16944921E+03 0.75467711E-02 0.93018453E-01
        2 -1    0    0  501    0 0.00000000E+00 0.00000000E+00 0.58371992E+03 0.58372001E+03 0.32000000E+00 0.0000E+00 0.9000E+01
       -2 -1    0    0    0  501 0.00000000E+00 0.00000000E+00 -.92427145E+02 0.92427699E+02 0.32000000E+00 0.0000E+00 0.9000E+01
       25  2    1    2    0    0 -.21110214E+02 0.19025603E+01 0.17845021E+03 0.34959759E+03 0.29987453E+03 0.0000E+00 0.0000E+00
       23  2    3    3    0    0 0.58659082E+02 -.79196397E+02 0.29937948E+02 0.14148385E+03 0.96997130E+02 0.0000E+00 0.0000E+00
       23  1    1    2    0    0 0.21110214E+02 -.19025603E+01 0.31284256E+03 0.32655012E+03 0.91188000E+02 0.0000E+00 0.9000E+01
      -11  1    4    4    0    0 0.40423714E+02 -.43375849E+02 0.65118163E+02 0.88067679E+02 0.51099893E-03 0.0000E+00 0.9000E+01
       11  1    4    4    0    0 0.18235368E+02 -.35820547E+02 -.35180215E+02 0.53416175E+02 0.51099893E-03 0.0000E+00 0.9000E+01
       23  1    3    3    0    0 -.79769296E+02 0.81098957E+02 0.14851227E+03 0.20811373E+03 0.91188000E+02 0.0000E+00 0.9000E+01
#aMCatNLO 1  0  0  1  2 0.52617464D+03 0.00000000D+00  -5  7  0 0.00000000D+00 0.00000000D+00 0.00000000D+00 0.00000000D+00 0.00000000D+00
  <mgrwgt>
 0.3848069818D-03    3    2    0
 0.232275229888356D+03 0.000000000000000D+00 0.000000000000000D+00 0.232275229888356D+03
 0.232275229888356D+03 0.000000000000000D+00 0.000000000000000D+00 -.232275229888356D+03
 0.144438181859773D+03 0.211102143214151D+02 -.190256031615013D+01 0.109990345714995D+03
 0.593147106250437D+02 0.404237136651196D+02 -.433758492236952D+02 0.164133304857933D+01
 0.114952011330192D+03 0.182353683132484D+02 -.358205476470463D+02 -.107695518094313D+03
 0.145845555961703D+03 -.797692962997830D+02 0.810989571868917D+02 -.393616066926136D+01
 0.000000000000000D+00 0.000000000000000D+00 0.000000000000000D+00 -.000000000000000D+00
 0.560321446046715D+03 0.000000000000000D+00 0.000000000000000D+00 0.560321446046715D+03
 0.681537415105240D+03 0.000000000000000D+00 0.000000000000000D+00 -.681537415105240D+03
 0.196368323678381D+03 -.124049807248102D+03 -.525265301677360D+02 0.109990345714995D+03
 0.625660471764934D+02 -.114890671764407D+02 -.614802213767165D+02 0.164133304857933D+01
 0.167542081674261D+03 -.102087594914919D+03 -.777826939532809D+02 -.107695518094313D+03
 0.275425874732300D+03 -.259201815845149D+03 0.185225924161783D+02 -.393616066926136D+01
 0.539956533890519D+03 0.496828285184610D+03 0.173266853081555D+03 -.121215969058525D+03
0.176796349853D-05 0.000000000000D+00 0.000000000000D+00 0.998094728850D-08 0.000000000000D+00  7 2 -2 23 -11 11 23 21 0 0.89803114D-01 0.14219610D-01 0.28713036D+05 0.28713036D+05 0.28713036D+05 0.11691068D+01  1  2  2  1  7  1        2 0.379069860873D-03 0.100000000000D+01
-.863427684541D-07 0.000000000000D+00 -.678944534983D-08 0.998094728850D-08 0.000000000000D+00  7 2 -2 23 -11 11 23 21 2 0.89803114D-01 0.14219610D-01 0.28713036D+05 0.28713036D+05 0.28713036D+05 0.11691068D+01  1  2  3  1  7  1        2 -.253034833173D-04 0.100000000000D+01
0.105919476523D-06 0.000000000000D+00 0.000000000000D+00 0.998094728850D-08 0.000000000000D+00  7 2 -2 23 -11 11 23 21 2 0.89803114D-01 0.14219610D-01 0.28713036D+05 0.28713036D+05 0.28713036D+05 0.11691068D+01  1  2 15  1  7  1        2 0.310406042701D-04 0.100000000000D+01
  </mgrwgt>
  </event>
  <event>
  8     66 0.29152272E-05 0.19206460E+03 0.75467711E-02 0.93592703E-01
        2 -1    0    0  501    0 0.00000000E+00 0.00000000E+00 0.61128919E+03 0.61128928E+03 0.32000000E+00 0.0000E+00 0.9000E+01
       -2 -1    0    0    0  501 0.00000000E+00 0.00000000E+00 -.11587090E+03 0.11587134E+03 0.32000000E+00 0.0000E+00 0.9000E+01
       25  2    1    2    0    0 -.11939756E+03 -.53798242E+02 0.45761025E+03 0.56316450E+03 0.30099348E+03 0.0000E+00 0.0000E+00
       23  2    3    3    0    0 -.48381857E+02 -.37084914E+02 0.42932592E+03 0.44300701E+03 0.90655266E+02 0.0000E+00 0.0000E+00
       23  1    1    2    0    0 0.11939756E+03 0.53798242E+02 0.37808043E+02 0.16399612E+03 0.91188000E+02 0.0000E+00 0.9000E+01
      -11  1    4    4    0    0 0.16164680E+02 -.40015033E+02 0.20864456E+03 0.21306115E+03 0.51099893E-03 0.0000E+00 0.9000E+01
       11  1    4    4    0    0 -.64546536E+02 0.29301191E+01 0.22068135E+03 0.22994586E+03 0.51099893E-03 0.0000E+00 0.9000E+01
       23  1    3    3    0    0 -.71015701E+02 -.16713328E+02 0.28284336E+02 0.12015748E+03 0.91188000E+02 0.0000E+00 0.9000E+01
#aMCatNLO 1  0  0  2  2 0.47696580D+03 0.00000000D+00  -5  7  0 0.00000000D+00 0.00000000D+00 0.00000000D+00 0.00000000D+00 0.00000000D+00
  <mgrwgt>
 0.2851470544D-03    5    2    0
 0.266140598020899D+03 0.000000000000000D+00 0.000000000000000D+00 0.266140598020899D+03
 0.266140598020899D+03 0.000000000000000D+00 0.000000000000000D+00 -.266140598020899D+03
 0.188848907960048D+03 0.119397557902986D+03 0.537982422893382D+02 -.100988271532310D+03
 0.968723738928951D+02 0.161646795256022D+02 -.400150334275872D+02 0.867280638505698D+02
 0.108735751589228D+03 -.645465360947334D+02 0.293011913617686D+01 0.874564048751911D+02
 0.137824162599626D+03 -.710157013338552D+02 -.167133279979279D+02 -.731961971934513D+02
 0.000000000000000D+00 -.000000000000000D+00 0.000000000000000D+00 -.000000000000000D+00
 0.372158325463599D+03 0.000000000000000D+00 0.000000000000000D+00 0.372158325463599D+03
 0.420018056597430D+04 0.000000000000000D+00 0.000000000000000D+00 -.420018056597430D+04
 0.219614536882052D+03 0.139609807866783D+03 -.101122519876803D+03 -.100988271532310D+03
 0.167503846328803D+03 0.292469719928519D+02 -.140286835109087D+03 0.867280638505698D+02
 0.135917832113443D+03 -.524401910820271D+02 -.898613414767735D+02 0.874564048751911D+02
 0.191680266891142D+03 -.547106292958418D+02 -.141686757073234D+03 -.731961971934513D+02
 0.385762240922246D+04 -.617059594817658D+02 0.472957453535898D+03 -.382802224051070D+04
0.205272969304D-05 0.000000000000D+00 0.000000000000D+00 0.503308402947D-07 0.000000000000D+00  7 2 -2 23 -11 11 23 21 0 0.94044532D-01 0.17826332D-01 0.36888811D+05 0.36888811D+05 0.36888811D+05 0.11590971D+01  1  2  2  2  7  2       -2 0.292558620420D-03 0.100000000000D+01
-.992872132855D-07 0.000000000000D+00 -.788302251743D-08 0.503308402947D-07 0.000000000000D+00  7 2 -2 23 -11 11 23 21 2 0.94044532D-01 0.17826332D-01 0.36888811D+05 0.36888811D+05 0.36888811D+05 0.11590971D+01  1  2  3  2  7  2       -2 -.190114001569D-04 0.100000000000D+01
0.131498172376D-06 0.000000000000D+00 0.000000000000D+00 0.503308402947D-07 0.000000000000D+00  7 2 -2 23 -11 11 23 21 2 0.94044532D-01 0.17826332D-01 0.36888811D+05 0.36888811D+05 0.36888811D+05 0.11590971D+01  1  2 15  2  7  2       -2 0.251791171514D-04 0.100000000000D+01
-.174672805427D-04 0.000000000000D+00 -.249213126258D-05 0.503308402947D-07 0.000000000000D+00  7 2 -2 23 -11 11 23 21 2 0.94044532D-01 0.31655342D+00 0.36888811D+05 0.36888811D+05 0.36888811D+05 0.11590971D+01  1  2  5  2  7  2       -2 -.362519023685D-05 0.100000000000D+01
-.611095547067D-05 0.000000000000D+00 -.785694433679D-06 0.503308402947D-07 0.000000000000D+00  7 2 21 23 -11 11 23 2 2 0.94044532D-01 0.31655342D+00 0.36888811D+05 0.36888811D+05 0.36888811D+05 0.11590971D+01  1  2  5  4  7  2       -2 -.995409273340D-05 0.100000000000D+01
  </mgrwgt>
  </event>
  <event>
  8     66 0.29152272E-05 0.22179785E+03 0.75467711E-02 0.96631252E-01
        2 -1    0    0  501    0 0.00000000E+00 0.00000000E+00 0.13300162E+04 0.13300162E+04 0.32000000E+00 0.0000E+00 0.9000E+01
       -2 -1    0    0    0  501 0.00000000E+00 0.00000000E+00 -.15212844E+03 0.15212878E+03 0.32000000E+00 0.0000E+00 0.9000E+01
       25  2    1    2    0    0 -.26505023E+03 0.25225434E+03 0.88880980E+03 0.10069975E+04 0.30029509E+03 0.0000E+00 0.0000E+00
       23  2    3    3    0    0 -.20129245E+03 0.78482085E+02 0.65060872E+03 0.69185168E+03 0.93214594E+02 0.0000E+00 0.0000E+00
       23  1    1    2    0    0 0.26505023E+03 -.25225434E+03 0.28907795E+03 0.47514755E+03 0.91188000E+02 0.0000E+00 0.9000E+01
      -13  1    4    4    0    0 -.14547484E+03 0.96065944E+02 0.44041931E+03 0.47366737E+03 0.10565837E+00 0.0000E+00 0.9000E+01
       13  1    4    4    0    0 -.55817607E+02 -.17583860E+02 0.21018941E+03 0.21818431E+03 0.10565837E+00 0.0000E+00 0.9000E+01
       23  1    3    3    0    0 -.63757781E+02 0.17377226E+03 0.23820109E+03 0.31514578E+03 0.91188000E+02 0.0000E+00 0.9000E+01
#aMCatNLO 1  0  0  1  2 0.25269860D+02 0.00000000D+00  -5  7  0 0.00000000D+00 0.00000000D+00 0.00000000D+00 0.00000000D+00 0.00000000D+00
  <mgrwgt>
 0.3451759070D-03    6    2    0
 0.449815037041886D+03 0.000000000000000D+00 0.000000000000000D+00 0.449815037041886D+03
 0.449815037041886D+03 0.000000000000000D+00 0.000000000000000D+00 -.449815037041886D+03
 0.404317508099598D+03 0.265050232133066D+03 -.252254345014572D+03 -.145854433869339D+03
 0.203727462898571D+03 -.145474959310955D+03 0.960660897716519D+02 0.105419266495975D+03
 0.842581064699175D+02 -.558174915867094D+02 -.175840051781088D+02 0.606187998954106D+02
 0.207326996615685D+03 -.637577812354012D+02 0.173772260421029D+03 -.201836325220470D+02
 0.000000000000000D+00 -.000000000000000D+00 -.000000000000000D+00 -.000000000000000D+00
 0.460759358203721D+03 0.000000000000000D+00 0.000000000000000D+00 0.460759358203721D+03
 0.464819507642255D+03 0.000000000000000D+00 0.000000000000000D+00 -.464819507642255D+03
 0.408409305598979D+03 0.275482063306388D+03 -.247626788681980D+03 -.145854433869339D+03
 0.201166756575596D+03 -.140277901616517D+03 0.983715025841451D+02 0.105419266495975D+03
 0.826578745488883D+02 -.536750258715775D+02 -.166336082034363D+02 0.606187998954106D+02
 0.207750972050626D+03 -.584300090739449D+02 0.176135658121272D+03 -.201836325220470D+02
 0.255939570718867D+02 -.230991267443485D+02 -.102467638200006D+02 -.406014943853422D+01
0.693654061133D-05 0.000000000000D+00 0.000000000000D+00 0.197814777634D-06 0.000000000000D+00  7 2 -2 23 -13 13 23 21 0 0.20461791D+00 0.23404404D-01 0.16658191D+06 0.16658191D+06 0.16658191D+06 0.11039762D+01  1  2  2  1  7  1        2 0.217062783157D-03 0.100000000000D+01
-.380935232009D-06 0.000000000000D+00 -.266381423806D-07 0.197814777634D-06 0.000000000000D+00  7 2 -2 23 -13 13 23 21 2 0.20461791D+00 0.23404404D-01 0.16658191D+06 0.16658191D+06 0.16658191D+06 0.11039762D+01  1  2  3  1  7  1        2 -.145282409798D-04 0.100000000000D+01
0.441039556909D-06 0.000000000000D+00 0.000000000000D+00 0.197814777634D-06 0.000000000000D+00  7 2 -2 23 -13 13 23 21 2 0.20461791D+00 0.23404404D-01 0.16658191D+06 0.16658191D+06 0.16658191D+06 0.11039762D+01  1  2 15  1  7  1        2 0.168205207236D-04 0.100000000000D+01
0.122062449984D-04 0.000000000000D+00 0.000000000000D+00 0.197814777634D-06 0.000000000000D+00  7 2 -2 23 -13 13 23 21 2 0.21291303D+00 0.23404404D-01 0.17683741D+06 0.17683741D+06 0.17683741D+06 0.11019547D+01  1  2 12  1  7  1        2 0.432306134148D-03 0.100000000000D+01
-.809083045960D-05 0.000000000000D+00 0.000000000000D+00 0.197814777634D-06 0.000000000000D+00  7 2 -2 23 -13 13 23 21 2 0.20461791D+00 0.23404404D-01 0.16658191D+06 0.16658191D+06 0.16658191D+06 0.11039762D+01  1  2  4  1  7  1        2 -.308570919060D-03 0.100000000000D+01
0.141957093173D-06 0.000000000000D+00 0.000000000000D+00 0.197814777634D-06 0.000000000000D+00  7 21 -2 23 -13 13 23 -2 2 0.21291303D+00 0.23404404D-01 0.17683741D+06 0.17683741D+06 0.17683741D+06 0.11019547D+01  1  2 12  3  7  1        2 0.208562899682D-05 0.100000000000D+01
  </mgrwgt>
  </event>
  <event>
  8     66 0.29152272E-05 0.28945018E+03 0.75467711E-02 0.10061811E+00
        2 -1    0    0  501    0 0.00000000E+00 0.00000000E+00 0.57379355E+03 0.57379364E+03 0.32000000E+00 0.0000E+00 0.9000E+01
       -2 -1    0    0    0  501 0.00000000E+00 0.00000000E+00 -.17708012E+03 0.17708041E+03 0.32000000E+00 0.0000E+00 0.9000E+01
       25  2    1    2    0    0 0.20156605E+03 0.50294876E+02 0.37447207E+03 0.52290831E+03 0.30007554E+03 0.0000E+00 0.0000E+00
       23  2    3    3    0    0 0.14427876E+03 0.13739423E+03 0.27880567E+03 0.35457697E+03 0.91097144E+02 0.0000E+00 0.0000E+00
       23  1    1    2    0    0 -.20156605E+03 -.50294876E+02 0.22241370E+02 0.22796574E+03 0.91188000E+02 0.0000E+00 0.9000E+01
      -11  1    4    4    0    0 0.14775570E+03 0.10578967E+03 0.26130928E+03 0.31828563E+03 0.51099893E-03 0.0000E+00 0.9000E+01
       11  1    4    4    0    0 -.34769479E+01 0.31604563E+02 0.17496391E+02 0.36291339E+02 0.51099893E-03 0.0000E+00 0.9000E+01
       23  1    3    3    0    0 0.57287292E+02 -.87099357E+02 0.95666399E+02 0.16833135E+03 0.91188000E+02 0.0000E+00 0.9000E+01
#aMCatNLO 1  0  0  2  2 0.29615224D+02 0.00000000D+00  -5  7  0 0.00000000D+00 0.00000000D+00 0.00000000D+00 0.00000000D+00 0.00000000D+00
  <mgrwgt>
 0.2627253940D-03    4    2    0
 0.318759426813582D+03 0.000000000000000D+00 0.000000000000000D+00 0.318759426813582D+03
 0.318759426813582D+03 0.000000000000000D+00 0.000000000000000D+00 -.318759426813582D+03
 0.254659299306118D+03 -.201566048455246D+03 -.502948763655603D+02 -.115661838566544D+03
 0.212272180052634D+03 0.147755703927572D+03 0.105789670222568D+03 0.109709963336818D+03
 0.318565813898204D+02 -.347694785452957D+01 0.316045632270873D+02 -.197590351185961D+01
 0.138730792878591D+03 0.572872923822041D+02 -.870993570840954D+02 0.792777874158521D+01
 0.000000000000000D+00 0.000000000000000D+00 0.000000000000000D+00 0.000000000000000D+00
 0.353827423887196D+03 0.000000000000000D+00 0.000000000000000D+00 0.353827423887196D+03
 0.325417651346682D+03 0.000000000000000D+00 0.000000000000000D+00 -.325417651346682D+03
 0.262101017272425D+03 -.208265233860406D+03 -.602463557048662D+02 -.115661838566544D+03
 0.204591400523571D+03 0.142351561377639D+03 0.977619460024122D+02 0.109709963336818D+03
 0.307632310337744D+02 -.428873954983527D+01 0.303986661224285D+02 -.197590351185961D+01
 0.140750705103116D+03 0.536641458049131D+02 -.924814544775211D+02 0.792777874158521D+01
 0.410387213009910D+02 0.165382662276895D+02 0.245671980575466D+02 0.284097725405141D+02
0.567938954549D-05 0.000000000000D+00 0.000000000000D+00 0.519186079158D-06 0.000000000000D+00  7 2 -2 23 -11 11 23 21 0 0.88275960D-01 0.27243124D-01 0.83781408D+05 0.83781408D+05 0.83781408D+05 0.11280838D+01  1  2  2  2  7  2       -2 0.429831892407D-03 0.100000000000D+01
-.311952642887D-06 0.000000000000D+00 -.218103512723D-07 0.519186079158D-06 0.000000000000D+00  7 2 -2 23 -11 11 23 21 2 0.88275960D-01 0.27243124D-01 0.83781408D+05 0.83781408D+05 0.83781408D+05 0.11280838D+01  1  2  3  2  7  2       -2 -.300447324065D-04 0.100000000000D+01
0.369150597010D-06 0.000000000000D+00 0.000000000000D+00 0.519186079158D-06 0.000000000000D+00  7 2 -2 23 -11 11 23 21 2 0.88275960D-01 0.27243124D-01 0.83781408D+05 0.83781408D+05 0.83781408D+05 0.11280838D+01  1  2 15  2  7  2       -2 0.355535724981D-04 0.100000000000D+01
-.179225463906D-05 0.000000000000D+00 0.000000000000D+00 0.519186079158D-06 0.000000000000D+00  7 2 -2 23 -11 11 23 21 2 0.88275960D-01 0.27243124D-01 0.83781408D+05 0.83781408D+05 0.83781408D+05 0.11280838D+01  1  2  4  2  7  2       -2 -.172615338458D-03 0.100000000000D+01
  </mgrwgt>
  </event>
  <event>
  8     66 0.29152272E-05 0.22424597E+03 0.75467711E-02 0.91523829E-01
        2 -1    0    0  501    0 0.00000000E+00 0.00000000E+00 0.22277163E+04 0.22277163E+04 0.32000000E+00 0.0000E+00 0.9000E+01
       -2 -1    0    0    0  501 0.00000000E+00 0.00000000E+00 -.25278499E+02 0.25280525E+02 0.32000000E+00 0.0000E+00 0.9000E+01
       25  2    1    2    0    0 0.10136924E+03 0.63059836E+02 0.15914859E+04 0.16238468E+04 0.29966464E+03 0.0000E+00 0.0000E+00
       23  2    3    3    0    0 0.25230984E+02 0.14849913E+03 0.90046962E+03 0.91750722E+03 0.91023912E+02 0.0000E+00 0.0000E+00
       23  1    1    2    0    0 -.10136924E+03 -.63059836E+02 0.61095188E+03 0.62915000E+03 0.91188000E+02 0.0000E+00 0.9000E+01
      -11  1    4    4    0    0 0.14062296E+02 0.32620206E+02 0.47718909E+03 0.47850941E+03 0.51099893E-03 0.0000E+00 0.9000E+01
       11  1    4    4    0    0 0.11168688E+02 0.11587892E+03 0.42328054E+03 0.43899781E+03 0.51099893E-03 0.0000E+00 0.9000E+01
       23  1    3    3    0    0 0.76138258E+02 -.85439294E+02 0.69101626E+03 0.70633960E+03 0.91188000E+02 0.0000E+00 0.9000E+01
#aMCatNLO 1  0  0  2  1 0.58546025D+03 0.00000000D+00  -5  7  0 0.00000000D+00 0.00000000D+00 0.00000000D+00 0.00000000D+00 0.00000000D+00
  <mgrwgt>
 0.5530004387D-03    5    2    0
 0.237309147508880D+03 0.000000000000000D+00 0.000000000000000D+00 0.237309147508880D+03
 0.237309147508880D+03 0.000000000000000D+00 0.000000000000000D+00 -.237309147508880D+03
 0.151467910471420D+03 -.101369241938714D+03 -.630598355671985D+02 -.193651874658196D+02
 0.571004073771043D+02 0.140622964303375D+02 0.326202062742458D+02 0.447060452775935D+02
 0.119699615362120D+03 0.111686878704626D+02 0.115878923580967D+03 -.278448091896531D+02
 0.146350361807117D+03 0.761382576379140D+02 -.854392942880139D+02 0.250395137787913D+01
 0.000000000000000D+00 -.000000000000000D+00 -.000000000000000D+00 -.000000000000000D+00
 0.542193104199415D+03 0.000000000000000D+00 0.000000000000000D+00 0.542193104199415D+03
 0.895059905112918D+03 0.000000000000000D+00 0.000000000000000D+00 -.895059905112918D+03
 0.962307574961968D+02 0.931903897375102D+01 -.219830018721563D+02 -.193651874658196D+02
 0.120935533449992D+03 0.936206258815120D+02 0.621445989288367D+02 0.447060452775935D+02
 0.252726502726771D+03 0.177593510080453D+03 0.177639795538613D+03 -.278448091896531D+02
 0.283782357994508D+03 0.268350237256914D+03 -.141087120807755D+02 0.250395137787913D+01
 0.683577857644866D+03 -.548883412192630D+03 -.203692680514518D+03 -.352866800913503D+03
0.282841898395D-05 0.000000000000D+00 0.000000000000D+00 0.127151323948D-06 0.000000000000D+00  7 2 -2 23 -11 11 23 21 0 0.34272574D+00 0.38891575D-02 0.50286253D+05 0.50286253D+05 0.50286253D+05 0.11470774D+01  1  2  2  2  7  2       -2 0.481114976246D-03 0.100000000000D+01
-.156521902898D-06 0.000000000000D+00 -.108618736382D-07 0.127151323948D-06 0.000000000000D+00  7 2 -2 23 -11 11 23 21 2 0.34272574D+00 0.38891575D-02 0.50286253D+05 0.50286253D+05 0.50286253D+05 0.11470774D+01  1  2  3  2  7  2       -2 -.350320603356D-04 0.100000000000D+01
0.177513024307D-06 0.000000000000D+00 0.000000000000D+00 0.127151323948D-06 0.000000000000D+00  7 2 -2 23 -11 11 23 21 2 0.34272574D+00 0.38891575D-02 0.50286253D+05 0.50286253D+05 0.50286253D+05 0.11470774D+01  1  2 15  2  7  2       -2 0.397302030115D-04 0.100000000000D+01
0.105847666935D-04 0.000000000000D+00 -.350959467342D-05 0.127151323948D-06 0.000000000000D+00  7 2 -2 23 -11 11 23 21 2 0.34272574D+00 0.69635560D-01 0.50286253D+05 0.50286253D+05 0.50286253D+05 0.11470774D+01  1  2  5  2  7  2       -2 0.195199114983D-04 0.100000000000D+01
0.248788567255D-05 0.000000000000D+00 -.110809108200D-05 0.127151323948D-06 0.000000000000D+00  7 2 21 23 -11 11 23 2 2 0.34272574D+00 0.69635560D-01 0.50286253D+05 0.50286253D+05 0.50286253D+05 0.11470774D+01  1  2  5  4  7  2       -2 0.476674082957D-04 0.100000000000D+01
  </mgrwgt>
  </event>
  <event>
  8     66 0.29152272E-05 0.21840353E+03 0.75467711E-02 0.90344553E-01
        2 -1    0    0  501    0 0.00000000E+00 0.00000000E+00 0.46430575E+03 0.46430586E+03 0.32000000E+00 0.0000E+00 0.9000E+01
       -2 -1    0    0    0  501 0.00000000E+00 0.00000000E+00 -.11009493E+04 0.11009494E+04 0.32000000E+00 0.0000E+00 0.9000E+01
       25  2    1    2    0    0 0.15633112E+03 -.43982165E+03 0.20936422E+03 0.59472602E+03 0.30328725E+03 0.0000E+00 0.0000E+00
       23  2    3    3    0    0 -.22141647E+02 -.28566445E+03 0.13743969E+03 0.33184703E+03 0.95594741E+02 0.0000E+00 0.0000E+00
       23  1    1    2    0    0 -.15633112E+03 0.43982165E+03 -.84600780E+03 0.97052921E+03 0.91188000E+02 0.0000E+00 0.9000E+01
      -13  1    4    4    0    0 0.36274648E+02 -.13165580E+03 0.74123809E+02 0.15538163E+03 0.10565837E+00 0.0000E+00 0.9000E+01
       13  1    4    4    0    0 -.58416295E+02 -.15400864E+03 0.63315885E+02 0.17646540E+03 0.10565837E+00 0.0000E+00 0.9000E+01
       23  1    3    3    0    0 0.17847277E+03 -.15415721E+03 0.71924528E+02 0.26287899E+03 0.91188000E+02 0.0000E+00 0.9000E+01
#aMCatNLO 1  0  0  1  2 0.39547787D+03 0.00000000D+00  -5  7  0 0.00000000D+00 0.00000000D+00 0.00000000D+00 0.00000000D+00 0.00000000D+00
  <mgrwgt>
 0.6664207567D-03    8    2    0
 0.714966590620363D+03 0.000000000000000D+00 0.000000000000000D+00 0.714966590620363D+03
 0.714966590620363D+03 0.000000000000000D+00 0.000000000000000D+00 -.714966590620363D+03
 0.685710711733519D+03 -.156331122270814D+03 0.439821652111807D+03 -.493965002186671D+03
 0.203088039679700D+03 0.362747635818936D+02 -.131655777456569D+03 0.150318494039581D+03
 0.221355150691851D+03 -.584164101258149D+02 -.154008668382670D+03 0.147874797814980D+03
 0.319779279135657D+03 0.178472768814735D+03 -.154157206272568D+03 0.195771710332109D+03
 0.000000000000000D+00 -.000000000000000D+00 0.000000000000000D+00 0.000000000000000D+00
 0.127884059010886D+04 0.000000000000000D+00 0.000000000000000D+00 0.127884059010886D+04
 0.814615863561246D+03 0.000000000000000D+00 0.000000000000000D+00 -.814615863561246D+03
 0.655031211859938D+03 0.245419769107634D+02 0.419698588454540D+03 -.493965002186671D+03
 0.224709402267122D+03 0.939868763943926D+02 -.138076547185048D+03 0.150318494039581D+03
 0.218317627979022D+03 0.897747733017049D+00 -.160607673871995D+03 0.147874797814980D+03
 0.385556145620490D+03 0.273626207364839D+03 -.164743516286692D+03 0.195771710332109D+03
 0.609842065943529D+03 -.393052808403012D+03 0.437291488891961D+02 0.464224726547610D+03
0.239012705396D-03 0.000000000000D+00 0.000000000000D+00 0.834606278585D-08 0.000000000000D+00  7 2 -2 23 -13 13 23 21 0 0.71431666D-01 0.16937683D+00 0.26508484D+06 0.26508484D+06 0.26508484D+06 0.10885500D+01  1  2  2  1  7  1        2 0.409487128670D-03 0.100000000000D+01
-.115380414174D-04 0.000000000000D+00 -.917871722213D-06 0.834606278585D-08 0.000000000000D+00  7 2 -2 23 -13 13 23 21 2 0.71431666D-01 0.16937683D+00 0.26508484D+06 0.26508484D+06 0.26508484D+06 0.10885500D+01  1  2  3  1  7  1        2 -.234233044105D-04 0.100000000000D+01
0.147453604873D-04 0.000000000000D+00 0.000000000000D+00 0.834606278585D-08 0.000000000000D+00  7 2 -2 23 -13 13 23 21 2 0.71431666D-01 0.16937683D+00 0.26508484D+06 0.26508484D+06 0.26508484D+06 0.10885500D+01  1  2 15  1  7  1        2 0.299344624312D-04 0.100000000000D+01
0.239512919750D-04 0.000000000000D+00 0.000000000000D+00 0.834606278585D-08 0.000000000000D+00  7 2 -2 23 -13 13 23 21 2 0.12933889D+00 0.16937683D+00 0.55165026D+06 0.55165026D+06 0.55165026D+06 0.10655060D+01  1  2 12  1  7  1        2 0.220475424244D-04 0.100000000000D+01
-.165498748376D-03 0.000000000000D+00 -.785236678123D-04 0.834606278585D-08 0.000000000000D+00  7 2 -2 23 -13 13 23 21 2 0.13829826D+00 0.16937683D+00 0.26508484D+06 0.26508484D+06 0.26508484D+06 0.10885500D+01  1  2  5  1  7  1        2 -.151243378688D-03 0.100000000000D+01
0.189079357275D-03 0.000000000000D+00 0.640330981060D-04 0.834606278585D-08 0.000000000000D+00  7 2 -2 23 -13 13 23 21 2 0.71431666D-01 0.16937683D+00 0.26508484D+06 0.26508484D+06 0.26508484D+06 0.10885500D+01  1  2  6  1  7  1        2 0.383848799201D-03 0.100000000000D+01
0.155754513431D-05 0.000000000000D+00 0.000000000000D+00 0.834606278585D-08 0.000000000000D+00  7 21 -2 23 -13 13 23 -2 2 0.12933889D+00 0.16937683D+00 0.55165026D+06 0.55165026D+06 0.55165026D+06 0.10655060D+01  1  2 12  3  7  1        2 0.127303625802D-05 0.100000000000D+01
-.728142945717D-05 0.000000000000D+00 -.562557836196D-05 0.834606278585D-08 0.000000000000D+00  7 21 -2 23 -13 13 23 -2 2 0.13829826D+00 0.16937683D+00 0.26508484D+06 0.26508484D+06 0.26508484D+06 0.10885500D+01  1  2  5  3  7  1        2 -.550352923326D-05 0.100000000000D+01
  </mgrwgt>
  </event>
  <event>
  8     66 0.29152272E-05 0.94150266E+02 0.75467711E-02 0.10640044E+00
        2 -1    0    0  501    0 0.00000000E+00 0.00000000E+00 0.14328168E+04 0.14328169E+04 0.32000000E+00 0.0000E+00 0.9000E+01
       -2 -1    0    0    0  501 0.00000000E+00 0.00000000E+00 -.44967334E+02 0.44968473E+02 0.32000000E+00 0.0000E+00 0.9000E+01
       25  2    1    2    0    0 0.27770868E+01 0.90530990E+02 0.12510958E+04 0.12901144E+04 0.30158048E+03 0.0000E+00 0.0000E+00
       23  2    3    3    0    0 0.49490862E+02 0.13953977E+03 0.96988305E+03 0.98683248E+03 0.10604018E+03 0.0000E+00 0.0000E+00
       23  1    1    2    0    0 -.27770868E+01 -.90530990E+02 0.13675370E+03 0.18767099E+03 0.91188000E+02 0.0000E+00 0.9000E+01
      -13  1    4    4    0    0 0.29188280E+02 0.12233760E+03 0.93251134E+03 0.94095476E+03 0.10565837E+00 0.0000E+00 0.9000E+01
       13  1    4    4    0    0 0.20302582E+02 0.17202171E+02 0.37371709E+02 0.45877721E+02 0.10565837E+00 0.0000E+00 0.9000E+01
       23  1    3    3    0    0 -.46713775E+02 -.49008777E+02 0.28121274E+03 0.30328187E+03 0.91188000E+02 0.0000E+00 0.9000E+01
#aMCatNLO 1  0  0  1  2 0.35275698D+01 0.00000000D+00  -5  7  0 0.00000000D+00 0.00000000D+00 0.00000000D+00 0.00000000D+00 0.00000000D+00
  <mgrwgt>
 0.7195046811D-03   11    2    0
 0.253832269460032D+03 0.000000000000000D+00 0.000000000000000D+00 0.253832269460032D+03
 0.253832269460032D+03 0.000000000000000D+00 0.000000000000000D+00 -.253832269460032D+03
 0.172444356702525D+03 -.277708731161826D+01 -.905310059277084D+02 -.114970559563432D+03
 0.189778522997490D+03 0.291884349172855D+02 0.122337798125931D+03 0.142117508449477D+03
 0.313809179622006D+02 0.203025242616445D+02 0.172021105460378D+02 -.166330067491598D+02
 0.114060741257848D+03 -.467138718673118D+02 -.490089027442607D+02 -.105139421368858D+02
 0.000000000000000D+00 -.000000000000000D+00 0.000000000000000D+00 0.000000000000000D+00
 0.256426433694237D+03 0.000000000000000D+00 0.000000000000000D+00 0.256426433694237D+03
 0.255040442677033D+03 0.000000000000000D+00 0.000000000000000D+00 -.255040442677033D+03
 0.172827053796123D+03 -.184131997687203D+01 -.912815378609619D+02 -.114970559563432D+03
 0.189409452849795D+03 0.302161241806798D+02 0.121513540235108D+03 0.142117508449477D+03
 0.314169392731112D+02 0.204727213347471D+02 0.170656040304044D+02 -.166330067491598D+02
 0.114023348730166D+03 -.460957099387644D+02 -.495046993488966D+02 -.105139421368858D+02
 0.379008172207417D+01 -.275181559979034D+01 0.220709294434586D+01 0.138599101720391D+01
0.129114026525D-05 0.000000000000D+00 0.000000000000D+00 0.259614758793D-09 0.000000000000D+00  7 2 -2 23 -13 13 23 21 0 0.22043345D+00 0.69181418D-02 0.38904127D+05 0.38904127D+05 0.38904127D+05 0.11570059D+01  1  2  2  1  7  1        2 0.247212562739D-03 0.100000000000D+01
-.661808121089D-07 0.000000000000D+00 -.495831858362D-08 0.259614758793D-09 0.000000000000D+00  7 2 -2 23 -13 13 23 21 2 0.22043345D+00 0.69181418D-02 0.38904127D+05 0.38904127D+05 0.38904127D+05 0.11570059D+01  1  2  3  1  7  1        2 -.169629092986D-04 0.100000000000D+01
0.793290818773D-07 0.000000000000D+00 0.000000000000D+00 0.259614758793D-09 0.000000000000D+00  7 2 -2 23 -13 13 23 21 2 0.22043345D+00 0.69181418D-02 0.38904127D+05 0.38904127D+05 0.38904127D+05 0.11570059D+01  1  2 15  1  7  1        2 0.203329632524D-04 0.100000000000D+01
0.275978476492D-07 0.000000000000D+00 0.000000000000D+00 0.259614758793D-09 0.000000000000D+00  7 2 -2 23 -13 13 23 21 2 0.22320693D+00 0.69181418D-02 0.39595129D+05 0.39595129D+05 0.39595129D+05 0.11563163D+01  1  2 12  1  7  1        2 0.691078490634D-05 0.100000000000D+01
-.184625167498D-04 0.000000000000D+00 0.000000000000D+00 0.259614758793D-09 0.000000000000D+00  7 2 -2 23 -13 13 23 21 2 0.22043345D+00 0.69181418D-02 0.38904127D+05 0.38904127D+05 0.38904127D+05 0.11570059D+01  1  2  4  1  7  1        2 -.473215705686D-02 0.100000000000D+01
-.100580809054D-03 0.000000000000D+00 -.110609779430D-04 0.259614758793D-09 0.000000000000D+00  7 2 -2 23 -13 13 23 21 2 0.22326782D+00 0.69181418D-02 0.38904127D+05 0.38904127D+05 0.38904127D+05 0.11570059D+01  1  2  5  1  7  1        2 -.252042852885D-01 0.100000000000D+01
0.100714809096D-03 0.000000000000D+00 0.110600752541D-04 0.259614758793D-09 0.000000000000D+00  7 2 -2 23 -13 13 23 21 2 0.22043345D+00 0.69181418D-02 0.38904127D+05 0.38904127D+05 0.38904127D+05 0.11570059D+01  1  2  6  1  7  1        2 0.258143730378D-01 0.100000000000D+01
0.184377909608D-04 0.000000000000D+00 0.000000000000D+00 0.259614758793D-09 0.148784360439D-09  7 2 -2 23 -13 13 23 21 2 0.22268628D+00 0.69510702D-02 0.39595129D+05 0.39595129D+05 0.39595129D+05 0.11563163D+01  1  2 11  1  7  1        2 0.460350202850D-02 0.100000000000D+01
0.216607829263D-08 0.000000000000D+00 0.000000000000D+00 0.259614758793D-09 0.000000000000D+00  7 21 -2 23 -13 13 23 -2 2 0.22320693D+00 0.69181418D-02 0.39595129D+05 0.39595129D+05 0.39595129D+05 0.11563163D+01  1  2 12  3  7  1        2 0.223670456479D-06 0.100000000000D+01
-.235726805269D-06 0.000000000000D+00 -.259963998365D-07 0.259614758793D-09 0.000000000000D+00  7 21 -2 23 -13 13 23 -2 2 0.22326782D+00 0.69181418D-02 0.38904127D+05 0.38904127D+05 0.38904127D+05 0.11570059D+01  1  2  5  3  7  1        2 -.243701058686D-04 0.100000000000D+01
0.457027928662D-07 0.000000000000D+00 0.000000000000D+00 0.259614758793D-09 0.279580111597D-12  7 21 -2 23 -13 13 23 -2 2 0.22268628D+00 0.69510702D-02 0.39595129D+05 0.39595129D+05 0.39595129D+05 0.11563163D+01  1  2 11  3  7  1        2 0.472499400723D-05 0.100000000000D+01
  </mgrwgt>
  </event>
  <event>
  8     66 0.29152272E-05 0.22256851E+03 0.75467711E-02 0.96824970E-01
        2 -1    0    0  501    0 0.00000000E+00 0.00000000E+00 0.14820764E+04 0.14820764E+04 0.32000000E+00 0.0000E+00 0.9000E+01
       -2 -1    0    0    0  501 0.00000000E+00 0.00000000E+00 -.74752656E+02 0.74753341E+02 0.32000000E+00 0.0000E+00 0.9000E+01
       25  2    1    2    0    0 0.55261050E+02 -.10442894E+03 0.30672412E+03 0.44615702E+03 0.30169060E+03 0.0000E+00 0.0000E+00
       23  2    3    3    0    0 -.78661170E+02 -.50476516E+02 0.21611900E+03 0.25284235E+03 0.92121505E+02 0.0000E+00 0.0000E+00
       23  1    1    2    0    0 -.55261050E+02 0.10442894E+03 0.11005996E+04 0.11106728E+04 0.91188000E+02 0.0000E+00 0.9000E+01
      -13  1    4    4    0    0 -.28122070E+02 0.22734953E+02 0.31709088E+02 0.48095804E+02 0.10565837E+00 0.0000E+00 0.9000E+01
       13  1    4    4    0    0 -.50539100E+02 -.73211469E+02 0.18440991E+03 0.20474654E+03 0.10565837E+00 0.0000E+00 0.9000E+01
       23  1    3    3    0    0 0.13392222E+03 -.53952421E+02 0.90605124E+02 0.19331468E+03 0.91188000E+02 0.0000E+00 0.9000E+01
#aMCatNLO 1  0  0  2  2 0.30713230D+03 0.00000000D+00  -5  7  0 0.00000000D+00 0.00000000D+00 0.00000000D+00 0.00000000D+00 0.00000000D+00
  <mgrwgt>
 0.3875290370D-03    5    2    0
 0.332850879816674D+03 0.000000000000000D+00 0.000000000000000D+00 0.332850879816674D+03
 0.332850879816674D+03 0.000000000000000D+00 0.000000000000000D+00 -.332850879816674D+03
 0.270734505200566D+03 -.552610505623870D+02 0.104428938912894D+03 0.225882124061343D+03
 0.454437566327001D+02 -.281220394136085D+02 0.227350788825719D+02 -.275209393792210D+02
 0.889754345338111D+02 -.505391273362654D+02 -.732115950421120D+02 -.157699396290992D+01
 0.260548063266270D+03 0.133922217312261D+03 -.539524227533537D+02 -.196784190719212D+03
 0.000000000000000D+00 0.000000000000000D+00 0.000000000000000D+00 -.000000000000000D+00
 0.482912942925399D+03 0.000000000000000D+00 0.000000000000000D+00 0.482912942925399D+03
 0.569263858949854D+03 0.000000000000000D+00 0.000000000000000D+00 -.569263858949854D+03
 0.270875441143147D+03 -.118414821257374D+03 0.366734326381983D+01 0.225882124061343D+03
 0.480498271124828D+02 -.390237453168246D+02 0.534144949169563D+01 -.275209393792210D+02
 0.138992018568237D+03 -.771209956278615D+02 -.115622862570867D+03 -.157699396290992D+01
 0.275219184031352D+03 0.714497274509947D+02 -.153627037480538D+03 -.196784190719212D+03
 0.319040331020034D+03 0.163109834751065D+03 0.260241107295889D+03 -.863509160244550D+02
0.388267196094D-05 0.000000000000D+00 0.000000000000D+00 0.426982997603D-07 0.000000000000D+00  7 2 -2 23 -13 13 23 21 0 0.22801181D+00 0.11500464D-01 0.49536740D+05 0.49536740D+05 0.49536740D+05 0.11476511D+01  1  2  2  2  7  2       -2 0.323436616139D-03 0.100000000000D+01
-.173224012304D-06 0.000000000000D+00 -.149104826610D-07 0.426982997603D-07 0.000000000000D+00  7 2 -2 23 -13 13 23 21 2 0.22801181D+00 0.11500464D-01 0.49536740D+05 0.49536740D+05 0.49536740D+05 0.11476511D+01  1  2  3  2  7  2       -2 -.190058092008D-04 0.100000000000D+01
0.240637528865D-06 0.000000000000D+00 0.000000000000D+00 0.426982997603D-07 0.000000000000D+00  7 2 -2 23 -13 13 23 21 2 0.22801181D+00 0.11500464D-01 0.49536740D+05 0.49536740D+05 0.49536740D+05 0.11476511D+01  1  2 15  2  7  2       -2 0.264022920340D-04 0.100000000000D+01
0.671342345405D-06 0.000000000000D+00 -.121780399130D-05 0.426982997603D-07 0.000000000000D+00  7 2 -2 23 -13 13 23 21 2 0.22801181D+00 0.29661061D-01 0.49536740D+05 0.49536740D+05 0.49536740D+05 0.11476511D+01  1  2  5  2  7  2       -2 0.157348245867D-04 0.100000000000D+01
0.144180035435D-06 0.000000000000D+00 -.127661698145D-06 0.426982997603D-07 0.000000000000D+00  7 2 21 23 -13 13 23 2 2 0.22801181D+00 0.29661061D-01 0.49536740D+05 0.49536740D+05 0.49536740D+05 0.11476511D+01  1  2  5  4  7  2       -2 0.409611133914D-04 0.100000000000D+01
  </mgrwgt>
  </event>
  <event>
  8     66 0.29152272E-05 0.43512938E+03 0.75467711E-02 0.89615701E-01
        2 -1    0    0  501    0 0.00000000E+00 0.00000000E+00 0.68481163E+03 0.68481170E+03 0.32000000E+00 0.0000E+00 0.9000E+01
       -2 -1    0    0    0  501 0.00000000E+00 0.00000000E+00 -.36665786E+03 0.36665800E+03 0.32000000E+00 0.0000E+00 0.9000E+01
       25  2    1    2    0    0 -.29313579E+03 0.26320451E+03 -.59305351E+02 0.49830079E+03 0.29930144E+03 0.0000E+00 0.0000E+00
       23  2    3    3    0    0 -.21078796E+03 0.45150951E+02 0.22916859E+02 0.23485390E+03 0.90338253E+02 0.0000E+00 0.0000E+00
       23  1    1    2    0    0 0.29313579E+03 -.26320451E+03 0.37745912E+03 0.55316891E+03 0.91188000E+02 0.0000E+00 0.9000E+01
      -13  1    4    4    0    0 -.74675512E+02 0.17613913E+02 -.35074400E+02 0.84361761E+02 0.10565837E+00 0.0000E+00 0.9000E+01
       13  1    4    4    0    0 -.13611245E+03 0.27537038E+02 0.57991259E+02 0.15049214E+03 0.10565837E+00 0.0000E+00 0.9000E+01
       23  1    3    3    0    0 -.82347822E+02 0.21805356E+03 -.82222210E+02 0.26344689E+03 0.91188000E+02 0.0000E+00 0.9000E+01
#aMCatNLO 1  0  0  1  2 0.57753690D+03 0.00000000D+00  -5  7  0 0.00000000D+00 0.00000000D+00 0.00000000D+00 0.00000000D+00 0.00000000D+00
  <mgrwgt>
 0.4577132730D-03    3    2    0
 0.501090488156011D+03 0.000000000000000D+00 0.000000000000000D+00 0.501090488156011D+03
 0.501090488156011D+03 0.000000000000000D+00 0.000000000000000D+00 -.501090488156011D+03
 0.460545866011918D+03 0.293135786357148D+03 -.263204510415632D+03 0.220413338548990D+03
 0.996455090063167D+02 -.746754282244667D+02 0.176138995196112D+02 -.635811169163730D+02
 0.139483635310791D+03 -.136112535593392D+03 0.275370517787497D+02 0.130680125951053D+02
 0.302505965982997D+03 -.823478225392894D+02 0.218053559117271D+03 -.169900234227722D+03
 0.000000000000000D+00 0.000000000000000D+00 -.000000000000000D+00 -.000000000000000D+00
 0.853342916365268D+03 0.000000000000000D+00 0.000000000000000D+00 0.853342916365268D+03
 0.881566198491524D+03 0.000000000000000D+00 0.000000000000000D+00 -.881566198491524D+03
 0.309343714067537D+03 0.114916152800569D+03 -.159970372582871D+03 0.220413338548990D+03
 0.157333027627061D+03 -.134162686937567D+03 0.520720326822050D+02 -.635811169163730D+02
 0.236815491799822D+03 -.223220991502605D+03 0.779948277503059D+02 0.130680125951053D+02
 0.453190776028015D+03 -.257281994823065D+03 0.319384585855523D+03 -.169900234227722D+03
 0.578226105334356D+03 0.499749520462667D+03 -.289481073705163D+03 -.282232821262565D+02
0.289235745502D-04 0.000000000000D+00 0.000000000000D+00 0.371685793196D-06 0.000000000000D+00  7 2 -2 23 -13 13 23 21 0 0.10535565D+00 0.56408918D-01 0.18933758D+06 0.18933758D+06 0.18933758D+06 0.10996574D+01  1  2  2  1  7  1        2 0.452960840195D-03 0.100000000000D+01
-.156794448045D-05 0.000000000000D+00 -.111074142025D-06 0.371685793196D-06 0.000000000000D+00  7 2 -2 23 -13 13 23 21 2 0.10535565D+00 0.56408918D-01 0.18933758D+06 0.18933758D+06 0.18933758D+06 0.10996574D+01  1  2  3  1  7  1        2 -.296930093475D-04 0.100000000000D+01
0.181889751344D-05 0.000000000000D+00 0.000000000000D+00 0.371685793196D-06 0.000000000000D+00  7 2 -2 23 -13 13 23 21 2 0.10535565D+00 0.56408918D-01 0.18933758D+06 0.18933758D+06 0.18933758D+06 0.10996574D+01  1  2 15  1  7  1        2 0.344454421328D-04 0.100000000000D+01
  </mgrwgt>
  </event>
  <event>
  8     66 0.29152272E-05 0.33630869E+03 0.75467711E-02 0.96391975E-01
        2 -1    0    0  501    0 0.00000000E+00 0.00000000E+00 0.24440516E+04 0.24440517E+04 0.32000000E+00 0.0000E+00 0.9000E+01
       -2 -1    0    0    0  501 0.00000000E+00 0.00000000E+00 -.13568518E+03 0.13568555E+03 0.32000000E+00 0.0000E+00 0.9000E+01
       25  2    1    2    0    0 -.27477579E+03 0.79040988E+02 0.21948275E+03 0.46940558E+03 0.30069870E+03 0.0000E+00 0.0000E+00
       23  2    3    3    0    0 -.19620721E+02 0.22896309E+02 -.24906412E+02 0.10022046E+03 0.92274582E+02 0.0000E+00 0.0000E+00
       23  1    1    2    0    0 0.27477579E+03 -.79040988E+02 0.20888837E+04 0.21103316E+04 0.91188000E+02 0.0000E+00 0.9000E+01
      -13  1    4    4    0    0 -.61439634E+01 -.35415826E+02 -.15600567E+01 0.35978799E+02 0.10565837E+00 0.0000E+00 0.9000E+01
       13  1    4    4    0    0 -.13476758E+02 0.58312135E+02 -.23346355E+02 0.64241666E+02 0.10565837E+00 0.0000E+00 0.9000E+01
       23  1    3    3    0    0 -.25515506E+03 0.56144678E+02 0.24438917E+03 0.36918511E+03 0.91188000E+02 0.0000E+00 0.9000E+01
#aMCatNLO 1  0  0  1  2 0.18596255D+03 0.00000000D+00  -5  7  0 0.00000000D+00 0.00000000D+00 0.00000000D+00 0.00000000D+00 0.00000000D+00
  <mgrwgt>
 0.5148658412D-03    4    2    0
 0.575866381426882D+03 0.000000000000000D+00 0.000000000000000D+00 0.575866381426882D+03
 0.575866381426882D+03 0.000000000000000D+00 0.000000000000000D+00 -.575866381426882D+03
 0.540222498569315D+03 0.274775785838996D+03 -.790409876060203D+02 0.449194708797088D+03
 0.837146172288403D+02 -.614395380876997D+01 -.354159490890413D+02 -.756048908437105D+02
 0.190685484444142D+03 -.134767675325869D+02 0.583122581963035D+02 -.181049748021413D+03
 0.337110162611466D+03 -.255155064497640D+03 0.561446784987581D+02 -.192540069931964D+03
 0.000000000000000D+00 0.000000000000000D+00 0.000000000000000D+00 -.000000000000000D+00
 0.604651693255815D+03 0.000000000000000D+00 0.000000000000000D+00 0.604651693255815D+03
 0.988702137495894D+03 0.000000000000000D+00 0.000000000000000D+00 -.988702137495894D+03
 0.506675522056382D+03 0.192799483971439D+03 -.972486805882385D+02 0.449194708797088D+03
 0.870071445041341D+02 -.195121505189128D+02 -.383851489172725D+02 -.756048908437105D+02
 0.193237878379578D+03 -.435395022639361D+02 0.516350474448521D+02 -.181049748021413D+03
 0.379728686237561D+03 -.311286413211547D+03 0.436773880650929D+02 -.192540069931964D+03
 0.426704599574054D+03 0.181538582022956D+03 0.403213939955660D+02 -.384050444240079D+03
0.562331331549D-04 0.000000000000D+00 0.000000000000D+00 0.535389565206D-06 0.000000000000D+00  7 2 -2 23 -13 13 23 21 0 0.37600797D+00 0.20874673D-01 0.11310354D+06 0.11310354D+06 0.11310354D+06 0.11173599D+01  1  2  2  1  7  1        2 0.533351091625D-03 0.100000000000D+01
-.202526592359D-05 0.000000000000D+00 -.215950037839D-06 0.535389565206D-06 0.000000000000D+00  7 2 -2 23 -13 13 23 21 2 0.37600797D+00 0.20874673D-01 0.11310354D+06 0.11310354D+06 0.11310354D+06 0.11173599D+01  1  2  3  1  7  1        2 -.239822076453D-04 0.100000000000D+01
0.339427718033D-05 0.000000000000D+00 0.000000000000D+00 0.535389565206D-06 0.000000000000D+00  7 2 -2 23 -13 13 23 21 2 0.37600797D+00 0.20874673D-01 0.11310354D+06 0.11310354D+06 0.11310354D+06 0.11173599D+01  1  2 15  1  7  1        2 0.401933687801D-04 0.100000000000D+01
-.293006636849D-05 0.000000000000D+00 0.000000000000D+00 0.535389565206D-06 0.000000000000D+00  7 2 -2 23 -13 13 23 21 2 0.37600797D+00 0.20874673D-01 0.11310354D+06 0.11310354D+06 0.11310354D+06 0.11173599D+01  1  2  4  1  7  1        2 -.346964115899D-04 0.100000000000D+01
  </mgrwgt>
  </event>
  <event>
  8     66 0.29152272E-05 0.15822970E+03 0.75467711E-02 0.10294280E+00
        2 -1    0    0  501    0 0.00000000E+00 0.00000000E+00 0.19212375E+04 0.19212375E+04 0.32000000E+00 0.0000E+00 0.9000E+01
       -2 -1    0    0    0  501 0.00000000E+00 0.00000000E+00 -.35139400E+02 0.35140857E+02 0.32000000E+00 0.0000E+00 0.9000E+01
       25  2    1    2    0    0 -.15502845E+03 -.19112030E+02 0.12121835E+04 0.12586140E+04 0.30053469E+03 0.0000E+00 0.0000E+00
       23  2    3    3    0    0 -.11045586E+03 0.67380394E+02 0.31937547E+03 0.35590186E+03 0.89021504E+02 0.0000E+00 0.0000E+00
       23  1    1    2    0    0 0.15502845E+03 0.19112030E+02 0.67391455E+03 0.69776440E+03 0.91188000E+02 0.0000E+00 0.9000E+01
      -13  1    4    4    0    0 -.10661703E+03 0.67466621E+02 0.20004730E+03 0.23651188E+03 0.10565837E+00 0.0000E+00 0.9000E+01
       13  1    4    4    0    0 -.38388334E+01 -.86227579E-01 0.11932817E+03 0.11938998E+03 0.10565837E+00 0.0000E+00 0.9000E+01
       23  1    3    3    0    0 -.44572590E+02 -.86492424E+02 0.89280805E+03 0.90271209E+03 0.91188000E+02 0.0000E+00 0.9000E+01
#aMCatNLO 1  0  0  1  2 0.67888841D+02 0.00000000D+00  -5  7  0 0.00000000D+00 0.00000000D+00 0.00000000D+00 0.00000000D+00 0.00000000D+00
  <mgrwgt>
 0.7847806636D-03    9    2    0
 0.259831837505079D+03 0.000000000000000D+00 0.000000000000000D+00 0.259831837505079D+03
 0.259831837505079D+03 0.000000000000000D+00 0.000000000000000D+00 -.259831837505079D+03
 0.180929028484967D+03 0.155028453735212D+03 0.191120302705932D+02 0.457939252732172D+01
 0.164333213259425D+03 -.106617172185944D+03 0.674667147835687D+02 -.105292098333888D+03
 0.163706531863988D+02 -.383868920373256D+01 -.863228519019437D-01 0.159139969621630D+02
 0.158030780079366D+03 -.445725923455355D+02 -.864924222022600D+02 0.847987088444028D+02
 0.000000000000000D+00 -.000000000000000D+00 0.000000000000000D+00 0.000000000000000D+00
 0.317591214535881D+03 0.000000000000000D+00 0.000000000000000D+00 0.317591214535881D+03
 0.282781242798549D+03 0.000000000000000D+00 0.000000000000000D+00 -.282781242798549D+03
 0.199574589904703D+03 0.177272504271470D+03 0.826159700257419D+01 0.457939252732172D+01
 0.149346960198334D+03 -.882795866981996D+02 0.585218174813873D+02 -.105292098333888D+03
 0.160639810227341D+02 -.194257676851747D+01 -.101122820641133D+01 0.159139969621630D+02
 0.159093880605099D+03 -.260336438634875D+02 -.955355424305574D+02 0.847987088444028D+02
 0.762930456035593D+02 -.610166969412652D+02 0.297633561530073D+02 0.348099717373317D+02
0.324908417031D-05 0.000000000000D+00 0.000000000000D+00 0.153156566025D-06 0.000000000000D+00  7 2 -2 23 -13 13 23 21 0 0.29557511D+00 0.54061757D-02 0.49335901D+05 0.49335901D+05 0.49335901D+05 0.11478065D+01  1  2  2  1  7  1        2 0.495543769724D-03 0.100000000000D+01
-.175106665706D-06 0.000000000000D+00 -.124773387175D-07 0.153156566025D-06 0.000000000000D+00  7 2 -2 23 -13 13 23 21 2 0.29557511D+00 0.54061757D-02 0.49335901D+05 0.49335901D+05 0.49335901D+05 0.11478065D+01  1  2  3  1  7  1        2 -.351852877284D-04 0.100000000000D+01
0.204925842320D-06 0.000000000000D+00 0.000000000000D+00 0.153156566025D-06 0.000000000000D+00  7 2 -2 23 -13 13 23 21 2 0.29557511D+00 0.54061757D-02 0.49335901D+05 0.49335901D+05 0.49335901D+05 0.11478065D+01  1  2 15  1  7  1        2 0.411770431235D-04 0.100000000000D+01
0.274133380134D-05 0.000000000000D+00 0.000000000000D+00 0.153156566025D-06 0.000000000000D+00  7 2 -2 23 -13 13 23 21 2 0.37211798D+00 0.54061757D-02 0.65057411D+05 0.65057411D+05 0.65057411D+05 0.11373730D+01  1  2 12  1  7  1        2 0.289809614934D-03 0.100000000000D+01
-.289430148133D-05 0.000000000000D+00 0.000000000000D+00 0.153156566025D-06 0.000000000000D+00  7 2 -2 23 -13 13 23 21 2 0.29557511D+00 0.54061757D-02 0.49335901D+05 0.49335901D+05 0.49335901D+05 0.11478065D+01  1  2  4  1  7  1        2 -.581570267372D-03 0.100000000000D+01
-.560707430230D-05 0.000000000000D+00 -.157416028057D-05 0.153156566025D-06 0.000000000000D+00  7 2 -2 23 -13 13 23 21 2 0.37338088D+00 0.54061757D-02 0.49335901D+05 0.49335901D+05 0.49335901D+05 0.11478065D+01  1  2  5  1  7  1        2 -.600663751835D-03 0.100000000000D+01
0.585631978781D-05 0.000000000000D+00 0.153213876293D-05 0.153156566025D-06 0.000000000000D+00  7 2 -2 23 -13 13 23 21 2 0.29557511D+00 0.54061757D-02 0.49335901D+05 0.49335901D+05 0.49335901D+05 0.11478065D+01  1  2  6  1  7  1        2 0.117674730389D-02 0.100000000000D+01
0.872867777739D-07 0.000000000000D+00 0.000000000000D+00 0.153156566025D-06 0.000000000000D+00  7 21 -2 23 -13 13 23 -2 2 0.37211798D+00 0.54061757D-02 0.65057411D+05 0.65057411D+05 0.65057411D+05 0.11373730D+01  1  2 12  3  7  1        2 0.128585293811D-05 0.100000000000D+01
-.156896302237D-06 0.000000000000D+00 -.506724026637D-07 0.153156566025D-06 0.000000000000D+00  7 21 -2 23 -13 13 23 -2 2 0.37338088D+00 0.54061757D-02 0.49335901D+05 0.49335901D+05 0.49335901D+05 0.11478065D+01  1  2  5  3  7  1        2 -.236361408962D-05 0.100000000000D+01
  </mgrwgt>
  </event>
  <event>
  8     66 0.29152272E-05 0.46282243E+03 0.75467711E-02 0.91393646E-01
        2 -1    0    0  501    0 0.00000000E+00 0.00000000E+00 0.80609701E+03 0.80609707E+03 0.32000000E+00 0.0000E+00 0.9000E+01
       -2 -1    0    0    0  501 0.00000000E+00 0.00000000E+00 -.30906531E+03 0.30906547E+03 0.32000000E+00 0.0000E+00 0.9000E+01
       25  2    1    2    0    0 0.78156599E+02 0.40382128E+03 0.67546285E+02 0.51353720E+03 0.29996312E+03 0.0000E+00 0.0000E+00
       23  2    3    3    0    0 -.18833639E+02 0.34976342E+03 0.58120266E+02 0.36954602E+03 0.10245555E+03 0.0000E+00 0.0000E+00
       23  1    1    2    0    0 -.78156599E+02 -.40382128E+03 0.42948542E+03 0.60162534E+03 0.91188000E+02 0.0000E+00 0.9000E+01
      -11  1    4    4    0    0 -.49370798E+02 0.28260966E+03 0.22909762E+02 0.28780298E+03 0.51099893E-03 0.0000E+00 0.9000E+01
       11  1    4    4    0    0 0.30537159E+02 0.67153758E+02 0.35210504E+02 0.81743042E+02 0.51099893E-03 0.0000E+00 0.9000E+01
       23  1    3    3    0    0 0.96990238E+02 0.54057858E+02 0.94260192E+01 0.14399118E+03 0.91188000E+02 0.0000E+00 0.9000E+01
#aMCatNLO 1  0  0  2  1 0.36026305D+03 0.00000000D+00  -5  7  0 0.00000000D+00 0.00000000D+00 0.00000000D+00 0.00000000D+00 0.00000000D+00
  <mgrwgt>
 0.6657867661D-03    3    2    0
 0.499136000074790D+03 0.000000000000000D+00 0.000000000000000D+00 0.499136000074790D+03
 0.499136000074790D+03 0.000000000000000D+00 0.000000000000000D+00 -.499136000074790D+03
 0.458234009854233D+03 -.781565990886768D+02 -.403821279953059D+03 0.180230619815431D+03
 0.310096070248931D+03 -.493707981210472D+02 0.282609663572807D+03 -.117702485666129D+03
 0.737835397579754D+02 0.305371591756712D+02 0.671537580149999D+02 -.136580861005224D+01
 0.156158380288440D+03 0.969902380340528D+02 0.540578583652522D+02 -.611623255392498D+02
 0.000000000000000D+00 0.000000000000000D+00 -.000000000000000D+00 0.000000000000000D+00
 0.827372644730093D+03 0.000000000000000D+00 0.000000000000000D+00 0.827372644730093D+03
 0.639995665478782D+03 0.000000000000000D+00 0.000000000000000D+00 -.639995665478782D+03
 0.342271157038042D+03 -.820642723591127D+02 -.263849715708156D+03 0.180230619815431D+03
 0.432119087471842D+03 -.529939281802791D+02 0.412388984093338D+03 -.117702485666129D+03
 0.102359190910244D+03 0.296773168300110D+02 0.979530264790811D+02 -.136580861005224D+01
 0.184540559077297D+03 0.953271130553673D+02 0.113630445091628D+03 -.611623255392498D+02
 0.406078315711450D+03 0.100537706540136D+02 -.360122739955891D+03 0.187376979251311D+03
0.368304354503D-04 0.000000000000D+00 0.000000000000D+00 0.207689211761D-07 0.000000000000D+00  7 2 -2 23 -11 11 23 21 0 0.12401494D+00 0.47548526D-01 0.21420460D+06 0.21420460D+06 0.21420460D+06 0.10955441D+01  1  2  2  2  7  2       -2 0.660075075301D-03 0.100000000000D+01
-.203194100453D-05 0.000000000000D+00 -.141438569805D-06 0.207689211761D-07 0.000000000000D+00  7 2 -2 23 -11 11 23 21 2 0.12401494D+00 0.47548526D-01 0.21420460D+06 0.21420460D+06 0.21420460D+06 0.10955441D+01  1  2  3  2  7  2       -2 -.437076318205D-04 0.100000000000D+01
0.229747400660D-05 0.000000000000D+00 0.000000000000D+00 0.207689211761D-07 0.000000000000D+00  7 2 -2 23 -11 11 23 21 2 0.12401494D+00 0.47548526D-01 0.21420460D+06 0.21420460D+06 0.21420460D+06 0.10955441D+01  1  2 15  2  7  2       -2 0.494193225952D-04 0.100000000000D+01
  </mgrwgt>
  </event>
  <event>
  8     66 0.29152272E-05 0.38058824E+03 0.75467711E-02 0.97576502E-01
        2 -1    0    0  501    0 0.00000000E+00 0.00000000E+00 0.92813496E+03 0.92813501E+03 0.32000000E+00 0.0000E+00 0.9000E+01
       -2 -1    0    0    0  501 0.00000000E+00 0.00000000E+00 -.25824321E+03 0.25824340E+03 0.32000000E+00 0.0000E+00 0.9000E+01
       25  2    1    2    0    0 0.12135314E+03 -.31935624E+03 0.30471737E+02 0.45570188E+03 0.30003447E+03 0.0000E+00 0.0000E+00
       23  2    3    3    0    0 0.12902581E+03 -.23658428E+03 0.11450212E+03 0.30641550E+03 0.90332403E+02 0.0000E+00 0.0000E+00
       23  1    1    2    0    0 -.12135314E+03 0.31935624E+03 0.63942001E+03 0.73067654E+03 0.91188000E+02 0.0000E+00 0.9000E+01
      -11  1    4    4    0    0 0.53580653E+02 -.24179837E+02 0.21938110E+02 0.62744176E+02 0.51099893E-03 0.0000E+00 0.9000E+01
       11  1    4    4    0    0 0.75445152E+02 -.21240444E+03 0.92564006E+02 0.24367132E+03 0.51099893E-03 0.0000E+00 0.9000E+01
       23  1    3    3    0    0 -.76726617E+01 -.82771965E+02 -.84030379E+02 0.14928638E+03 0.91188000E+02 0.0000E+00 0.9000E+01
#aMCatNLO 1  0  0  1  2 0.15527645D+02 0.00000000D+00  -5  7  0 0.00000000D+00 0.00000000D+00 0.00000000D+00 0.00000000D+00 0.00000000D+00
  <mgrwgt>
 0.3136044336D-03    6    2    0
 0.489576038969997D+03 0.000000000000000D+00 0.000000000000000D+00 0.489576038969997D+03
 0.489576038969997D+03 0.000000000000000D+00 0.000000000000000D+00 -.489576038969997D+03
 0.447853496190421D+03 -.121353143427566D+03 0.319356244759131D+03 0.274849970383077D+03
 0.610141961925190D+02 0.535806530519536D+02 -.241798372972236D+02 -.163456790567162D+02
 0.231913447358164D+03 0.754451520961873D+02 -.212404442479736D+03 -.545548247692474D+02
 0.238370938198890D+03 -.767266172057460D+01 -.827719649821711D+02 -.203949466557113D+03
 0.000000000000000D+00 0.000000000000000D+00 0.000000000000000D+00 -.000000000000000D+00
 0.491271326009780D+03 0.000000000000000D+00 0.000000000000000D+00 0.491271326009780D+03
 0.526532871755672D+03 0.000000000000000D+00 0.000000000000000D+00 -.526532871755672D+03
 0.444361180025467D+03 -.124704022724728D+03 0.313126184574715D+03 0.274849970383077D+03
 0.609570800489313D+02 0.531225670830708D+02 -.250315251387386D+02 -.163456790567162D+02
 0.234342370440488D+03 0.736940410590220D+02 -.215660163197692D+03 -.545548247692474D+02
 0.239614560377069D+03 -.946782577045843D+01 -.861095904469712D+02 -.203949466557113D+03
 0.385290068734955D+02 0.735524035309324D+01 0.136750942086868D+02 -.352615457458920D+02
0.190925826302D-04 0.000000000000D+00 0.000000000000D+00 0.107078770492D-05 0.000000000000D+00  7 2 -2 23 -11 11 23 21 0 0.14279001D+00 0.39729744D-01 0.14484741D+06 0.14484741D+06 0.14484741D+06 0.11087519D+01  1  2  2  1  7  1        2 0.404146025713D-03 0.100000000000D+01
-.978916582581D-06 0.000000000000D+00 -.733205444924D-07 0.107078770492D-05 0.000000000000D+00  7 2 -2 23 -11 11 23 21 2 0.14279001D+00 0.39729744D-01 0.14484741D+06 0.14484741D+06 0.14484741D+06 0.11087519D+01  1  2  3  1  7  1        2 -.254734657229D-04 0.100000000000D+01
0.120967016253D-05 0.000000000000D+00 0.000000000000D+00 0.107078770492D-05 0.000000000000D+00  7 2 -2 23 -11 11 23 21 2 0.14279001D+00 0.39729744D-01 0.14484741D+06 0.14484741D+06 0.14484741D+06 0.11087519D+01  1  2 15  1  7  1        2 0.314781585782D-04 0.100000000000D+01
-.370820261236D-05 0.000000000000D+00 0.000000000000D+00 0.107078770492D-05 0.000000000000D+00  7 2 -2 23 -11 11 23 21 2 0.14279001D+00 0.39729744D-01 0.14484741D+06 0.14484741D+06 0.14484741D+06 0.11087519D+01  1  2  4  1  7  1        2 -.964952211664D-04 0.100000000000D+01
0.229331759565D-07 0.000000000000D+00 0.000000000000D+00 0.107078770492D-05 0.000000000000D+00  7 2 -2 23 -11 11 23 21 2 0.15261372D+00 0.39729744D-01 0.14484741D+06 0.14484741D+06 0.14484741D+06 0.11087519D+01  1  2  5  1  7  1        2 0.544387124524D-06 0.100000000000D+01
-.228825080654D-07 0.000000000000D+00 0.000000000000D+00 0.107078770492D-05 0.000000000000D+00  7 2 -2 23 -11 11 23 21 2 0.14279001D+00 0.39729744D-01 0.14484741D+06 0.14484741D+06 0.14484741D+06 0.11087519D+01  1  2  6  1  7  1        2 -.595450925269D-06 0.100000000000D+01
  </mgrwgt>
  </event>
  <event>
  8     66 0.29152272E-05 0.28157240E+03 0.75467711E-02 0.95783164E-01
        2 -1    0    0  501    0 0.00000000E+00 0.00000000E+00 0.27906240E+04 0.27906240E+04 0.32000000E+00 0.0000E+00 0.9000E+01
       -2 -1    0    0    0  501 0.00000000E+00 0.00000000E+00 -.45483983E+02 0.45485108E+02 0.32000000E+00 0.0000E+00 0.9000E+01
       25  2    1    2    0    0 -.15337727E+03 0.22387156E+03 0.19341057E+04 0.19760307E+04 0.30048166E+03 0.0000E+00 0.0000E+00
       23  2    3    3    0    0 -.14055801E+03 0.25076731E+03 0.16145787E+04 0.16424134E+04 0.89535545E+02 0.0000E+00 0.0000E+00
       23  1    1    2    0    0 0.15337727E+03 -.22387156E+03 0.81103431E+03 0.86007846E+03 0.91188000E+02 0.0000E+00 0.9000E+01
      -13  1    4    4    0    0 -.29595088E+02 0.11869051E+02 0.95958602E+02 0.10111779E+03 0.10565837E+00 0.0000E+00 0.9000E+01
       13  1    4    4    0    0 -.11096293E+03 0.23889825E+03 0.15186201E+04 0.15412956E+04 0.10565837E+00 0.0000E+00 0.9000E+01
       23  1    3    3    0    0 -.12819255E+02 -.26895746E+02 0.31952699E+03 0.33361724E+03 0.91188000E+02 0.0000E+00 0.9000E+01
#aMCatNLO 1  0  0  1  2 0.19881983D+03 0.00000000D+00  -5  7  0 0.00000000D+00 0.00000000D+00 0.00000000D+00 0.00000000D+00 0.00000000D+00
  <mgrwgt>
 0.5320328410D-03    9    2    0
 0.356272809878983D+03 0.000000000000000D+00 0.000000000000000D+00 0.356272809878983D+03
 0.356272809878983D+03 0.000000000000000D+00 0.000000000000000D+00 -.356272809878983D+03
 0.298750897195225D+03 0.153377269592142D+03 -.223871560298466D+03 -.854036585454137D+02
 0.327853358408330D+02 -.295949741534712D+02 0.118687349762712D+02 -.762554136534680D+01
 0.284133381200921D+03 -.110963039953589D+03 0.238898570534210D+03 0.106519740300271D+03
 0.968760055209877D+02 -.128192554850818D+02 -.268957452120153D+02 -.134905403895104D+02
 0.000000000000000D+00 -.000000000000000D+00 -.000000000000000D+00 0.000000000000000D+00
 0.550070377564494D+03 0.000000000000000D+00 0.000000000000000D+00 0.550070377564494D+03
 0.424726361089427D+03 0.000000000000000D+00 0.000000000000000D+00 -.424726361089427D+03
 0.344494565550287D+03 0.240692944752562D+03 -.212448525066849D+03 -.854036585454137D+02
 0.262792417189679D+02 -.215774073513881D+02 0.129176296665289D+02 -.762554136534680D+01
 0.272933730683923D+03 -.353454199298406D+02 0.248791212789742D+03 0.106519740300271D+03
 0.960563339756735D+02 0.133698409937769D+02 -.234695680541043D+02 -.134905403895104D+02
 0.235032866725069D+03 -.197139958465110D+03 -.257907493353169D+02 0.125344016475066D+03
0.128445022946D-04 0.000000000000D+00 0.000000000000D+00 0.145761128959D-06 0.000000000000D+00  7 2 -2 23 -13 13 23 21 0 0.42932686D+00 0.69976238D-02 0.11475591D+06 0.11475591D+06 0.11475591D+06 0.11168496D+01  1  2  2  1  7  1        2 0.428378161072D-03 0.100000000000D+01
-.711378234898D-06 0.000000000000D+00 -.493262708464D-07 0.145761128959D-06 0.000000000000D+00  7 2 -2 23 -13 13 23 21 2 0.42932686D+00 0.69976238D-02 0.11475591D+06 0.11475591D+06 0.11475591D+06 0.11168496D+01  1  2  3  1  7  1        2 -.295937482340D-04 0.100000000000D+01
0.814123307361D-06 0.000000000000D+00 0.000000000000D+00 0.145761128959D-06 0.000000000000D+00  7 2 -2 23 -13 13 23 21 2 0.42932686D+00 0.69976238D-02 0.11475591D+06 0.11475591D+06 0.11475591D+06 0.11168496D+01  1  2 15  1  7  1        2 0.338680029941D-04 0.100000000000D+01
0.240940535026D-05 0.000000000000D+00 0.000000000000D+00 0.145761128959D-06 0.000000000000D+00  7 2 -2 23 -13 13 23 21 2 0.68596224D+00 0.69976238D-02 0.20435037D+06 0.20435037D+06 0.20435037D+06 0.10971084D+01  1  2 12  1  7  1        2 0.532966466525D-05 0.100000000000D+01
-.544566476571D-05 0.000000000000D+00 0.000000000000D+00 0.145761128959D-06 0.000000000000D+00  7 2 -2 23 -13 13 23 21 2 0.42932686D+00 0.69976238D-02 0.11475591D+06 0.11475591D+06 0.11475591D+06 0.11168496D+01  1  2  4  1  7  1        2 -.226542820875D-03 0.100000000000D+01
-.732044458026D-05 0.000000000000D+00 -.305707921163D-05 0.145761128959D-06 0.000000000000D+00  7 2 -2 23 -13 13 23 21 2 0.68265344D+00 0.69976238D-02 0.11475591D+06 0.11475591D+06 0.11475591D+06 0.11168496D+01  1  2  5  1  7  1        2 -.183567874616D-04 0.100000000000D+01
0.814784716621D-05 0.000000000000D+00 0.275541097037D-05 0.145761128959D-06 0.000000000000D+00  7 2 -2 23 -13 13 23 21 2 0.42932686D+00 0.69976238D-02 0.11475591D+06 0.11475591D+06 0.11475591D+06 0.11168496D+01  1  2  6  1  7  1        2 0.338955180040D-03 0.100000000000D+01
0.129140795409D-06 0.000000000000D+00 0.000000000000D+00 0.145761128959D-06 0.000000000000D+00  7 21 -2 23 -13 13 23 -2 2 0.68596224D+00 0.69976238D-02 0.20435037D+06 0.20435037D+06 0.20435037D+06 0.10971084D+01  1  2 12  3  7  1        2 0.340889703220D-08 0.100000000000D+01
-.263000323749D-06 0.000000000000D+00 -.162554518092D-06 0.145761128959D-06 0.000000000000D+00  7 21 -2 23 -13 13 23 -2 2 0.68265344D+00 0.69976238D-02 0.11475591D+06 0.11475591D+06 0.11475591D+06 0.11168496D+01  1  2  5  3  7  1        2 -.822009775722D-08 0.100000000000D+01
  </mgrwgt>
  </event>
  <event>
  8     66 0.29152272E-05 0.16096110E+03 0.75467711E-02 0.10011113E+00
        2 -1    0    0  501    0 0.00000000E+00 0.00000000E+00 0.14304660E+04 0.14304660E+04 0.32000000E+00 0.0000E+00 0.9000E+01
       -2 -1    0    0    0  501 0.00000000E+00 0.00000000E+00 -.12818318E+03 0.12818358E+03 0.32000000E+00 0.0000E+00 0.9000E+01
       25  2    1    2    0    0 -.25106787E+03 -.40460026E+02 0.12113212E+04 0.12735858E+04 0.30008307E+03 0.0000E+00 0.0000E+00
       23  2    3    3    0    0 -.16713687E+03 0.12108647E+01 0.10441752E+04 0.10613739E+04 0.90975498E+02 0.0000E+00 0.0000E+00
       23  1    1    2    0    0 0.25106787E+03 0.40460026E+02 0.90961664E+02 0.28506379E+03 0.91188000E+02 0.0000E+00 0.9000E+01
      -11  1    4    4    0    0 -.49607898E+02 -.36197502E+02 0.23685651E+03 0.24468798E+03 0.51099893E-03 0.0000E+00 0.9000E+01
       11  1    4    4    0    0 -.11752897E+03 0.37408367E+02 0.80731871E+03 0.81668595E+03 0.51099893E-03 0.0000E+00 0.9000E+01
       23  1    3    3    0    0 -.83930999E+02 -.41670891E+02 0.16714594E+03 0.21221191E+03 0.91188000E+02 0.0000E+00 0.9000E+01
#aMCatNLO 1  0  0  1  2 0.43374743D+02 0.00000000D+00  -5  7  0 0.00000000D+00 0.00000000D+00 0.00000000D+00 0.00000000D+00 0.00000000D+00
  <mgrwgt>
 0.5734588387D-03    9    2    0
 0.428207924735171D+03 0.000000000000000D+00 0.000000000000000D+00 0.428207924735171D+03
 0.428207924735171D+03 0.000000000000000D+00 0.000000000000000D+00 -.428207924735171D+03
 0.380488935279284D+03 0.251067867357519D+03 0.404600259073565D+02 -.267926278685176D+03
 0.851556737746039D+02 -.496078984669388D+02 -.361975023535437D+02 0.589939489190700D+02
 0.258717730712462D+03 -.117528969784187D+03 0.374083670835431D+02 0.227425635139525D+03
 0.132053509703992D+03 -.839309991063926D+02 -.416708906373558D+02 -.184933053734184D+02
 0.000000000000000D+00 0.000000000000000D+00 -.000000000000000D+00 0.000000000000000D+00
 0.615246157690938D+03 0.000000000000000D+00 0.000000000000000D+00 0.615246157690938D+03
 0.431278856198960D+03 0.000000000000000D+00 0.000000000000000D+00 -.431278856198960D+03
 0.372488681085258D+03 0.236389619237818D+03 0.526120071765707D+02 -.267926278685176D+03
 0.860310327500136D+02 -.529449444807294D+02 -.334347938665779D+02 0.589939489190700D+02
 0.264842608672382D+03 -.127735048159040D+03 0.458578817825669D+02 0.227425635139525D+03
 0.134151219969339D+03 -.891202889177533D+02 -.373747272209915D+02 -.184933053734184D+02
 0.189011471412907D+03 0.334106623197047D+02 -.276603678715681D+02 0.183967301491978D+03
0.144947056955D-04 0.000000000000D+00 0.000000000000D+00 0.134865000679D-05 0.000000000000D+00  7 2 -2 23 -11 11 23 21 0 0.22007173D+00 0.19720523D-01 0.85750202D+05 0.85750202D+05 0.85750202D+05 0.11272424D+01  1  2  2  1  7  1        2 0.540057403130D-03 0.100000000000D+01
-.663873258420D-06 0.000000000000D+00 -.556634864144D-07 0.134865000679D-05 0.000000000000D+00  7 2 -2 23 -11 11 23 21 2 0.22007173D+00 0.19720523D-01 0.85750202D+05 0.85750202D+05 0.85750202D+05 0.11272424D+01  1  2  3  1  7  1        2 -.314304301916D-04 0.100000000000D+01
0.910920533954D-06 0.000000000000D+00 0.000000000000D+00 0.134865000679D-05 0.000000000000D+00  7 2 -2 23 -11 11 23 21 2 0.22007173D+00 0.19720523D-01 0.85750202D+05 0.85750202D+05 0.85750202D+05 0.11272424D+01  1  2 15  1  7  1        2 0.431266418542D-04 0.100000000000D+01
0.146012667665D-03 0.000000000000D+00 0.000000000000D+00 0.134865000679D-05 0.000000000000D+00  7 2 -2 23 -11 11 23 21 2 0.31672121D+00 0.19720523D-01 0.10028417D+06 0.10028417D+06 0.10028417D+06 0.11216209D+01  1  2 12  1  7  1        2 0.313951135654D-02 0.100000000000D+01
-.138646080541D-03 0.000000000000D+00 0.000000000000D+00 0.134865000679D-05 0.000000000000D+00  7 2 -2 23 -11 11 23 21 2 0.22007173D+00 0.19720523D-01 0.85750202D+05 0.85750202D+05 0.85750202D+05 0.11272424D+01  1  2  4  1  7  1        2 -.656406309563D-02 0.100000000000D+01
-.148253701878D-03 0.000000000000D+00 -.550970269065D-05 0.134865000679D-05 0.000000000000D+00  7 2 -2 23 -11 11 23 21 2 0.31685123D+00 0.19720523D-01 0.85750202D+05 0.85750202D+05 0.85750202D+05 0.11272424D+01  1  2  5  1  7  1        2 -.323502956824D-02 0.100000000000D+01
0.141130177152D-03 0.000000000000D+00 0.516295356292D-05 0.134865000679D-05 0.000000000000D+00  7 2 -2 23 -11 11 23 21 2 0.22007173D+00 0.19720523D-01 0.85750202D+05 0.85750202D+05 0.85750202D+05 0.11272424D+01  1  2  6  1  7  1        2 0.668167022037D-02 0.100000000000D+01
0.648974494832D-05 0.000000000000D+00 0.000000000000D+00 0.134865000679D-05 0.000000000000D+00  7 21 -2 23 -11 11 23 -2 2 0.31672121D+00 0.19720523D-01 0.10028417D+06 0.10028417D+06 0.10028417D+06 0.11216209D+01  1  2 12  3  7  1        2 0.276114591956D-04 0.100000000000D+01
-.642952304058D-05 0.000000000000D+00 -.245086523506D-06 0.134865000679D-05 0.000000000000D+00  7 21 -2 23 -11 11 23 -2 2 0.31685123D+00 0.19720523D-01 0.85750202D+05 0.85750202D+05 0.85750202D+05 0.11272424D+01  1  2  5  3  7  1        2 -.279951483127D-04 0.100000000000D+01
  </mgrwgt>
  </event>
  <event>
  8     66 0.29152272E-05 0.16501174E+03 0.75467711E-02 0.83402202E-01
        2 -1    0    0  501    0 0.00000000E+00 0.00000000E+00 0.62465615E+03 0.62465623E+03 0.32000000E+00 0.0000E+00 0.9000E+01
       -2 -1    0    0    0  501 0.00000000E+00 0.00000000E+00 -.85943746E+02 0.85944342E+02 0.32000000E+00 0.0000E+00 0.9000E+01
       25  2    1    2    0    0 -.90142992E+02 -.11164670E+02 0.28865631E+03 0.42936453E+03 0.30459978E+03 0.0000E+00 0.0000E+00
       23  2    3    3    0    0 0.87366076E+01 -.29515303E+02 0.27658501E+03 0.29307481E+03 0.91902634E+02 0.0000E+00 0.0000E+00
       23  1    1    2    0    0 0.90142992E+02 0.11164670E+02 0.25005610E+03 0.28123604E+03 0.91188000E+02 0.0000E+00 0.9000E+01
      -11  1    4    4    0    0 -.20280342E+02 0.45793142E+01 0.21971486E+03 0.22069636E+03 0.51099893E-03 0.0000E+00 0.9000E+01
       11  1    4    4    0    0 0.29016949E+02 -.34094618E+02 0.56870152E+02 0.72378453E+02 0.51099893E-03 0.0000E+00 0.9000E+01
       23  1    3    3    0    0 -.98879600E+02 0.18350634E+02 0.12071297E+02 0.13628972E+03 0.91188000E+02 0.0000E+00 0.9000E+01
#aMCatNLO 1  0  0  1  2 0.15255974D+04 0.00000000D+00  -5  7  0 0.00000000D+00 0.00000000D+00 0.00000000D+00 0.00000000D+00 0.00000000D+00
  <mgrwgt>
 0.3967306221D-03    3    2    0
 0.231701381906559D+03 0.000000000000000D+00 0.000000000000000D+00 0.231701381906559D+03
 0.231701381906559D+03 0.000000000000000D+00 0.000000000000000D+00 -.231701381906559D+03
 0.140564922347819D+03 0.901429951776695D+02 0.111646698741344D+02 0.565051910681537D+02
 0.830030371038832D+02 -.202803428910724D+02 0.457931441401688D+01 0.803569644784241D+02
 0.448756791171046D+02 0.290169484038891D+02 -.340946174812185D+02 0.306599744891636D+01
 0.194959125244311D+03 -.988796006904862D+02 0.183506331930673D+02 -.139928152995494D+03
 0.000000000000000D+00 -.000000000000000D+00 -.000000000000000D+00 -.000000000000000D+00
 0.115046294992942D+04 0.000000000000000D+00 0.000000000000000D+00 0.115046294992942D+04
 0.244437614647133D+04 0.000000000000000D+00 0.000000000000000D+00 -.244437614647133D+04
 0.744151215118620D+03 0.617630946925392D+03 0.400979995013359D+03 0.565051910681537D+02
 0.240852491552915D+03 0.172809714178030D+03 0.147273499424601D+03 0.803569644784241D+02
 0.164519629551457D+03 0.153863210156803D+03 0.581671791273688D+02 0.306599744891636D+01
 0.444901140496031D+03 0.282619692344541D+03 0.300279861077988D+03 -.139928152995494D+03
 0.200041461968173D+04 -.122692356360477D+04 -.906700534643316D+03 -.129391319654191D+04
0.174509237041D-05 0.000000000000D+00 0.000000000000D+00 0.203828560896D-08 0.000000000000D+00  7 2 -2 23 -11 11 23 21 0 0.96100998D-01 0.13222167D-01 0.27228875D+05 0.27228875D+05 0.27228875D+05 0.11712615D+01  1  2  2  1  7  1        2 0.388014312182D-03 0.100000000000D+01
-.833684770805D-07 0.000000000000D+00 -.670161419574D-08 0.203828560896D-08 0.000000000000D+00  7 2 -2 23 -11 11 23 21 2 0.96100998D-01 0.13222167D-01 0.27228875D+05 0.27228875D+05 0.27228875D+05 0.11712615D+01  1  2  3  1  7  1        2 -.254295647447D-04 0.100000000000D+01
0.111944093330D-06 0.000000000000D+00 0.000000000000D+00 0.203828560896D-08 0.000000000000D+00  7 2 -2 23 -11 11 23 21 2 0.96100998D-01 0.13222167D-01 0.27228875D+05 0.27228875D+05 0.27228875D+05 0.11712615D+01  1  2 15  1  7  1        2 0.341458746617D-04 0.100000000000D+01
  </mgrwgt>
  </event>
  <event>
  8     66 0.29152272E-05 0.24117718E+03 0.75467711E-02 0.98186183E-01
        2 -1    0    0  501    0 0.00000000E+00 0.00000000E+00 0.26522664E+04 0.26522665E+04 0.32000000E+00 0.0000E+00 0.9000E+01
       -2 -1    0    0    0  501 0.00000000E+00 0.00000000E+00 -.48771964E+02 0.48773014E+02 0.32000000E+00 0.0000E+00 0.9000E+01
       25  2    1    2    0    0 -.22147115E+03 0.80016164E+02 0.87832508E+03 0.95748656E+03 0.29978912E+03 0.0000E+00 0.0000E+00
       23  2    3    3    0    0 -.13354493E+02 0.11147655E+03 0.43708366E+03 0.46018229E+03 0.90112442E+02 0.0000E+00 0.0000E+00
       23  1    1    2    0    0 0.22147115E+03 -.80016164E+02 0.17251694E+04 0.17435529E+04 0.91188000E+02 0.0000E+00 0.9000E+01
      -11  1    4    4    0    0 -.16354024E+02 0.95432736E+02 0.19663908E+03 0.21918437E+03 0.51099893E-03 0.0000E+00 0.9000E+01
       11  1    4    4    0    0 0.29995311E+01 0.16043814E+02 0.24044458E+03 0.24099792E+03 0.51099893E-03 0.0000E+00 0.9000E+01
       23  1    3    3    0    0 -.20811665E+03 -.31460386E+02 0.44124142E+03 0.49730427E+03 0.91188000E+02 0.0000E+00 0.9000E+01
#aMCatNLO 1  0  0  1  2 0.12976321D+03 0.00000000D+00  -5  7  0 0.00000000D+00 0.00000000D+00 0.00000000D+00 0.00000000D+00 0.00000000D+00
  <mgrwgt>
 0.3895677332D-03    9    2    0
 0.359663298712745D+03 0.000000000000000D+00 0.000000000000000D+00 0.359663298712745D+03
 0.359663298712745D+03 0.000000000000000D+00 0.000000000000000D+00 -.359663298712745D+03
 0.302972591234313D+03 0.221471145519619D+03 -.800161639292934D+02 0.167406944024142D+03
 0.111322010425336D+03 -.163540238486267D+02 0.954327359548150D+02 -.549338585689706D+02
 0.346834914149066D+02 0.299953114685979D+01 0.160438135742104D+02 0.306029971673184D+02
 0.270348504350936D+03 -.208116652817852D+03 -.314603855997320D+02 -.143076082622490D+03
 0.000000000000000D+00 -.000000000000000D+00 -.000000000000000D+00 0.000000000000000D+00
 0.530233153248973D+03 0.000000000000000D+00 0.000000000000000D+00 0.530233153248973D+03
 0.391017942714553D+03 0.000000000000000D+00 0.000000000000000D+00 -.391017942714553D+03
 0.333467239868066D+03 0.269192468781318D+03 -.489436263995940D+02 0.167406944024142D+03
 0.120040280864295D+03 0.993907807498598D+00 0.106728404653932D+03 -.549338585689706D+02
 0.372760061459254D+02 0.839517465789194D+01 0.195570509287995D+02 0.306029971673184D+02
 0.240153709796061D+03 -.169838342761542D+03 -.653642824684039D+01 -.143076082622490D+03
 0.190313859289178D+03 -.108743208485167D+03 -.708054009362969D+02 0.139215210534419D+03
0.880661729637D-05 0.000000000000D+00 0.000000000000D+00 0.308710545435D-06 0.000000000000D+00  7 2 -2 23 -11 11 23 21 0 0.40804107D+00 0.75034614D-02 0.88521932D+05 0.88521932D+05 0.88521932D+05 0.11260932D+01  1  2  2  1  7  1        2 0.321715787510D-03 0.100000000000D+01
-.467857451302D-06 0.000000000000D+00 -.338197292536D-07 0.308710545435D-06 0.000000000000D+00  7 2 -2 23 -11 11 23 21 2 0.40804107D+00 0.75034614D-02 0.88521932D+05 0.88521932D+05 0.88521932D+05 0.11260932D+01  1  2  3  1  7  1        2 -.216733214797D-04 0.100000000000D+01
0.552453000401D-06 0.000000000000D+00 0.000000000000D+00 0.308710545435D-06 0.000000000000D+00  7 2 -2 23 -11 11 23 21 2 0.40804107D+00 0.75034614D-02 0.88521932D+05 0.88521932D+05 0.88521932D+05 0.11260932D+01  1  2 15  1  7  1        2 0.255921786578D-04 0.100000000000D+01
0.530360710463D-05 0.000000000000D+00 0.000000000000D+00 0.308710545435D-06 0.000000000000D+00  7 2 -2 23 -11 11 23 21 2 0.61264477D+00 0.75034614D-02 0.13655288D+06 0.13655288D+06 0.13655288D+06 0.11107853D+01  1  2 12  1  7  1        2 0.293850071875D-04 0.100000000000D+01
-.695544790408D-05 0.000000000000D+00 0.000000000000D+00 0.308710545435D-06 0.000000000000D+00  7 2 -2 23 -11 11 23 21 2 0.40804107D+00 0.75034614D-02 0.88521932D+05 0.88521932D+05 0.88521932D+05 0.11260932D+01  1  2  4  1  7  1        2 -.322208523218D-03 0.100000000000D+01
-.836702829745D-05 0.000000000000D+00 -.237035584656D-05 0.308710545435D-06 0.000000000000D+00  7 2 -2 23 -11 11 23 21 2 0.61096114D+00 0.75034614D-02 0.88521932D+05 0.88521932D+05 0.88521932D+05 0.11260932D+01  1  2  5  1  7  1        2 -.499446811010D-04 0.100000000000D+01
0.877961552773D-05 0.000000000000D+00 0.218953271783D-05 0.308710545435D-06 0.000000000000D+00  7 2 -2 23 -11 11 23 21 2 0.40804107D+00 0.75034614D-02 0.88521932D+05 0.88521932D+05 0.88521932D+05 0.11260932D+01  1  2  6  1  7  1        2 0.406712406249D-03 0.100000000000D+01
0.255421912090D-06 0.000000000000D+00 0.000000000000D+00 0.308710545435D-06 0.000000000000D+00  7 21 -2 23 -11 11 23 -2 2 0.61264477D+00 0.75034614D-02 0.13655288D+06 0.13655288D+06 0.13655288D+06 0.11107853D+01  1  2 12  3  7  1        2 0.284988168571D-07 0.100000000000D+01
-.319037281272D-06 0.000000000000D+00 -.113587079218D-06 0.308710545435D-06 0.000000000000D+00  7 21 -2 23 -11 11 23 -2 2 0.61096114D+00 0.75034614D-02 0.88521932D+05 0.88521932D+05 0.88521932D+05 0.11260932D+01  1  2  5  3  7  1        2 -.396194455269D-07 0.100000000000D+01
  </mgrwgt>
  </event>
  <event>
  8     66 0.29152272E-05 0.36592657E+03 0.75467711E-02 0.81595612E-01
        2 -1    0    0  501    0 0.00000000E+00 0.00000000E+00 0.11358104E+04 0.11358104E+04 0.32000000E+00 0.0000E+00 0.9000E+01
       -2 -1    0    0    0  501 0.00000000E+00 0.00000000E+00 -.23692492E+03 0.23692513E+03 0.32000000E+00 0.0000E+00 0.9000E+01
       25  2    1    2    0    0 0.29554334E+03 0.15424035E+03 0.92327574E+03 0.10262589E+04 0.29938817E+03 0.0000E+00 0.0000E+00
       23  2    3    3    0    0 0.10765023E+03 0.11881709E+03 0.67552781E+03 0.70029430E+03 0.91477975E+02 0.0000E+00 0.0000E+00
       23  1    1    2    0    0 -.29554334E+03 -.15424035E+03 -.24390267E+02 0.34647668E+03 0.91188000E+02 0.0000E+00 0.9000E+01
      -11  1    4    4    0    0 0.10492977E+03 0.12760227E+03 0.66879304E+03 0.68889529E+03 0.51099893E-03 0.0000E+00 0.9000E+01
       11  1    4    4    0    0 0.27204689E+01 -.87851823E+01 0.67347715E+01 0.11399014E+02 0.51099893E-03 0.0000E+00 0.9000E+01
       23  1    3    3    0    0 0.18789310E+03 0.35423266E+02 0.24774793E+03 0.32596459E+03 0.91188000E+02 0.0000E+00 0.9000E+01
#aMCatNLO 1  0  0  2  1 0.18351876D+04 0.00000000D+00  -5  7  0 0.00000000D+00 0.00000000D+00 0.00000000D+00 0.00000000D+00 0.00000000D+00
  <mgrwgt>
 0.6559012629D-03    5    2    0
 0.518750385535527D+03 0.000000000000000D+00 0.000000000000000D+00 0.518750385535527D+03
 0.518750385535527D+03 0.000000000000000D+00 0.000000000000000D+00 -.518750385535527D+03
 0.479561003830549D+03 -.295543336127469D+03 -.154240352755959D+03 -.332456846979164D+03
 0.332050571333005D+03 0.104929765652384D+03 0.127602269489005D+03 0.288036433500983D+03
 0.924726450560820D+01 0.272046887353184D+01 -.878518229274242D+01 -.965153888305402D+00
 0.216641931401893D+03 0.187893101601554D+03 0.354232655596968D+02 0.453855673664864D+02
 0.000000000000000D+00 0.000000000000000D+00 -.000000000000000D+00 -.000000000000000D+00
 0.128051076718880D+04 0.000000000000000D+00 0.000000000000000D+00 0.128051076718880D+04
 0.477252442813173D+04 0.000000000000000D+00 0.000000000000000D+00 -.477252442813173D+04
 0.148824393906377D+04 -.144298279917588D+04 -.117591908715100D+03 -.332456846979164D+03
 0.496406629702923D+03 -.378148849099477D+03 0.143031475255586D+03 0.288036433500983D+03
 0.134842993982170D+02 -.105344492901007D+02 -.836182912926005D+01 -.965153888305402D+00
 0.110021015124869D+03 -.258612110492604D+01 0.415070437101876D+02 0.453855673664864D+02
 0.394487931203076D+04 0.183425221867038D+04 -.585847811214132D+02 -.349201366094293D+04
0.346433579171D-04 0.000000000000D+00 0.000000000000D+00 0.108545890318D-05 0.000000000000D+00  7 2 -2 23 -11 11 23 21 0 0.17474008D+00 0.36450008D-01 0.13390226D+06 0.13390226D+06 0.13390226D+06 0.11114638D+01  1  2  2  2  7  2       -2 0.644806481747D-03 0.100000000000D+01
-.163962418177D-05 0.000000000000D+00 -.133039616207D-06 0.108545890318D-05 0.000000000000D+00  7 2 -2 23 -11 11 23 21 2 0.17474008D+00 0.36450008D-01 0.13390226D+06 0.13390226D+06 0.13390226D+06 0.11114638D+01  1  2  3  2  7  2       -2 -.377002606573D-04 0.100000000000D+01
0.209919176918D-05 0.000000000000D+00 0.000000000000D+00 0.108545890318D-05 0.000000000000D+00  7 2 -2 23 -11 11 23 21 2 0.17474008D+00 0.36450008D-01 0.13390226D+06 0.13390226D+06 0.13390226D+06 0.11114638D+01  1  2 15  2  7  2       -2 0.482672052216D-04 0.100000000000D+01
0.662673652751D-04 0.000000000000D+00 -.327763448120D-04 0.108545890318D-05 0.000000000000D+00  7 2 -2 23 -11 11 23 21 2 0.17474008D+00 0.50444179D+00 0.13390226D+06 0.13390226D+06 0.13390226D+06 0.11114638D+01  1  2  5  2  7  2       -2 0.173981735518D-06 0.100000000000D+01
0.129701409273D-04 0.000000000000D+00 -.982286583074D-05 0.108545890318D-05 0.000000000000D+00  7 2 21 23 -11 11 23 2 2 0.17474008D+00 0.50444179D+00 0.13390226D+06 0.13390226D+06 0.13390226D+06 0.11114638D+01  1  2  5  4  7  2       -2 0.353854818895D-06 0.100000000000D+01
  </mgrwgt>
  </event>
  <event>
  8     66 0.29152272E-05 0.14150804E+03 0.75467711E-02 0.10279685E+00
        2 -1    0    0  501    0 0.00000000E+00 0.00000000E+00 0.11534306E+04 0.11534307E+04 0.32000000E+00 0.0000E+00 0.9000E+01
       -2 -1    0    0    0  501 0.00000000E+00 0.00000000E+00 -.13013392E+03 0.13013431E+03 0.32000000E+00 0.0000E+00 0.9000E+01
       25  2    1    2    0    0 0.15252924E+03 -.57263581E+02 0.10408906E+04 0.10960308E+04 0.30213564E+03 0.0000E+00 0.0000E+00
       23  2    3    3    0    0 0.16663952E+03 0.15556206E+02 0.85944320E+03 0.87983588E+03 0.86358822E+02 0.0000E+00 0.0000E+00
       23  1    1    2    0    0 -.15252924E+03 0.57263581E+02 -.17593877E+02 0.18753422E+03 0.91188000E+02 0.0000E+00 0.9000E+01
      -13  1    4    4    0    0 -.55495367E+01 0.51179869E+01 0.13211160E+03 0.13232716E+03 0.10565837E+00 0.0000E+00 0.9000E+01
       13  1    4    4    0    0 0.17218906E+03 0.10438219E+02 0.72733160E+03 0.74750873E+03 0.10565837E+00 0.0000E+00 0.9000E+01
       23  1    3    3    0    0 -.14110284E+02 -.72819788E+02 0.18144738E+03 0.21619487E+03 0.91188000E+02 0.0000E+00 0.9000E+01
#aMCatNLO 1  0  0  1  2 0.30509975D+02 0.00000000D+00  -5  7  0 0.00000000D+00 0.00000000D+00 0.00000000D+00 0.00000000D+00 0.00000000D+00
  <mgrwgt>
 0.6449144781D-03    6    2    0
 0.387428351198869D+03 0.000000000000000D+00 0.000000000000000D+00 0.387428351198869D+03
 0.387428351198869D+03 0.000000000000000D+00 0.000000000000000D+00 -.387428351198869D+03
 0.333888972533231D+03 -.152529239182406D+03 0.572635818619387D+02 -.276807348208233D+03
 0.447319764699367D+02 -.554980271333747D+01 0.511797859003838D+01 0.440903130392823D+02
 0.277729111656081D+03 0.172189324303955D+03 0.104382261891631D+02 0.217658768468093D+03
 0.118506641738490D+03 -.141102824082119D+02 -.728197866411403D+02 0.150582667008579D+02
 0.000000000000000D+00 0.000000000000000D+00 0.000000000000000D+00 -.000000000000000D+00
 0.402762360849870D+03 0.000000000000000D+00 0.000000000000000D+00 0.402762360849870D+03
 0.403208003017977D+03 0.000000000000000D+00 0.000000000000000D+00 -.403208003017977D+03
 0.338422783520862D+03 -.164251150268107D+03 0.511271031404843D+02 -.276807348208233D+03
 0.448667740260622D+02 -.711197766751093D+01 0.430017223616084D+01 0.440903130392823D+02
 0.271747052464310D+03 0.162609080196170D+03 0.542292077659513D+01 0.217658768468093D+03
 0.120420524720324D+03 -.182760328595004D+02 -.750005777097914D+02 0.150582667008579D+02
 0.305132291362884D+02 0.270300805989487D+02 0.141503815565512D+02 -.445642168107174D+00
0.861375321977D-05 0.000000000000D+00 0.000000000000D+00 0.483362905089D-08 0.000000000000D+00  7 2 -2 23 -13 13 23 21 0 0.17745090D+00 0.20020637D-01 0.58638558D+05 0.58638558D+05 0.58638558D+05 0.11412567D+01  1  2  2  1  7  1        2 0.448664435268D-03 0.100000000000D+01
-.350037513592D-06 0.000000000000D+00 -.330790804172D-07 0.483362905089D-08 0.000000000000D+00  7 2 -2 23 -13 13 23 21 2 0.17745090D+00 0.20020637D-01 0.58638558D+05 0.58638558D+05 0.58638558D+05 0.11412567D+01  1  2  3  1  7  1        2 -.237470963401D-04 0.100000000000D+01
0.533513080311D-06 0.000000000000D+00 0.000000000000D+00 0.483362905089D-08 0.000000000000D+00  7 2 -2 23 -13 13 23 21 2 0.17745090D+00 0.20020637D-01 0.58638558D+05 0.58638558D+05 0.58638558D+05 0.11412567D+01  1  2 15  1  7  1        2 0.361943678174D-04 0.100000000000D+01
0.179610945808D-04 0.000000000000D+00 0.000000000000D+00 0.483362905089D-08 0.000000000000D+00  7 2 -2 23 -13 13 23 21 2 0.18794578D+00 0.20020637D-01 0.66485240D+05 0.66485240D+05 0.66485240D+05 0.11365665D+01  1  2 12  1  7  1        2 0.110380072007D-02 0.100000000000D+01
-.136568435561D-04 0.000000000000D+00 0.000000000000D+00 0.483362905089D-08 0.000000000000D+00  7 2 -2 23 -13 13 23 21 2 0.17745090D+00 0.20020637D-01 0.58638558D+05 0.58638558D+05 0.58638558D+05 0.11412567D+01  1  2  4  1  7  1        2 -.926501780621D-03 0.100000000000D+01
0.196173591168D-06 0.000000000000D+00 0.000000000000D+00 0.483362905089D-08 0.000000000000D+00  7 21 -2 23 -13 13 23 -2 2 0.18794578D+00 0.20020637D-01 0.66485240D+05 0.66485240D+05 0.66485240D+05 0.11365665D+01  1  2 12  3  7  1        2 0.650383192885D-05 0.100000000000D+01
  </mgrwgt>
  </event>
  <event>
  7     66 0.29152272E-05 0.19775817E+03 0.75467711E-02 0.99772232E-01
        2 -1    0    0  501    0 0.00000000E+00 0.00000000E+00 0.18920314E+03 0.18920341E+03 0.32000000E+00 0.0000E+00 0.9000E+01
       -2 -1    0    0    0  501 0.00000000E+00 0.00000000E+00 -.39690485E+03 0.39690498E+03 0.32000000E+00 0.0000E+00 0.9000E+01
       25  2    1    2    0    0 0.49879131E+01 -.81936110E+02 0.35624739E+02 0.31359891E+03 0.30056073E+03 0.0000E+00 0.0000E+00
       23  1    1    2    0    0 -.49879131E+01 0.81936110E+02 -.24332644E+03 0.27250948E+03 0.91188000E+02 0.0000E+00 0.9000E+01
      -11  1    3    3    0    0 -.37610401E+02 -.47577222E+02 0.47929479E+02 0.77300512E+02 0.51099893E-03 0.0000E+00 0.9000E+01
       11  1    3    3    0    0 0.53644774E+02 0.60004159E+02 0.45527087E+02 0.92471491E+02 0.51099893E-03 0.0000E+00 0.9000E+01
       23  1    3    3    0    0 -.11046461E+02 -.94363047E+02 -.57831826E+02 0.14382691E+03 0.91188000E+02 0.0000E+00 0.9000E+01
#aMCatNLO 1  0  0  1  1 0.20930798D+03 0.00000000D+00  -5  7  0 0.00000000D+00 0.00000000D+00 0.00000000D+00 0.00000000D+00 0.00000000D+00
  <mgrwgt>
 0.5949862638D-03    3    2    0
 0.274036059098768D+03 0.000000000000000D+00 0.000000000000000D+00 0.274036059098768D+03
 0.274036059098768D+03 0.000000000000000D+00 0.000000000000000D+00 -.274036059098768D+03
 0.199208771364418D+03 -.498791313631092D+01 0.819361098252395D+02 -.156941001251336D+03
 0.100828898461822D+03 -.376103929308349D+02 -.475772082327575D+02 0.805501977985739D+02
 0.116142325181627D+03 0.536447683957031D+02 0.600041570016936D+02 0.837303986905723D+02
 0.131892123189669D+03 -.110464623285573D+02 -.943630585941756D+02 -.733959523781025D+01
 0.000000000000000D+00 0.000000000000000D+00 0.000000000000000D+00 -.000000000000000D+00
 0.309502836425504D+03 0.000000000000000D+00 0.000000000000000D+00 0.309502836425504D+03
 0.970962249643153D+03 0.000000000000000D+00 0.000000000000000D+00 -.970962249643153D+03
 0.209521789552894D+03 -.791648984598526D+02 0.684585270913468D+02 -.156941001251336D+03
 0.125311648274151D+03 -.786506909174723D+02 -.550340226223680D+02 0.805501977985739D+02
 0.100070243500820D+03 0.144062135444849D+02 0.528747102189886D+02 0.837303986905723D+02
 0.151775855817887D+03 -.625269179822245D+02 -.103716796781626D+03 -.733959523781025D+01
 0.693785548922905D+03 0.205936293815064D+03 0.374175820936590D+02 -.661459413217649D+03
0.102904722904D-04 0.000000000000D+00 0.000000000000D+00 0.135912897312D-09 0.000000000000D+00  7 2 -2 23 -11 11 23 21 0 0.29108207D-01 0.61062315D-01 0.39108293D+05 0.39108293D+05 0.39108293D+05 0.11568007D+01  1  2  2  1  7  1        2 0.585393701926D-03 0.100000000000D+01
-.497723592030D-06 0.000000000000D+00 -.395181231387D-07 0.135912897312D-09 0.000000000000D+00  7 2 -2 23 -11 11 23 21 2 0.29108207D-01 0.61062315D-01 0.39108293D+05 0.39108293D+05 0.39108293D+05 0.11568007D+01  1  2  3  1  7  1        2 -.378894302478D-04 0.100000000000D+01
0.623733518892D-06 0.000000000000D+00 0.000000000000D+00 0.135912897312D-09 0.000000000000D+00  7 2 -2 23 -11 11 23 21 2 0.29108207D-01 0.61062315D-01 0.39108293D+05 0.39108293D+05 0.39108293D+05 0.11568007D+01  1  2 15  1  7  1        2 0.474819920850D-04 0.100000000000D+01
  </mgrwgt>
  </event>
  <event>
  8     66 0.29152272E-05 0.34645085E+03 0.75467711E-02 0.93735867E-01
        2 -1    0    0  501    0 0.00000000E+00 0.00000000E+00 0.81155062E+03 0.81155069E+03 0.32000000E+00 0.0000E+00 0.9000E+01
       -2 -1    0    0    0  501 0.00000000E+00 0.00000000E+00 -.15912829E+03 0.15912861E+03 0.32000000E+00 0.0000E+00 0.9000E+01
       25  2    1    2    0    0 0.28499164E+03 -.21308390E+02 0.43086024E+03 0.59774593E+03 0.29997561E+03 0.0000E+00 0.0000E+00
       23  2    3    3    0    0 0.26601863E+03 0.36070662E+02 0.38544247E+03 0.47929613E+03 0.95351319E+02 0.0000E+00 0.0000E+00
       23  1    1    2    0    0 -.28499164E+03 0.21308390E+02 0.22156209E+03 0.37293336E+03 0.91188000E+02 0.0000E+00 0.9000E+01
      -11  1    4    4    0    0 0.24191682E+03 0.21687105E+01 0.34423221E+03 0.42074252E+03 0.51099893E-03 0.0000E+00 0.9000E+01
       11  1    4    4    0    0 0.24101807E+02 0.33901951E+02 0.41210266E+02 0.58553611E+02 0.51099893E-03 0.0000E+00 0.9000E+01
       23  1    3    3    0    0 0.18973008E+02 -.57379051E+02 0.45417769E+02 0.11844980E+03 0.91188000E+02 0.0000E+00 0.9000E+01
#aMCatNLO 1  0  0  1  2 0.31848335D+03 0.00000000D+00  -5  7  0 0.00000000D+00 0.00000000D+00 0.00000000D+00 0.00000000D+00 0.00000000D+00
  <mgrwgt>
 0.6093962102D-03    3    2    0
 0.359361723347935D+03 0.000000000000000D+00 0.000000000000000D+00 0.359361723347935D+03
 0.359361723347935D+03 0.000000000000000D+00 0.000000000000000D+00 -.359361723347935D+03
 0.302545630123637D+03 -.284991639587301D+03 0.213083896805380D+02 -.392978988938676D+02
 0.255760781751339D+03 0.241916824900923D+03 0.216871046833115D+01 0.829766473582579D+02
 0.416714946798629D+02 0.241018065690718D+02 0.339019512569380D+02 0.250481335294354D+01
 0.118745540141031D+03 0.189730081173065D+02 -.573790514058071D+02 -.461835618173339D+02
 0.000000000000000D+00 -.000000000000000D+00 0.000000000000000D+00 -.000000000000000D+00
 0.434102738941533D+03 0.000000000000000D+00 0.000000000000000D+00 0.434102738941533D+03
 0.101095460989297D+04 0.000000000000000D+00 0.000000000000000D+00 -.101095460989297D+04
 0.321303223766447D+03 -.284810323018143D+03 -.110721566569211D+03 -.392978988938676D+02
 0.278932690998566D+03 0.242072229187436D+03 -.110992603163952D+03 0.829766473582579D+02
 0.305714462207485D+02 0.241228033892284D+02 0.186126191262718D+02 0.250481335294354D+01
 0.155319243284745D+03 0.190526628060153D+02 -.115381500460041D+03 -.461835618173339D+02
 0.658930744563993D+03 -.437372364536748D+00 0.318483051066933D+03 -.576851870951434D+03
0.100588613885D-04 0.000000000000D+00 0.000000000000D+00 0.518718822300D-07 0.000000000000D+00  7 2 -2 23 -11 11 23 21 0 0.12485397D+00 0.24481305D-01 0.12002819D+06 0.12002819D+06 0.12002819D+06 0.11152734D+01  1  2  2  1  7  1        2 0.602386423188D-03 0.100000000000D+01
-.557916038927D-06 0.000000000000D+00 -.386286762908D-07 0.518718822300D-07 0.000000000000D+00  7 2 -2 23 -11 11 23 21 2 0.12485397D+00 0.24481305D-01 0.12002819D+06 0.12002819D+06 0.12002819D+06 0.11152734D+01  1  2  3  1  7  1        2 -.415583125653D-04 0.100000000000D+01
0.652021702520D-06 0.000000000000D+00 0.000000000000D+00 0.518718822300D-07 0.000000000000D+00  7 2 -2 23 -11 11 23 21 2 0.12485397D+00 0.24481305D-01 0.12002819D+06 0.12002819D+06 0.12002819D+06 0.11152734D+01  1  2 15  1  7  1        2 0.485680995384D-04 0.100000000000D+01
  </mgrwgt>
  </event>
  <event>
  8     66 0.29152272E-05 0.26412001E+03 0.75467711E-02 0.10035875E+00
        2 -1    0    0  501    0 0.00000000E+00 0.00000000E+00 0.22742492E+04 0.22742492E+04 0.32000000E+00 0.0000E+00 0.9000E+01
       -2 -1    0    0    0  501 0.00000000E+00 0.00000000E+00 -.34240530E+02 0.34242025E+02 0.32000000E+00 0.0000E+00 0.9000E+01
       25  2    1    2    0    0 -.49551604E+01 -.16459268E+03 0.10721421E+04 0.11255530E+04 0.30044233E+03 0.0000E+00 0.0000E+00
       23  2    3    3    0    0 -.12010088E+03 -.61473075E+02 0.48261977E+03 0.50931927E+03 0.91000654E+02 0.0000E+00 0.0000E+00
       23  1    1    2    0    0 0.49551604E+01 0.16459268E+03 0.11678665E+04 0.11829382E+04 0.91188000E+02 0.0000E+00 0.9000E+01
      -13  1    4    4    0    0 0.17138948E+00 -.38004505E+02 0.15326456E+03 0.15790633E+03 0.10565837E+00 0.0000E+00 0.9000E+01
       13  1    4    4    0    0 -.12027227E+03 -.23468570E+02 0.32935521E+03 0.35141294E+03 0.10565837E+00 0.0000E+00 0.9000E+01
       23  1    3    3    0    0 0.11514572E+03 -.10311960E+03 0.58952237E+03 0.61623378E+03 0.91188000E+02 0.0000E+00 0.9000E+01
#aMCatNLO 1  0  0  2  2 0.87098227D+02 0.00000000D+00  -5  7  0 0.00000000D+00 0.00000000D+00 0.00000000D+00 0.00000000D+00 0.00000000D+00
  <mgrwgt>
 0.5436357378D-03    4    2    0
 0.279057789549189D+03 0.000000000000000D+00 0.000000000000000D+00 0.279057789549189D+03
 0.279057789549189D+03 0.000000000000000D+00 0.000000000000000D+00 -.279057789549189D+03
 0.205640793825243D+03 0.495516040055111D+01 0.164592678124097D+03 0.828105152406274D+02
 0.380053208745711D+02 0.171551655805061D+00 -.380045248316981D+02 0.176287053802978D+00
 0.131648810377121D+03 -.120272429882982D+03 -.234685507745017D+02 -.481163070933226D+02
 0.182820654021444D+03 0.115145717826626D+03 -.103119602517897D+03 -.348704952011078D+02
 0.000000000000000D+00 -.000000000000000D+00 0.000000000000000D+00 0.000000000000000D+00
 0.347368290547158D+03 0.000000000000000D+00 0.000000000000000D+00 0.347368290547158D+03
 0.311642918584114D+03 0.000000000000000D+00 0.000000000000000D+00 -.311642918584114D+03
 0.207978302972884D+03 0.370144585304752D+02 0.163438280671201D+03 0.828105152406274D+02
 0.387055050372005D+02 0.611734878349060D+01 -.382186222530396D+02 0.176287053802978D+00
 0.114616766480831D+03 -.101184574392886D+03 -.241558699937095D+02 -.481163070933226D+02
 0.203570296349445D+03 0.145094583264749D+03 -.104198007099269D+03 -.348704952011078D+02
 0.941403382909106D+02 -.870418161858289D+02 0.313421867481705D+01 0.357253719630448D+02
0.732540914225D-05 0.000000000000D+00 0.000000000000D+00 0.242918624258D-06 0.000000000000D+00  7 2 -2 23 -13 13 23 21 0 0.34988461D+00 0.52678906D-02 0.69759378D+05 0.69759378D+05 0.69759378D+05 0.11347868D+01  1  2  2  2  7  2       -2 0.746929317040D-03 0.100000000000D+01
-.405469531957D-06 0.000000000000D+00 -.281314999307D-07 0.242918624258D-06 0.000000000000D+00  7 2 -2 23 -13 13 23 21 2 0.34988461D+00 0.52678906D-02 0.69759378D+05 0.69759378D+05 0.69759378D+05 0.11347868D+01  1  2  3  2  7  2       -2 -.532395496393D-04 0.100000000000D+01
0.481297967508D-06 0.000000000000D+00 0.000000000000D+00 0.242918624258D-06 0.000000000000D+00  7 2 -2 23 -13 13 23 21 2 0.34988461D+00 0.52678906D-02 0.69759378D+05 0.69759378D+05 0.69759378D+05 0.11347868D+01  1  2 15  2  7  2       -2 0.631960850641D-04 0.100000000000D+01
-.162410134512D-05 0.000000000000D+00 0.000000000000D+00 0.242918624258D-06 0.000000000000D+00  7 2 -2 23 -13 13 23 21 2 0.34988461D+00 0.52678906D-02 0.69759378D+05 0.69759378D+05 0.69759378D+05 0.11347868D+01  1  2  4  2  7  2       -2 -.213250114665D-03 0.100000000000D+01
  </mgrwgt>
  </event>
  <event>
  8     66 0.29152272E-05 0.88291234E+02 0.75467711E-02 0.10799925E+00
        2 -1    0    0  501    0 0.00000000E+00 0.00000000E+00 0.16710178E+04 0.16710178E+04 0.32000000E+00 0.0000E+00 0.9000E+01
       -2 -1    0    0    0  501 0.00000000E+00 0.00000000E+00 -.29257778E+02 0.29259528E+02 0.32000000E+00 0.0000E+00 0.9000E+01
       25  2    1    2    0    0 0.70958038E+02 0.57186255E+02 0.12081346E+04 0.12478931E+04 0.29890219E+03 0.0000E+00 0.0000E+00
       23  2    3    3    0    0 0.92726442E+02 0.60408967E+02 0.27371113E+03 0.30877285E+03 0.90418232E+02 0.0000E+00 0.0000E+00
       23  1    1    2    0    0 -.70958038E+02 -.57186255E+02 0.43362533E+03 0.45238423E+03 0.91188000E+02 0.0000E+00 0.9000E+01
      -13  1    4    4    0    0 0.33504608E+02 0.58743873E+02 0.21491653E+03 0.22530541E+03 0.10565837E+00 0.0000E+00 0.9000E+01
       13  1    4    4    0    0 0.59221835E+02 0.16650935E+01 0.58794597E+02 0.83467443E+02 0.10565837E+00 0.0000E+00 0.9000E+01
       23  1    3    3    0    0 -.21768404E+02 -.32227115E+01 0.93442352E+03 0.93912024E+03 0.91188000E+02 0.0000E+00 0.9000E+01
#aMCatNLO 1  0  0  1  2 0.68910539D+01 0.00000000D+00  -5  7  0 0.00000000D+00 0.00000000D+00 0.00000000D+00 0.00000000D+00 0.00000000D+00
  <mgrwgt>
 0.1049895470D-02   11    2    0
 0.221114859310242D+03 0.000000000000000D+00 0.000000000000000D+00 0.221114859310242D+03
 0.221114859310242D+03 0.000000000000000D+00 0.000000000000000D+00 -.221114859310242D+03
 0.129502677203267D+03 -.709580509450737D+02 -.571862654898838D+02 -.122628750385241D+02
 0.683814263228829D+02 0.335045751190037D+02 0.587439521359580D+02 -.101297087566809D+02
 0.102641680787969D+03 0.592218696089463D+02 0.166501775701646D+01 -.838171373340147D+02
 0.141703934306365D+03 -.217683937828763D+02 -.322270440309068D+01 0.106209721129220D+03
 0.000000000000000D+00 -.000000000000000D+00 -.000000000000000D+00 0.000000000000000D+00
 0.233647945981243D+03 0.000000000000000D+00 0.000000000000000D+00 0.233647945981243D+03
 0.222090961038439D+03 0.000000000000000D+00 0.000000000000000D+00 -.222090961038439D+03
 0.128262991109152D+03 -.701647803806157D+02 -.553413862691919D+02 -.122628750385241D+02
 0.694368950743632D+02 0.339287092495232D+02 0.597303447732748D+02 -.101297087566809D+02
 0.103042507886793D+03 0.598548600824967D+02 0.313713965825823D+01 -.838171373340147D+02
 0.141541011287783D+03 -.208967110667785D+02 -.119546501968571D+01 0.106209721129220D+03
 0.134555016615907D+02 -.272207788462568D+01 -.633063314265538D+01 0.115569849428048D+02
0.141954845265D-05 0.000000000000D+00 0.000000000000D+00 0.186702138571D-07 0.000000000000D+00  7 2 -2 23 -13 13 23 21 0 0.25707979D+00 0.45013336D-02 0.30554808D+05 0.30554808D+05 0.30554808D+05 0.11665983D+01  1  2  2  1  7  1        2 0.384111481731D-03 0.100000000000D+01
-.735664834933D-07 0.000000000000D+00 -.545143983386D-08 0.186702138571D-07 0.000000000000D+00  7 2 -2 23 -13 13 23 21 2 0.25707979D+00 0.45013336D-02 0.30554808D+05 0.30554808D+05 0.30554808D+05 0.11665983D+01  1  2  3  1  7  1        2 -.270912915090D-04 0.100000000000D+01
0.902604205258D-07 0.000000000000D+00 0.000000000000D+00 0.186702138571D-07 0.000000000000D+00  7 2 -2 23 -13 13 23 21 2 0.25707979D+00 0.45013336D-02 0.30554808D+05 0.30554808D+05 0.30554808D+05 0.11665983D+01  1  2 15  1  7  1        2 0.332389322973D-04 0.100000000000D+01
0.115458481319D-04 0.000000000000D+00 0.000000000000D+00 0.186702138571D-07 0.000000000000D+00  7 2 -2 23 -13 13 23 21 2 0.27220031D+00 0.45013336D-02 0.31818872D+05 0.31818872D+05 0.31818872D+05 0.11649715D+01  1  2 12  1  7  1        2 0.376834961779D-02 0.100000000000D+01
-.127574487029D-04 0.000000000000D+00 0.000000000000D+00 0.186702138571D-07 0.000000000000D+00  7 2 -2 23 -13 13 23 21 2 0.25707979D+00 0.45013336D-02 0.30554808D+05 0.30554808D+05 0.30554808D+05 0.11665983D+01  1  2  4  1  7  1        2 -.469800573998D-02 0.100000000000D+01
-.302355208717D-04 0.000000000000D+00 -.266804885996D-05 0.186702138571D-07 0.000000000000D+00  7 2 -2 23 -13 13 23 21 2 0.27210783D+00 0.45013336D-02 0.30554808D+05 0.30554808D+05 0.30554808D+05 0.11665983D+01  1  2  5  1  7  1        2 -.990298771260D-02 0.100000000000D+01
0.303424180684D-04 0.000000000000D+00 0.266374895452D-05 0.186702138571D-07 0.000000000000D+00  7 2 -2 23 -13 13 23 21 2 0.25707979D+00 0.45013336D-02 0.30554808D+05 0.30554808D+05 0.30554808D+05 0.11665983D+01  1  2  6  1  7  1        2 0.111737744411D-01 0.100000000000D+01
0.101012395176D-05 0.000000000000D+00 0.000000000000D+00 0.186702138571D-07 0.285015880293D-08  7 2 -2 23 -13 13 23 21 2 0.27165142D+00 0.45212046D-02 0.31818872D+05 0.31818872D+05 0.31818872D+05 0.11649715D+01  1  2 11  1  7  1        2 0.328966410743D-03 0.100000000000D+01
0.174433363051D-06 0.000000000000D+00 0.000000000000D+00 0.186702138571D-07 0.000000000000D+00  7 21 -2 23 -13 13 23 -2 2 0.27220031D+00 0.45013336D-02 0.31818872D+05 0.31818872D+05 0.31818872D+05 0.11649715D+01  1  2 12  3  7  1        2 0.164525144634D-04 0.100000000000D+01
-.293333720745D-06 0.000000000000D+00 -.261495521005D-07 0.186702138571D-07 0.000000000000D+00  7 21 -2 23 -13 13 23 -2 2 0.27210783D+00 0.45013336D-02 0.30554808D+05 0.30554808D+05 0.30554808D+05 0.11665983D+01  1  2  5  3  7  1        2 -.278479252225D-04 0.100000000000D+01
0.989309298680D-08 0.000000000000D+00 0.000000000000D+00 0.186702138571D-07 0.272983004293D-10  7 21 -2 23 -13 13 23 -2 2 0.27165142D+00 0.45212046D-02 0.31818872D+05 0.31818872D+05 0.31818872D+05 0.11649715D+01  1  2 11  3  7  1        2 0.934740696366D-06 0.100000000000D+01
  </mgrwgt>
  </event>
  <event>
  8     66 0.29152272E-05 0.10721113E+03 0.75467711E-02 0.10168778E+00
        2 -1    0    0  501    0 0.00000000E+00 0.00000000E+00 0.48795086E+03 0.48795097E+03 0.32000000E+00 0.0000E+00 0.9000E+01
       -2 -1    0    0    0  501 0.00000000E+00 0.00000000E+00 -.24368422E+03 0.24368443E+03 0.32000000E+00 0.0000E+00 0.9000E+01
       25  2    1    2    0    0 0.16489526E+03 0.65270635E+02 0.36067963E+03 0.50072863E+03 0.29864470E+03 0.0000E+00 0.0000E+00
       23  2    3    3    0    0 -.12479592E+02 0.80634570E+02 0.53021037E+02 0.13375867E+03 0.91774055E+02 0.0000E+00 0.0000E+00
       23  1    1    2    0    0 -.16489526E+03 -.65270635E+02 -.11641299E+03 0.23090677E+03 0.91188000E+02 0.0000E+00 0.9000E+01
      -13  1    4    4    0    0 0.21996465E+02 0.38929657E+00 0.39730943E+02 0.45415361E+02 0.10565837E+00 0.0000E+00 0.9000E+01
       13  1    4    4    0    0 -.34476057E+02 0.80245273E+02 0.13290094E+02 0.88343308E+02 0.10565837E+00 0.0000E+00 0.9000E+01
       23  1    3    3    0    0 0.17737485E+03 -.15363935E+02 0.30765860E+03 0.36696996E+03 0.91188000E+02 0.0000E+00 0.9000E+01
#aMCatNLO 1  0  0  2  1 0.50948814D+02 0.00000000D+00  -5  7  0 0.00000000D+00 0.00000000D+00 0.00000000D+00 0.00000000D+00 0.00000000D+00
  <mgrwgt>
 0.7189210451D-03    9    2    0
 0.344827551534415D+03 0.000000000000000D+00 0.000000000000000D+00 0.344827551534415D+03
 0.344827551534415D+03 0.000000000000000D+00 0.000000000000000D+00 -.344827551534415D+03
 0.286194325227710D+03 -.164895255458323D+03 -.652706348857722D+02 -.205283314951525D+03
 0.341076154664729D+02 0.219965393803609D+02 0.389190851063805D+00 0.260639639843686D+02
 0.890137902601187D+02 -.344761315983890D+02 0.802453786710411D+02 -.171909978891331D+02
 0.280339372114528D+03 0.177374847676351D+03 -.153639346363328D+02 0.196410348856289D+03
 0.000000000000000D+00 -.000000000000000D+00 -.000000000000000D+00 -.000000000000000D+00
 0.369825874244060D+03 0.000000000000000D+00 0.000000000000000D+00 0.369825874244060D+03
 0.372740738356634D+03 0.000000000000000D+00 0.000000000000000D+00 -.372740738356634D+03
 0.274764025037706D+03 -.149724845098635D+03 -.511981393570466D+02 -.205283314951525D+03
 0.354114740796340D+02 0.238765953876337D+02 0.213318321045337D+01 0.260639639843686D+02
 0.914207355103836D+02 -.295965076517999D+02 0.847718538646659D+02 -.171909978891331D+02
 0.289938249604212D+03 0.192797285966693D+03 -.105765097378981D+01 0.196410348856289D+03
 0.510321283687588D+02 -.373525286038911D+02 -.346492467442829D+02 -.291486411257359D+01
0.846501125095D-05 0.000000000000D+00 0.000000000000D+00 0.110977779019D-06 0.000000000000D+00  7 2 -2 23 -13 13 23 21 0 0.75069388D-01 0.37489904D-01 0.64715503D+05 0.64715503D+05 0.64715503D+05 0.11375690D+01  1  2  2  2  7  2       -2 0.436988821320D-03 0.100000000000D+01
-.417377992564D-06 0.000000000000D+00 -.325078720923D-07 0.110977779019D-06 0.000000000000D+00  7 2 -2 23 -13 13 23 21 2 0.75069388D-01 0.37489904D-01 0.64715503D+05 0.64715503D+05 0.64715503D+05 0.11375690D+01  1  2  3  2  7  2       -2 -.278822523491D-04 0.100000000000D+01
0.518185909910D-06 0.000000000000D+00 0.000000000000D+00 0.110977779019D-06 0.000000000000D+00  7 2 -2 23 -13 13 23 21 2 0.75069388D-01 0.37489904D-01 0.64715503D+05 0.64715503D+05 0.64715503D+05 0.11375690D+01  1  2 15  2  7  2       -2 0.346165599558D-04 0.100000000000D+01
0.105188976960D-04 0.000000000000D+00 0.000000000000D+00 0.110977779019D-06 0.000000000000D+00  7 2 -2 23 -13 13 23 21 2 0.75069388D-01 0.41781948D-01 0.78573258D+05 0.78573258D+05 0.78573258D+05 0.11304186D+01  1  2 12  2  7  2       -2 0.566997537876D-03 0.100000000000D+01
-.869079869283D-05 0.000000000000D+00 0.000000000000D+00 0.110977779019D-06 0.000000000000D+00  7 2 -2 23 -13 13 23 21 2 0.75069388D-01 0.37489904D-01 0.64715503D+05 0.64715503D+05 0.64715503D+05 0.11375690D+01  1  2  4  2  7  2       -2 -.580574554926D-03 0.100000000000D+01
-.294948995562D-04 0.000000000000D+00 -.810819104362D-05 0.110977779019D-06 0.000000000000D+00  7 2 -2 23 -13 13 23 21 2 0.75069388D-01 0.43238039D-01 0.64715503D+05 0.64715503D+05 0.64715503D+05 0.11375690D+01  1  2  5  2  7  2       -2 -.151265904300D-02 0.100000000000D+01
0.304232640506D-04 0.000000000000D+00 0.802638905647D-05 0.110977779019D-06 0.000000000000D+00  7 2 -2 23 -13 13 23 21 2 0.75069388D-01 0.37489904D-01 0.64715503D+05 0.64715503D+05 0.64715503D+05 0.11375690D+01  1  2  6  2  7  2       -2 0.203237626481D-02 0.100000000000D+01
0.183097163730D-06 0.000000000000D+00 0.000000000000D+00 0.110977779019D-06 0.000000000000D+00  7 2 21 23 -13 13 23 2 2 0.75069388D-01 0.41781948D-01 0.78573258D+05 0.78573258D+05 0.78573258D+05 0.11304186D+01  1  2 12  4  7  2       -2 0.110643632967D-03 0.100000000000D+01
-.594466105563D-06 0.000000000000D+00 -.177550650470D-06 0.110977779019D-06 0.000000000000D+00  7 2 21 23 -13 13 23 2 2 0.75069388D-01 0.43238039D-01 0.64715503D+05 0.64715503D+05 0.64715503D+05 0.11375690D+01  1  2  5  4  7  2       -2 -.341585921566D-03 0.100000000000D+01
  </mgrwgt>
  </event>
  <event>
  8     66 0.29152272E-05 0.21610993E+03 0.75467711E-02 0.99179757E-01
        2 -1    0    0  501    0 0.00000000E+00 0.00000000E+00 0.14299878E+04 0.14299878E+04 0.32000000E+00 0.0000E+00 0.9000E+01
       -2 -1    0    0    0  501 0.00000000E+00 0.00000000E+00 -.42635584E+02 0.42636785E+02 0.32000000E+00 0.0000E+00 0.9000E+01
       25  2    1    2    0    0 -.13111007E+03 0.67928993E+01 0.82442542E+03 0.88744274E+03 0.30106705E+03 0.0000E+00 0.0000E+00
       23  2    3    3    0    0 0.13569888E+02 -.77852978E+02 0.46230003E+03 0.47811737E+03 0.92896050E+02 0.0000E+00 0.0000E+00
       23  1    1    2    0    0 0.13111007E+03 -.67928993E+01 0.56292678E+03 0.58518186E+03 0.91188000E+02 0.0000E+00 0.9000E+01
      -13  1    4    4    0    0 0.89414276E+01 -.76066886E+02 0.17805567E+03 0.19382970E+03 0.10565837E+00 0.0000E+00 0.9000E+01
       13  1    4    4    0    0 0.46284599E+01 -.17860927E+01 0.28424436E+03 0.28428767E+03 0.10565837E+00 0.0000E+00 0.9000E+01
       23  1    3    3    0    0 -.14467995E+03 0.84645878E+02 0.36212538E+03 0.40932537E+03 0.91188000E+02 0.0000E+00 0.9000E+01
#aMCatNLO 1  0  0  1  1 0.20022713D+03 0.00000000D+00  -5  7  0 0.00000000D+00 0.00000000D+00 0.00000000D+00 0.00000000D+00 0.00000000D+00
  <mgrwgt>
 0.3802975739D-03    3    2    0
 0.246919570957004D+03 0.000000000000000D+00 0.000000000000000D+00 0.246919570957004D+03
 0.246919570957004D+03 0.000000000000000D+00 0.000000000000000D+00 -.246919570957004D+03
 0.163566416873458D+03 0.131110083317656D+03 -.679290014383387D+01 0.346803106228197D+02
 0.777833757193843D+02 0.894142686770920D+01 -.760669742200593D+02 -.135690772301266D+02
 0.492102748831521D+02 0.462844957568533D+01 -.178599661982646D+01 0.489595631585363D+02
 0.203279074438013D+03 -.144679959761050D+03 0.846458709837197D+02 -.700707965512293D+02
 0.000000000000000D+00 0.000000000000000D+00 -.000000000000000D+00 -.000000000000000D+00
 0.356767994836576D+03 0.000000000000000D+00 0.000000000000000D+00 0.356767994836576D+03
 0.377406471007917D+03 0.000000000000000D+00 0.000000000000000D+00 -.377406471007917D+03
 0.131196030714494D+03 0.838138349578402D+02 0.258778719372970D+02 0.346803106228197D+02
 0.634219795736624D+02 -.137157454021172D+02 -.604161068278088D+02 -.135690772301266D+02
 0.511456745762089D+02 -.114742119025844D+02 0.933721930744650D+01 0.489595631585363D+02
 0.287122797904889D+03 -.223367624829131D+03 0.139000853888026D+03 -.700707965512293D+02
 0.201287983075239D+03 0.164743747175992D+03 -.113799838304961D+03 -.206384761713417D+02
0.180373559962D-05 0.000000000000D+00 0.000000000000D+00 0.126925517736D-07 0.000000000000D+00  7 2 -2 23 -13 13 23 21 0 0.21999822D+00 0.65594157D-02 0.46703501D+05 0.46703501D+05 0.46703501D+05 0.11499099D+01  1  2  2  1  7  1        2 0.375234899300D-03 0.100000000000D+01
-.980434089505D-07 0.000000000000D+00 -.692681963703D-08 0.126925517736D-07 0.000000000000D+00  7 2 -2 23 -13 13 23 21 2 0.21999822D+00 0.65594157D-02 0.46703501D+05 0.46703501D+05 0.46703501D+05 0.11499099D+01  1  2  3  1  7  1        2 -.269697183928D-04 0.100000000000D+01
0.116447823483D-06 0.000000000000D+00 0.000000000000D+00 0.126925517736D-07 0.000000000000D+00  7 2 -2 23 -13 13 23 21 2 0.21999822D+00 0.65594157D-02 0.46703501D+05 0.46703501D+05 0.46703501D+05 0.11499099D+01  1  2 15  1  7  1        2 0.320323930024D-04 0.100000000000D+01
  </mgrwgt>
  </event>
  <event>
  8     66 0.29152272E-05 0.21309388E+03 0.75467711E-02 0.99843616E-01
        2 -1    0    0  501    0 0.00000000E+00 0.00000000E+00 0.37041441E+04 0.37041442E+04 0.32000000E+00 0.0000E+00 0.9000E+01
       -2 -1    0    0    0  501 0.00000000E+00 0.00000000E+00 -.66148871E+02 0.66149645E+02 0.32000000E+00 0.0000E+00 0.9000E+01
       25  2    1    2    0    0 -.10826247E+03 -.22968764E+02 0.33928520E+03 0.46846829E+03 0.30347943E+03 0.0000E+00 0.0000E+00
       23  2    3    3    0    0 -.15467092E+03 0.10110872E+01 0.31026381E+03 0.35944412E+03 0.94933262E+02 0.0000E+00 0.0000E+00
       23  1    1    2    0    0 0.10826247E+03 0.22968764E+02 0.32987101E+04 0.33018255E+04 0.91188000E+02 0.0000E+00 0.9000E+01
      -11  1    4    4    0    0 -.41008295E+02 0.40241463E+02 0.13684830E+03 0.14842006E+03 0.51099893E-03 0.0000E+00 0.9000E+01
       11  1    4    4    0    0 -.11366263E+03 -.39230375E+02 0.17341551E+03 0.21102406E+03 0.51099893E-03 0.0000E+00 0.9000E+01
       23  1    3    3    0    0 0.46408453E+02 -.23979851E+02 0.29021388E+02 0.10902417E+03 0.91188000E+02 0.0000E+00 0.9000E+01
#aMCatNLO 1  0  0  1  2 0.15923736D+03 0.00000000D+00  -5  7  0 0.00000000D+00 0.00000000D+00 0.00000000D+00 0.00000000D+00 0.00000000D+00
  <mgrwgt>
 0.3321075501D-03    4    2    0
 0.495001452758238D+03 0.000000000000000D+00 0.000000000000000D+00 0.495001452758238D+03
 0.495001452758238D+03 0.000000000000000D+00 0.000000000000000D+00 -.495001452758238D+03
 0.452686165862463D+03 0.108262468159845D+03 0.229687636697828D+02 0.429373016505087D+03
 0.623571357045174D+02 -.410082949528605D+02 0.402414625938601D+02 -.242354452535485D+02
 0.166401431547253D+03 -.113662626505428D+03 -.392303753725963D+02 -.115027046406434D+03
 0.308558172402243D+03 0.464084532984440D+02 -.239798508910467D+02 -.290110524845104D+03
 0.000000000000000D+00 -.000000000000000D+00 -.000000000000000D+00 -.000000000000000D+00
 0.548405450583342D+03 0.000000000000000D+00 0.000000000000000D+00 0.548405450583342D+03
 0.636119247822872D+03 0.000000000000000D+00 0.000000000000000D+00 -.636119247822872D+03
 0.476205219557024D+03 0.182097632675832D+03 0.305847128568216D+02 0.429373016505087D+03
 0.572615482731690D+02 -.315001163333658D+02 0.412222121554282D+02 -.242354452535485D+02
 0.149707142282722D+03 -.885359766946862D+02 -.366386118212645D+02 -.115027046406434D+03
 0.319553515932099D+03 0.963354206172731D+02 -.188299843111352D+02 -.290110524845104D+03
 0.181797272361200D+03 -.158396960265053D+03 -.163383288798501D+02 -.877137972395298D+02
0.825718494587D-04 0.000000000000D+00 0.000000000000D+00 0.471812545612D-08 0.000000000000D+00  7 2 -2 23 -11 11 23 21 0 0.56986839D+00 0.10176810D-01 0.45409003D+05 0.45409003D+05 0.45409003D+05 0.11509928D+01  1  2  2  1  7  1        2 0.408201513627D-03 0.100000000000D+01
-.625285728134D-06 0.000000000000D+00 -.317097643589D-06 0.471812545612D-08 0.000000000000D+00  7 2 -2 23 -11 11 23 21 2 0.56986839D+00 0.10176810D-01 0.45409003D+05 0.45409003D+05 0.45409003D+05 0.11509928D+01  1  2  3  1  7  1        2 -.409511738733D-05 0.100000000000D+01
0.492798141970D-05 0.000000000000D+00 0.000000000000D+00 0.471812545612D-08 0.000000000000D+00  7 2 -2 23 -11 11 23 21 2 0.56986839D+00 0.10176810D-01 0.45409003D+05 0.45409003D+05 0.45409003D+05 0.11509928D+01  1  2 15  1  7  1        2 0.322743051508D-04 0.100000000000D+01
-.159215248653D-04 0.000000000000D+00 0.000000000000D+00 0.471812545612D-08 0.000000000000D+00  7 2 -2 23 -11 11 23 21 2 0.56986839D+00 0.10176810D-01 0.45409003D+05 0.45409003D+05 0.45409003D+05 0.11509928D+01  1  2  4  1  7  1        2 -.104273151258D-03 0.100000000000D+01
  </mgrwgt>
  </event>
  <event>
  8     66 0.29152272E-05 0.36084981E+03 0.75467711E-02 0.86356677E-01
        2 -1    0    0  501    0 0.00000000E+00 0.00000000E+00 0.22557474E+04 0.22557474E+04 0.32000000E+00 0.0000E+00 0.9000E+01
       -2 -1    0    0    0  501 0.00000000E+00 0.00000000E+00 -.11782597E+03 0.11782640E+03 0.32000000E+00 0.0000E+00 0.9000E+01
       25  2    1    2    0    0 -.76585036E+02 -.30380112E+03 0.19486494E+04 0.19963477E+04 0.30001553E+03 0.0000E+00 0.0000E+00
       23  2    3    3    0    0 0.44434387E+02 -.18530673E+03 0.13711844E+04 0.13876871E+04 0.95999623E+02 0.0000E+00 0.0000E+00
       23  1    1    2    0    0 0.76585036E+02 0.30380112E+03 0.18927204E+03 0.37722612E+03 0.91188000E+02 0.0000E+00 0.9000E+01
      -11  1    4    4    0    0 0.13050471E+02 -.16530422E+03 0.90851240E+03 0.92352075E+03 0.51099893E-03 0.0000E+00 0.9000E+01
       11  1    4    4    0    0 0.31383916E+02 -.20002506E+02 0.46267198E+03 0.46416637E+03 0.51099893E-03 0.0000E+00 0.9000E+01
       23  1    3    3    0    0 -.12101942E+03 -.11849439E+03 0.57746499E+03 0.60866057E+03 0.91188000E+02 0.0000E+00 0.9000E+01
#aMCatNLO 1  0  0  1  2 0.10432252D+04 0.00000000D+00  -5  7  0 0.00000000D+00 0.00000000D+00 0.00000000D+00 0.00000000D+00 0.00000000D+00
  <mgrwgt>
 0.4308871272D-03    5    2    0
 0.515544530707154D+03 0.000000000000000D+00 0.000000000000000D+00 0.515544530707154D+03
 0.515544530707154D+03 0.000000000000000D+00 0.000000000000000D+00 -.515544530707154D+03
 0.475929103100865D+03 0.765850361767783D+02 0.303801123421931D+03 -.346457601267122D+03
 0.242187185294025D+03 0.130504705604697D+02 -.165304224374579D+03 0.176518643045746D+03
 0.109182407900344D+03 0.313839161719976D+02 -.200025055971429D+02 0.102643790705831D+03
 0.203790365119073D+03 -.121019422909246D+03 -.118494393450210D+03 0.672951675155450D+02
 0.000000000000000D+00 -.000000000000000D+00 -.000000000000000D+00 0.000000000000000D+00
 0.134113203860706D+04 0.000000000000000D+00 0.000000000000000D+00 0.134113203860706D+04
 0.118108542317600D+04 0.000000000000000D+00 0.000000000000000D+00 -.118108542317600D+04
 0.985066566472659D+03 0.818044380445408D+02 0.913956264532764D+03 -.346457601267122D+03
 0.177395148833401D+03 0.145494269667294D+02 0.992580786902363D+01 0.176518643045746D+03
 0.135353022124048D+03 0.322575181318008D+02 0.821227456410655D+02 0.102643790705831D+03
 0.168972082123101D+03 -.119687730383466D+03 0.371822648278126D+02 0.672951675155450D+02
 0.105543064222985D+04 -.892365275960498D+01 -.104318708287067D+04 0.160046615431063D+03
0.278981986972D-04 0.000000000000D+00 0.000000000000D+00 0.109653600069D-06 0.000000000000D+00  7 2 -2 23 -11 11 23 21 0 0.34703809D+00 0.18127107D-01 0.13021258D+06 0.13021258D+06 0.13021258D+06 0.11124331D+01  1  2  2  1  7  1        2 0.423126920099D-03 0.100000000000D+01
-.131004866696D-05 0.000000000000D+00 -.107136428761D-06 0.109653600069D-06 0.000000000000D+00  7 2 -2 23 -11 11 23 21 2 0.34703809D+00 0.18127107D-01 0.13021258D+06 0.13021258D+06 0.13021258D+06 0.11124331D+01  1  2  3  1  7  1        2 -.245883707816D-04 0.100000000000D+01
0.172338680513D-05 0.000000000000D+00 0.000000000000D+00 0.109653600069D-06 0.000000000000D+00  7 2 -2 23 -11 11 23 21 2 0.34703809D+00 0.18127107D-01 0.13021258D+06 0.13021258D+06 0.13021258D+06 0.11124331D+01  1  2 15  1  7  1        2 0.323463355471D-04 0.100000000000D+01
0.452630658181D-05 0.000000000000D+00 -.619776486478D-05 0.109653600069D-06 0.000000000000D+00  7 2 -2 23 -11 11 23 21 2 0.93867938D+00 0.18127107D-01 0.13021258D+06 0.13021258D+06 0.13021258D+06 0.11124331D+01  1  2  5  1  7  1        2 0.224143516459D-08 0.100000000000D+01
0.862669055641D-06 0.000000000000D+00 -.688128297202D-06 0.109653600069D-06 0.000000000000D+00  7 21 -2 23 -11 11 23 -2 2 0.93867938D+00 0.18127107D-01 0.13021258D+06 0.13021258D+06 0.13021258D+06 0.11124331D+01  1  2  5  3  7  1        2 0.936478370715D-12 0.100000000000D+01
  </mgrwgt>
  </event>
  <event>
  8     66 0.29152272E-05 0.23859858E+03 0.75467711E-02 0.96946693E-01
        2 -1    0    0  501    0 0.00000000E+00 0.00000000E+00 0.11056229E+04 0.11056229E+04 0.32000000E+00 0.0000E+00 0.9000E+01
       -2 -1    0    0    0  501 0.00000000E+00 0.00000000E+00 -.76184236E+03 0.76184242E+03 0.32000000E+00 0.0000E+00 0.9000E+01
       25  2    1    2    0    0 0.32342739E+03 0.10994593E+03 -.66110936E+03 0.80218965E+03 0.29958181E+03 0.0000E+00 0.0000E+00
       23  2    3    3    0    0 0.29599558E+03 0.75890490E+02 -.34376288E+03 0.46911861E+03 0.92339597E+02 0.0000E+00 0.0000E+00
       23  1    1    2    0    0 -.32342739E+03 -.10994593E+03 0.10048899E+04 0.10652757E+04 0.91188000E+02 0.0000E+00 0.9000E+01
      -13  1    4    4    0    0 0.72120739E+02 0.61598286E+02 -.10557118E+03 0.14191911E+03 0.10565837E+00 0.0000E+00 0.9000E+01
       13  1    4    4    0    0 0.22387485E+03 0.14292204E+02 -.23819170E+03 0.32719950E+03 0.10565837E+00 0.0000E+00 0.9000E+01
       23  1    3    3    0    0 0.27431808E+02 0.34055444E+02 -.31734648E+03 0.33307104E+03 0.91188000E+02 0.0000E+00 0.9000E+01
#aMCatNLO 1  0  0  1  2 0.39973309D+02 0.00000000D+00  -5  7  0 0.00000000D+00 0.00000000D+00 0.00000000D+00 0.00000000D+00 0.00000000D+00
  <mgrwgt>
 0.6205099051D-03    6    2    0
 0.917774732025266D+03 0.000000000000000D+00 0.000000000000000D+00 0.917774732025266D+03
 0.917774732025266D+03 0.000000000000000D+00 0.000000000000000D+00 -.917774732025266D+03
 0.895592270559966D+03 -.323427392203031D+03 -.109945934334993D+03 0.822846812741416D+03
 0.164158929290747D+03 0.721205401247699D+02 0.615983480037634D+02 -.133986660833096D+03
 0.377499997862482D+03 0.223875044566003D+03 0.142921420435417D+02 -.303614801158559D+03
 0.398298266337337D+03 0.274318075122582D+02 0.340554442876875D+02 -.385245350749762D+03
 0.000000000000000D+00 0.000000000000000D+00 -.000000000000000D+00 -.000000000000000D+00
 0.934854527551498D+03 0.000000000000000D+00 0.000000000000000D+00 0.934854527551498D+03
 0.941682392093414D+03 0.000000000000000D+00 0.000000000000000D+00 -.941682392093414D+03
 0.902492659340573D+03 -.342849647012416D+03 -.107494144605059D+03 0.822846812741416D+03
 0.162807632427591D+03 0.685887670865557D+02 0.620441852635735D+02 -.133986660833096D+03
 0.372791477159723D+03 0.215770670869930D+03 0.153152065842236D+02 -.303614801158559D+03
 0.397892898865454D+03 0.188316421750152D+02 0.351410956323188D+02 -.385245350749762D+03
 0.405522518515724D+02 0.396585668809145D+02 -.500634287505654D+01 -.682786454191623D+01
0.246797851932D-03 0.000000000000D+00 0.000000000000D+00 0.277396692769D-05 0.000000000000D+00  7 2 -2 23 -13 13 23 21 0 0.17009584D+00 0.11720653D+00 0.14972003D+06 0.14972003D+06 0.14972003D+06 0.11076159D+01  1  2  2  1  7  1        2 0.394794383822D-03 0.100000000000D+01
-.127538593080D-05 0.000000000000D+00 -.947768734784D-06 0.277396692769D-05 0.000000000000D+00  7 2 -2 23 -13 13 23 21 2 0.17009584D+00 0.11720653D+00 0.14972003D+06 0.14972003D+06 0.14972003D+06 0.11076159D+01  1  2  3  1  7  1        2 -.250293516141D-05 0.100000000000D+01
0.149934504740D-04 0.000000000000D+00 0.000000000000D+00 0.277396692769D-05 0.000000000000D+00  7 2 -2 23 -13 13 23 21 2 0.17009584D+00 0.11720653D+00 0.14972003D+06 0.14972003D+06 0.14972003D+06 0.11076159D+01  1  2 15  1  7  1        2 0.294245321951D-04 0.100000000000D+01
0.340221516565D-03 0.000000000000D+00 0.000000000000D+00 0.277396692769D-05 0.000000000000D+00  7 2 -2 23 -13 13 23 21 2 0.17542826D+00 0.11720653D+00 0.16768766D+06 0.16768766D+06 0.16768766D+06 0.11037518D+01  1  2 12  1  7  1        2 0.628992408443D-03 0.100000000000D+01
-.222007474833D-03 0.000000000000D+00 0.000000000000D+00 0.277396692769D-05 0.000000000000D+00  7 2 -2 23 -13 13 23 21 2 0.17009584D+00 0.11720653D+00 0.14972003D+06 0.14972003D+06 0.14972003D+06 0.11076159D+01  1  2  4  1  7  1        2 -.435687976036D-03 0.100000000000D+01
0.513439631508D-05 0.000000000000D+00 0.000000000000D+00 0.277396692769D-05 0.000000000000D+00  7 21 -2 23 -13 13 23 -2 2 0.17542826D+00 0.11720653D+00 0.16768766D+06 0.16768766D+06 0.16768766D+06 0.11037518D+01  1  2 12  3  7  1        2 0.548949182774D-05 0.100000000000D+01
  </mgrwgt>
  </event>
  <event>
  8     66 0.29152272E-05 0.69020668E+03 0.75467711E-02 0.84576885E-01
        2 -1    0    0  501    0 0.00000000E+00 0.00000000E+00 0.13237288E+04 0.13237288E+04 0.32000000E+00 0.0000E+00 0.9000E+01
       -2 -1    0    0    0  501 0.00000000E+00 0.00000000E+00 -.42574821E+03 0.42574833E+03 0.32000000E+00 0.0000E+00 0.9000E+01
       25  2    1    2    0    0 -.63270948E+03 -.22618482E+03 0.17156835E+03 0.75576147E+03 0.30043108E+03 0.0000E+00 0.0000E+00
       23  2    3    3    0    0 -.19131896E+03 -.12786221E+03 0.15839767E+03 0.29426212E+03 0.92459093E+02 0.0000E+00 0.0000E+00
       23  1    1    2    0    0 0.63270948E+03 0.22618482E+03 0.72641220E+03 0.99371565E+03 0.91188000E+02 0.0000E+00 0.9000E+01
      -13  1    4    4    0    0 -.10601257E+03 -.27933806E+02 0.10695766E+03 0.15316304E+03 0.10565837E+00 0.0000E+00 0.9000E+01
       13  1    4    4    0    0 -.85306387E+02 -.99928406E+02 0.51440011E+02 0.14109909E+03 0.10565837E+00 0.0000E+00 0.9000E+01
       23  1    3    3    0    0 -.44139052E+03 -.98322613E+02 0.13170678E+02 0.46149935E+03 0.91188000E+02 0.0000E+00 0.9000E+01
#aMCatNLO 1  0  0  1  2 0.99594514D+03 0.00000000D+00  -5  7  0 0.00000000D+00 0.00000000D+00 0.00000000D+00 0.00000000D+00 0.00000000D+00
  <mgrwgt>
 0.4300836396D-03    5    2    0
 0.750716514244729D+03 0.000000000000000D+00 0.000000000000000D+00 0.750716514244729D+03
 0.750716514244729D+03 0.000000000000000D+00 0.000000000000000D+00 -.750716514244729D+03
 0.723428056146038D+03 0.632709483989762D+03 0.226184824865423D+03 0.252095289415020D+03
 0.114496808311736D+03 -.106012598811341D+03 -.279337115856645D+02 0.330235637672397D+02
 0.133644009699119D+03 -.853063602599976D+02 -.999284997913581D+02 -.244507905209273D+02
 0.529864154332564D+03 -.441390524918423D+03 -.983226134884005D+02 -.260668062661333D+03
 0.000000000000000D+00 0.000000000000000D+00 -.000000000000000D+00 0.000000000000000D+00
 0.140689852018617D+04 0.000000000000000D+00 0.000000000000000D+00 0.140689852018617D+04
 0.139089870871492D+04 0.000000000000000D+00 0.000000000000000D+00 -.139089870871492D+04
 0.906249397917192D+03 0.507496948175737D+03 0.701332683202731D+03 0.252095289415020D+03
 0.137398445996398D+03 -.125366393927547D+03 0.455087296234397D+02 0.330235637672397D+02
 0.110695388989867D+03 -.104079618509869D+03 -.286890396730167D+02 -.244507905209273D+02
 0.647380347164276D+03 -.531841410728995D+03 0.244914143104719D+03 -.260668062661333D+03
 0.996073648833350D+03 0.253790474990673D+03 -.963066516257873D+03 0.159998114712522D+02
0.974017708227D-04 0.000000000000D+00 0.000000000000D+00 0.865251420238D-06 0.000000000000D+00  7 2 -2 23 -13 13 23 21 0 0.20365059D+00 0.65499737D-01 0.47638526D+06 0.47638526D+06 0.47638526D+06 0.10699986D+01  1  2  2  1  7  1        2 0.425179792234D-03 0.100000000000D+01
-.536474544212D-05 0.000000000000D+00 -.374048446435D-06 0.865251420238D-06 0.000000000000D+00  7 2 -2 23 -13 13 23 21 2 0.20365059D+00 0.65499737D-01 0.47638526D+06 0.47638526D+06 0.47638526D+06 0.10699986D+01  1  2  3  1  7  1        2 -.268115098689D-04 0.100000000000D+01
0.634123229240D-05 0.000000000000D+00 0.000000000000D+00 0.865251420238D-06 0.000000000000D+00  7 2 -2 23 -13 13 23 21 2 0.20365059D+00 0.65499737D-01 0.47638526D+06 0.47638526D+06 0.47638526D+06 0.10699986D+01  1  2 15  1  7  1        2 0.316917203292D-04 0.100000000000D+01
-.160989094923D-07 0.000000000000D+00 -.261271968276D-04 0.865251420238D-06 0.000000000000D+00  7 2 -2 23 -13 13 23 21 2 0.49917398D+00 0.65499737D-01 0.47638526D+06 0.47638526D+06 0.47638526D+06 0.10699986D+01  1  2  5  1  7  1        2 -.608794333648D-08 0.100000000000D+01
0.162816586370D-05 0.000000000000D+00 -.257062035512D-05 0.865251420238D-06 0.000000000000D+00  7 21 -2 23 -13 13 23 -2 2 0.49917398D+00 0.65499737D-01 0.47638526D+06 0.47638526D+06 0.47638526D+06 0.10699986D+01  1  2  5  3  7  1        2 0.297248073361D-07 0.100000000000D+01
  </mgrwgt>
  </event>
  <event>
  8     66 0.29152272E-05 0.73384651E+03 0.75467711E-02 0.88522016E-01
        2 -1    0    0  501    0 0.00000000E+00 0.00000000E+00 0.79977699E+03 0.79977706E+03 0.32000000E+00 0.0000E+00 0.9000E+01
       -2 -1    0    0    0  501 0.00000000E+00 0.00000000E+00 -.69650993E+03 0.69651001E+03 0.32000000E+00 0.0000E+00 0.9000E+01
       25  2    1    2    0    0 0.52477114E+03 -.47206223E+03 0.15661604E+03 0.78257223E+03 0.29943816E+03 0.0000E+00 0.0000E+00
       23  2    3    3    0    0 0.36812507E+03 -.42434406E+03 0.60671048E+02 0.57201177E+03 0.89064785E+02 0.0000E+00 0.0000E+00
       23  1    1    2    0    0 -.52477114E+03 0.47206223E+03 -.53348977E+02 0.71371484E+03 0.91188000E+02 0.0000E+00 0.9000E+01
      -11  1    4    4    0    0 0.15682075E+03 -.24751108E+03 0.39587258E+02 0.29567150E+03 0.51099893E-03 0.0000E+00 0.9000E+01
       11  1    4    4    0    0 0.21130432E+03 -.17683298E+03 0.21083790E+02 0.27634027E+03 0.51099893E-03 0.0000E+00 0.9000E+01
       23  1    3    3    0    0 0.15664608E+03 -.47718166E+02 0.95944988E+02 0.21056046E+03 0.91188000E+02 0.0000E+00 0.9000E+01
#aMCatNLO 1  0  0  1  1 0.28310615D+03 0.00000000D+00  -5  7  0 0.00000000D+00 0.00000000D+00 0.00000000D+00 0.00000000D+00 0.00000000D+00
  <mgrwgt>
 0.4947914112D-03    4    2    0
 0.746359648011940D+03 0.000000000000000D+00 0.000000000000000D+00 0.746359648011940D+03
 0.746359648011940D+03 0.000000000000000D+00 0.000000000000000D+00 -.746359648011940D+03
 0.719111403743762D+03 -.524771142740983D+03 0.472062230030593D+03 -.102851632827054D+03
 0.293639519870762D+03 0.156820746953054D+03 -.247511083901265D+03 0.192271761067109D+02
 0.275542167354525D+03 0.211304319457267D+03 -.176832980471282D+03 0.201682591562195D+01
 0.204426205054831D+03 0.156646076330662D+03 -.477181656580459D+02 0.816076308047210D+02
 0.000000000000000D+00 -.000000000000000D+00 0.000000000000000D+00 -.000000000000000D+00
 0.807042008694502D+03 0.000000000000000D+00 0.000000000000000D+00 0.807042008694502D+03
 0.118259145936836D+04 0.000000000000000D+00 0.000000000000000D+00 -.118259145936836D+04
 0.624196934310964D+03 -.399105972334718D+03 0.459828800675615D+03 -.102851632827054D+03
 0.333024683512746D+03 0.215444565234220D+03 -.253218077630260D+03 0.192271761067109D+02
 0.323590554505602D+03 0.267352594790353D+03 -.182289246631101D+03 0.201682591562195D+01
 0.238516623929513D+03 0.198082941202026D+03 -.517520197280063D+02 0.816076308047210D+02
 0.470304671804037D+03 -.281774128891882D+03 0.274305433137522D+02 -.375549450673859D+03
0.182719923912D-03 0.000000000000D+00 0.000000000000D+00 0.308343887585D-06 0.000000000000D+00  7 2 -2 23 -11 11 23 21 0 0.12304262D+00 0.10715539D+00 0.53853070D+06 0.53853070D+06 0.53853070D+06 0.10662392D+01  1  2  2  1  7  1        2 0.540379277722D-03 0.100000000000D+01
-.101475785975D-04 0.000000000000D+00 -.701692619082D-06 0.308343887585D-06 0.000000000000D+00  7 2 -2 23 -11 11 23 21 2 0.12304262D+00 0.10715539D+00 0.53853070D+06 0.53853070D+06 0.53853070D+06 0.10662392D+01  1  2  3  1  7  1        2 -.341180761168D-04 0.100000000000D+01
0.115090273439D-04 0.000000000000D+00 0.000000000000D+00 0.308343887585D-06 0.000000000000D+00  7 2 -2 23 -11 11 23 21 2 0.12304262D+00 0.10715539D+00 0.53853070D+06 0.53853070D+06 0.53853070D+06 0.10662392D+01  1  2 15  1  7  1        2 0.386955239792D-04 0.100000000000D+01
-.149204330547D-04 0.000000000000D+00 0.000000000000D+00 0.308343887585D-06 0.000000000000D+00  7 2 -2 23 -11 11 23 21 2 0.12304262D+00 0.10715539D+00 0.53853070D+06 0.53853070D+06 0.53853070D+06 0.10662392D+01  1  2  4  1  7  1        2 -.501653143916D-04 0.100000000000D+01
  </mgrwgt>
  </event>
  <event>
  8     66 0.29152272E-05 0.87066642E+03 0.75467711E-02 0.85164258E-01
        2 -1    0    0  501    0 0.00000000E+00 0.00000000E+00 0.32745130E+04 0.32745130E+04 0.32000000E+00 0.0000E+00 0.9000E+01
       -2 -1    0    0    0  501 0.00000000E+00 0.00000000E+00 -.25501907E+03 0.25501927E+03 0.32000000E+00 0.0000E+00 0.9000E+01
       25  2    1    2    0    0 -.69684558E+03 -.48321224E+03 0.10439061E+04 0.13777074E+04 0.29874717E+03 0.0000E+00 0.0000E+00
       23  2    3    3    0    0 -.51225484E+03 -.43599466E+03 0.87373979E+03 0.11064601E+04 0.91304211E+02 0.0000E+00 0.0000E+00
       23  1    1    2    0    0 0.69684558E+03 0.48321224E+03 0.19755879E+04 0.21518249E+04 0.91188000E+02 0.0000E+00 0.9000E+01
      -11  1    4    4    0    0 -.17017916E+01 -.16076057E+02 0.34789296E+02 0.38361841E+02 0.51099893E-03 0.0000E+00 0.9000E+01
       11  1    4    4    0    0 -.51055305E+03 -.41991861E+03 0.83895050E+03 0.10680983E+04 0.51099893E-03 0.0000E+00 0.9000E+01
       23  1    3    3    0    0 -.18459074E+03 -.47217574E+02 0.17016627E+03 0.27124722E+03 0.91188000E+02 0.0000E+00 0.9000E+01
#aMCatNLO 1  0  0  1  1 0.67401278D+03 0.00000000D+00  -5  7  0 0.00000000D+00 0.00000000D+00 0.00000000D+00 0.00000000D+00 0.00000000D+00
  <mgrwgt>
 0.6081109874D-03    6    2    0
 0.913818165287189D+03 0.000000000000000D+00 0.000000000000000D+00 0.913818165287189D+03
 0.913818165287189D+03 0.000000000000000D+00 0.000000000000000D+00 -.913818165287189D+03
 0.891676281864923D+03 0.696845580638214D+03 0.483212237880292D+03 0.260160546978523D+03
 0.166079466421963D+02 -.170179156934167D+01 -.160760567502386D+02 0.380633636028950D+01
 0.676656233242238D+03 -.510553046987387D+03 -.419918607267766D+03 -.144456247589947D+03
 0.242695868825021D+03 -.184590742081485D+03 -.472175738622872D+02 -.119510635748866D+03
 0.000000000000000D+00 -.000000000000000D+00 -.000000000000000D+00 0.000000000000000D+00
 0.136422454188189D+04 0.000000000000000D+00 0.000000000000000D+00 0.136422454188189D+04
 0.126501104001898D+04 0.000000000000000D+00 0.000000000000000D+00 -.126501104001898D+04
 0.126076656488217D+04 0.983485289368433D+03 0.739114507483464D+03 0.260160546978523D+03
 0.132847979806560D+02 0.227900988366339D+01 -.125221314020156D+02 0.380633636028950D+01
 0.477613609983703D+03 -.356839524624471D+03 -.282688356038372D+03 -.144456247589947D+03
 0.196294931075701D+03 -.126130562658392D+03 0.497370368976489D+01 -.119510635748866D+03
 0.681275677978629D+03 -.502794211969232D+03 -.448877723732841D+03 0.992135018629114D+02
0.472648486606D-03 0.000000000000D+00 0.000000000000D+00 0.922193069450D-06 0.000000000000D+00  7 2 -2 23 -11 11 23 21 0 0.50377125D+00 0.39233719D-01 0.75806001D+06 0.75806001D+06 0.75806001D+06 0.10559668D+01  1  2  2  1  7  1        2 0.401848780848D-03 0.100000000000D+01
-.261835445827D-04 0.000000000000D+00 -.181509463977D-05 0.922193069450D-06 0.000000000000D+00  7 2 -2 23 -11 11 23 21 2 0.50377125D+00 0.39233719D-01 0.75806001D+06 0.75806001D+06 0.75806001D+06 0.10559668D+01  1  2  3  1  7  1        2 -.248229477238D-04 0.100000000000D+01
0.293084797913D-04 0.000000000000D+00 0.000000000000D+00 0.922193069450D-06 0.000000000000D+00  7 2 -2 23 -11 11 23 21 2 0.50377125D+00 0.39233719D-01 0.75806001D+06 0.75806001D+06 0.75806001D+06 0.10559668D+01  1  2 15  1  7  1        2 0.277854993783D-04 0.100000000000D+01
-.185183487703D-03 0.000000000000D+00 -.100329643229D-03 0.922193069450D-06 0.000000000000D+00  7 2 -2 23 -11 11 23 21 2 0.78573081D+00 0.39233719D-01 0.75806001D+06 0.75806001D+06 0.75806001D+06 0.10559668D+01  1  2  5  1  7  1        2 -.336367934746D-05 0.100000000000D+01
0.217991598813D-03 0.000000000000D+00 0.916728246148D-04 0.922193069450D-06 0.000000000000D+00  7 2 -2 23 -11 11 23 21 2 0.50377125D+00 0.39233719D-01 0.75806001D+06 0.75806001D+06 0.75806001D+06 0.10559668D+01  1  2  6  1  7  1        2 0.206663923766D-03 0.100000000000D+01
-.560243275857D-05 0.000000000000D+00 -.516528629780D-05 0.922193069450D-06 0.000000000000D+00  7 21 -2 23 -11 11 23 -2 2 0.78573081D+00 0.39233719D-01 0.75806001D+06 0.75806001D+06 0.75806001D+06 0.10559668D+01  1  2  5  3  7  1        2 -.589471930536D-09 0.100000000000D+01
  </mgrwgt>
  </event>
  <event>
  8     66 0.29152272E-05 0.24799167E+03 0.75467711E-02 0.95857159E-01
        2 -1    0    0  501    0 0.00000000E+00 0.00000000E+00 0.81889843E+03 0.81889850E+03 0.32000000E+00 0.0000E+00 0.9000E+01
       -2 -1    0    0    0  501 0.00000000E+00 0.00000000E+00 -.10299577E+04 0.10299577E+04 0.32000000E+00 0.0000E+00 0.9000E+01
       25  2    1    2    0    0 0.11423457E+03 -.36296363E+03 -.91958830E+03 0.10394609E+04 0.30007361E+03 0.0000E+00 0.0000E+00
       23  2    3    3    0    0 0.25057907E+02 -.31611371E+03 -.76859683E+03 0.83633269E+03 0.90307810E+02 0.0000E+00 0.0000E+00
       23  1    1    2    0    0 -.11423457E+03 0.36296363E+03 0.70852905E+03 0.80939533E+03 0.91188000E+02 0.0000E+00 0.9000E+01
      -11  1    4    4    0    0 -.45178581E+01 -.27330441E+03 -.68897755E+03 0.74121912E+03 0.51099893E-03 0.0000E+00 0.9000E+01
       11  1    4    4    0    0 0.29575765E+02 -.42809294E+02 -.79619280E+02 0.95113570E+02 0.51099893E-03 0.0000E+00 0.9000E+01
       23  1    3    3    0    0 0.89176666E+02 -.46849920E+02 -.15099147E+03 0.20312821E+03 0.91188000E+02 0.0000E+00 0.9000E+01
#aMCatNLO 1  0  0  2  1 0.47034580D+02 0.00000000D+00  -5  7  0 0.00000000D+00 0.00000000D+00 0.00000000D+00 0.00000000D+00 0.00000000D+00
  <mgrwgt>
 0.7697344083D-03    9    2    0
 0.918384905468701D+03 0.000000000000000D+00 0.000000000000000D+00 0.918384905468701D+03
 0.918384905468701D+03 0.000000000000000D+00 0.000000000000000D+00 -.918384905468701D+03
 0.896136902174878D+03 -.114234573226097D+03 0.362963626384301D+03 0.806197224193556D+03
 0.666927607383666D+03 -.451785805493491D+01 -.273304412930138D+03 -.608339313477280D+03
 0.865905626815944D+02 0.295757652817795D+02 -.428092936531235D+02 -.692139005578566D+02
 0.187114738697264D+03 0.891766659992526D+02 -.468499198010398D+02 -.128644010158419D+03
 0.000000000000000D+00 -.000000000000000D+00 0.000000000000000D+00 -.000000000000000D+00
 0.929469666033385D+03 0.000000000000000D+00 0.000000000000000D+00 0.929469666033385D+03
 0.969972880219103D+03 0.000000000000000D+00 0.000000000000000D+00 -.969972880219103D+03
 0.886703950790758D+03 -.106100741388114D+03 0.341639156689388D+03 0.806197224193556D+03
 0.673644035748579D+03 0.159821466903708D+01 -.289338922869867D+03 -.608339313477280D+03
 0.879131060080401D+02 0.303719011196315D+02 -.448965232498838D+02 -.692139005578566D+02
 0.189110832256805D+03 0.908931150710804D+02 -.513499349161950D+02 -.128644010158419D+03
 0.620706214483052D+02 -.167624894716346D+02 0.439462243465578D+02 -.405032141857180D+02
0.371496178461D-03 0.000000000000D+00 0.000000000000D+00 0.693082465012D-05 0.000000000000D+00  7 2 -2 23 -11 11 23 21 0 0.12598438D+00 0.15845504D+00 0.18170644D+06 0.18170644D+06 0.18170644D+06 0.11010394D+01  1  2  2  2  7  2       -2 0.399691310538D-03 0.100000000000D+01
-.585547526026D-05 0.000000000000D+00 -.142664314248D-05 0.693082465012D-05 0.000000000000D+00  7 2 -2 23 -11 11 23 21 2 0.12598438D+00 0.15845504D+00 0.18170644D+06 0.18170644D+06 0.18170644D+06 0.11010394D+01  1  2  3  2  7  2       -2 -.763727088853D-05 0.100000000000D+01
0.216467003179D-04 0.000000000000D+00 0.000000000000D+00 0.693082465012D-05 0.000000000000D+00  7 2 -2 23 -11 11 23 21 2 0.12598438D+00 0.15845504D+00 0.18170644D+06 0.18170644D+06 0.18170644D+06 0.11010394D+01  1  2 15  2  7  2       -2 0.282336969798D-04 0.100000000000D+01
0.161095332431D-02 0.000000000000D+00 0.000000000000D+00 0.693082465012D-05 0.000000000000D+00  7 2 -2 23 -11 11 23 21 2 0.12598438D+00 0.16827785D+00 0.20176739D+06 0.20176739D+06 0.20176739D+06 0.10975320D+01  1  2 12  2  7  2       -2 0.175022243593D-02 0.100000000000D+01
-.162880871805D-02 0.000000000000D+00 0.000000000000D+00 0.693082465012D-05 0.000000000000D+00  7 2 -2 23 -11 11 23 21 2 0.12598438D+00 0.15845504D+00 0.18170644D+06 0.18170644D+06 0.18170644D+06 0.11010394D+01  1  2  4  2  7  2       -2 -.212444811948D-02 0.100000000000D+01
-.425045510030D-02 0.000000000000D+00 -.692313183866D-03 0.693082465012D-05 0.000000000000D+00  7 2 -2 23 -11 11 23 21 2 0.12598438D+00 0.16843477D+00 0.18170644D+06 0.18170644D+06 0.18170644D+06 0.11010394D+01  1  2  5  2  7  2       -2 -.466117536904D-02 0.100000000000D+01
0.428603232666D-02 0.000000000000D+00 0.691023857903D-03 0.693082465012D-05 0.000000000000D+00  7 2 -2 23 -11 11 23 21 2 0.12598438D+00 0.15845504D+00 0.18170644D+06 0.18170644D+06 0.18170644D+06 0.11010394D+01  1  2  6  2  7  2       -2 0.559025330323D-02 0.100000000000D+01
0.216860105608D-04 0.000000000000D+00 0.000000000000D+00 0.693082465012D-05 0.000000000000D+00  7 2 21 23 -11 11 23 2 2 0.12598438D+00 0.16827785D+00 0.20176739D+06 0.20176739D+06 0.20176739D+06 0.10975320D+01  1  2 12  4  7  2       -2 0.197952540626D-03 0.100000000000D+01
-.436189432569D-04 0.000000000000D+00 -.725061618345D-05 0.693082465012D-05 0.000000000000D+00  7 2 21 23 -11 11 23 2 2 0.12598438D+00 0.16843477D+00 0.18170644D+06 0.18170644D+06 0.18170644D+06 0.11010394D+01  1  2  5  4  7  2       -2 -.403358119622D-03 0.100000000000D+01
  </mgrwgt>
  </event>
  <event>
  8     66 0.29152272E-05 0.13729845E+03 0.75467711E-02 0.10393325E+00
        2 -1    0    0  501    0 0.00000000E+00 0.00000000E+00 0.49170113E+03 0.49170124E+03 0.32000000E+00 0.0000E+00 0.9000E+01
       -2 -1    0    0    0  501 0.00000000E+00 0.00000000E+00 -.14152841E+03 0.14152878E+03 0.32000000E+00 0.0000E+00 0.9000E+01
       25  2    1    2    0    0 -.20450794E+02 -.16116030E+03 0.21353416E+03 0.40219707E+03 0.29962437E+03 0.0000E+00 0.0000E+00
       23  2    3    3    0    0 -.13584883E+02 -.98129346E+02 0.25083103E+03 0.28503756E+03 0.92283747E+02 0.0000E+00 0.0000E+00
       23  1    1    2    0    0 0.20450794E+02 0.16116030E+03 0.13663855E+03 0.23103294E+03 0.91188000E+02 0.0000E+00 0.9000E+01
      -13  1    4    4    0    0 0.54232304E+01 -.53485474E+02 0.35774356E+02 0.64574942E+02 0.10565837E+00 0.0000E+00 0.9000E+01
       13  1    4    4    0    0 -.19008113E+02 -.44643871E+02 0.21505667E+03 0.22046262E+03 0.10565837E+00 0.0000E+00 0.9000E+01
       23  1    3    3    0    0 -.68659107E+01 -.63030950E+02 -.37296867E+02 0.11715950E+03 0.91188000E+02 0.0000E+00 0.9000E+01
#aMCatNLO 1  0  0  2  1 0.63231096D+02 0.00000000D+00  -5  7  0 0.00000000D+00 0.00000000D+00 0.00000000D+00 0.00000000D+00 0.00000000D+00
  <mgrwgt>
 0.3343827448D-03    9    2    0
 0.263798841805881D+03 0.000000000000000D+00 0.000000000000000D+00 0.263798841805881D+03
 0.263798841805881D+03 0.000000000000000D+00 0.000000000000000D+00 -.263798841805881D+03
 0.186600328532074D+03 0.204507938793242D+02 0.161160296556519D+03 0.106562238995809D+02
 0.537597886939714D+02 0.542326200187519D+01 -.534854848479223D+02 0.775903483393847D-01
 0.121866751692233D+03 -.190081450217133D+02 -.446438607519687D+02 0.111790524142293D+03
 0.165370814693484D+03 -.686591085948608D+01 -.630309509566281D+02 -.122524338390213D+03
 0.000000000000000D+00 0.000000000000000D+00 0.000000000000000D+00 -.000000000000000D+00
 0.286363571927934D+03 0.000000000000000D+00 0.000000000000000D+00 0.286363571927934D+03
 0.314027488784838D+03 0.000000000000000D+00 0.000000000000000D+00 -.314027488784838D+03
 0.180655628451087D+03 -.757778785511316D+00 0.155586231429942D+03 0.106562238995809D+02
 0.551452551368000D+02 -.865868212989969D+00 -.551384023714719D+02 0.775903483393847D-01
 0.126302109475888D+03 -.333395866910853D+02 -.484104692119182D+02 0.111790524142293D+03
 0.169270215993455D+03 -.261910122799236D+02 -.681099996789324D+02 -.122524338390213D+03
 0.690178516555427D+02 0.611542459695102D+02 0.160726398323808D+02 -.276639168569041D+02
0.196483147768D-05 0.000000000000D+00 0.000000000000D+00 0.101760053824D-06 0.000000000000D+00  7 2 -2 23 -13 13 23 21 0 0.75646364D-01 0.21773638D-01 0.39928411D+05 0.39928411D+05 0.39928411D+05 0.11559884D+01  1  2  2  2  7  2       -2 0.257688374217D-03 0.100000000000D+01
-.989175439676D-07 0.000000000000D+00 -.754547022628D-08 0.101760053824D-06 0.000000000000D+00  7 2 -2 23 -13 13 23 21 2 0.75646364D-01 0.21773638D-01 0.39928411D+05 0.39928411D+05 0.39928411D+05 0.11559884D+01  1  2  3  2  7  2       -2 -.173360359477D-04 0.100000000000D+01
0.126175287134D-06 0.000000000000D+00 0.000000000000D+00 0.101760053824D-06 0.000000000000D+00  7 2 -2 23 -13 13 23 21 2 0.75646364D-01 0.21773638D-01 0.39928411D+05 0.39928411D+05 0.39928411D+05 0.11559884D+01  1  2 15  2  7  2       -2 0.221131583511D-04 0.100000000000D+01
0.187398280476D-05 0.000000000000D+00 0.000000000000D+00 0.101760053824D-06 0.000000000000D+00  7 2 -2 23 -13 13 23 21 2 0.75646364D-01 0.26713879D-01 0.56237446D+05 0.56237446D+05 0.56237446D+05 0.11428315D+01  1  2 12  2  7  2       -2 0.227887303328D-03 0.100000000000D+01
-.197586405763D-05 0.000000000000D+00 0.000000000000D+00 0.101760053824D-06 0.000000000000D+00  7 2 -2 23 -13 13 23 21 2 0.75646364D-01 0.21773638D-01 0.39928411D+05 0.39928411D+05 0.39928411D+05 0.11559884D+01  1  2  4  2  7  2       -2 -.346284884934D-03 0.100000000000D+01
-.356779781775D-05 0.000000000000D+00 -.117066869095D-05 0.101760053824D-06 0.000000000000D+00  7 2 -2 23 -13 13 23 21 2 0.75646364D-01 0.27980127D-01 0.39928411D+05 0.39928411D+05 0.39928411D+05 0.11559884D+01  1  2  5  2  7  2       -2 -.409976664241D-03 0.100000000000D+01
0.377783756865D-05 0.000000000000D+00 0.113479318492D-05 0.101760053824D-06 0.000000000000D+00  7 2 -2 23 -13 13 23 21 2 0.75646364D-01 0.21773638D-01 0.39928411D+05 0.39928411D+05 0.39928411D+05 0.11559884D+01  1  2  6  2  7  2       -2 0.662094157090D-03 0.100000000000D+01
0.545451074531D-07 0.000000000000D+00 0.000000000000D+00 0.101760053824D-06 0.000000000000D+00  7 2 21 23 -13 13 23 2 2 0.75646364D-01 0.26713879D-01 0.56237446D+05 0.56237446D+05 0.56237446D+05 0.11428315D+01  1  2 12  4  7  2       -2 0.817351762681D-04 0.100000000000D+01
-.101307455174D-06 0.000000000000D+00 -.397120437853D-07 0.101760053824D-06 0.000000000000D+00  7 2 21 23 -13 13 23 2 2 0.75646364D-01 0.27980127D-01 0.39928411D+05 0.39928411D+05 0.39928411D+05 0.11559884D+01  1  2  5  4  7  2       -2 -.143537839314D-03 0.100000000000D+01
  </mgrwgt>
  </event>
  <event>
  8     66 0.29152272E-05 0.11194910E+03 0.75467711E-02 0.10083721E+00
        2 -1    0    0  501    0 0.00000000E+00 0.00000000E+00 0.27719120E+03 0.27719139E+03 0.32000000E+00 0.0000E+00 0.9000E+01
       -2 -1    0    0    0  501 0.00000000E+00 0.00000000E+00 -.43988650E+03 0.43988662E+03 0.32000000E+00 0.0000E+00 0.9000E+01
       25  2    1    2    0    0 0.12960056E+02 -.16626190E+03 0.13070335E+03 0.36749397E+03 0.30026233E+03 0.0000E+00 0.0000E+00
       23  2    3    3    0    0 0.36123597E+02 0.49279481E+02 0.39543221E+02 0.11526381E+03 0.89379510E+02 0.0000E+00 0.0000E+00
       23  1    1    2    0    0 -.12960056E+02 0.16626190E+03 -.29339865E+03 0.34958404E+03 0.91188000E+02 0.0000E+00 0.9000E+01
      -11  1    4    4    0    0 0.24180965E+02 -.19600703E+02 0.32500511E+02 0.45002109E+02 0.51099893E-03 0.0000E+00 0.9000E+01
       11  1    4    4    0    0 0.11942632E+02 0.68880184E+02 0.70427102E+01 0.70261696E+02 0.51099893E-03 0.0000E+00 0.9000E+01
       23  1    3    3    0    0 -.23163541E+02 -.21554138E+03 0.91160125E+02 0.25223016E+03 0.91188000E+02 0.0000E+00 0.9000E+01
#aMCatNLO 1  0  0  2  1 0.65719003D+02 0.00000000D+00  -5  7  0 0.00000000D+00 0.00000000D+00 0.00000000D+00 0.00000000D+00 0.00000000D+00
  <mgrwgt>
 0.4819683757D-03    9    2    0
 0.349188738855681D+03 0.000000000000000D+00 0.000000000000000D+00 0.349188738855681D+03
 0.349188738855681D+03 0.000000000000000D+00 0.000000000000000D+00 -.349188738855681D+03
 0.290594195772440D+03 -.129600561840069D+02 0.166261895314880D+03 -.219815273315215D+03
 0.537785139806385D+02 0.241809652967678D+02 -.196007025718449D+02 0.438545544039876D+02
 0.737837832507085D+02 0.119426321600795D+02 0.688801835274316D+02 0.235995873926622D+02
 0.280220984707575D+03 -.231635412728404D+02 -.215541376270466D+03 0.152361131518565D+03
 0.000000000000000D+00 -.000000000000000D+00 -.000000000000000D+00 -.000000000000000D+00
 0.365453801950295D+03 0.000000000000000D+00 0.000000000000000D+00 0.365453801950295D+03
 0.424071860225110D+03 0.000000000000000D+00 0.000000000000000D+00 -.424071860225110D+03
 0.306279487206067D+03 -.385953363761117D+01 0.192764681818711D+03 -.219815273315215D+03
 0.530106108110010D+02 0.258091772042296D+02 -.148589800667403D+02 0.438545544039876D+02
 0.806051736036970D+02 0.142965978698034D+02 0.757354657734892D+02 0.235995873926622D+02
 0.261567548979742D+03 -.149029010288348D+02 -.191484517594967D+03 0.152361131518565D+03
 0.880628415748985D+02 -.213433404075870D+02 -.621566499304937D+02 -.586180582748148D+02
0.119101834637D-04 0.000000000000D+00 0.000000000000D+00 0.241594808867D-06 0.000000000000D+00  7 2 -2 23 -11 11 23 21 0 0.42644823D-01 0.67674870D-01 0.69243887D+05 0.69243887D+05 0.69243887D+05 0.11350608D+01  1  2  2  2  7  2       -2 0.357492540011D-03 0.100000000000D+01
-.597282610450D-06 0.000000000000D+00 -.457382405239D-07 0.241594808867D-06 0.000000000000D+00  7 2 -2 23 -11 11 23 21 2 0.42644823D-01 0.67674870D-01 0.69243887D+05 0.69243887D+05 0.69243887D+05 0.11350608D+01  1  2  3  2  7  2       -2 -.230975890942D-04 0.100000000000D+01
0.727479759640D-06 0.000000000000D+00 0.000000000000D+00 0.241594808867D-06 0.000000000000D+00  7 2 -2 23 -11 11 23 21 2 0.42644823D-01 0.67674870D-01 0.69243887D+05 0.69243887D+05 0.69243887D+05 0.11350608D+01  1  2 15  2  7  2       -2 0.281324590211D-04 0.100000000000D+01
0.201582323170D-04 0.000000000000D+00 0.000000000000D+00 0.241594808867D-06 0.000000000000D+00  7 2 -2 23 -11 11 23 21 2 0.42644823D-01 0.83523546D-01 0.89539948D+05 0.89539948D+05 0.89539948D+05 0.11256810D+01  1  2 12  2  7  2       -2 0.482720410645D-03 0.100000000000D+01
-.210638449576D-04 0.000000000000D+00 0.000000000000D+00 0.241594808867D-06 0.000000000000D+00  7 2 -2 23 -11 11 23 21 2 0.42644823D-01 0.67674870D-01 0.69243887D+05 0.69243887D+05 0.69243887D+05 0.11350608D+01  1  2  4  2  7  2       -2 -.814562532144D-03 0.100000000000D+01
-.318950513757D-04 0.000000000000D+00 -.736583636335D-05 0.241594808867D-06 0.000000000000D+00  7 2 -2 23 -11 11 23 21 2 0.42644823D-01 0.84859369D-01 0.69243887D+05 0.69243887D+05 0.69243887D+05 0.11350608D+01  1  2  5  2  7  2       -2 -.752387489577D-03 0.100000000000D+01
0.329005304964D-04 0.000000000000D+00 0.718120151562D-05 0.241594808867D-06 0.000000000000D+00  7 2 -2 23 -11 11 23 21 2 0.42644823D-01 0.67674870D-01 0.69243887D+05 0.69243887D+05 0.69243887D+05 0.11350608D+01  1  2  6  2  7  2       -2 0.127230045056D-02 0.100000000000D+01
0.599654073490D-06 0.000000000000D+00 0.000000000000D+00 0.241594808867D-06 0.000000000000D+00  7 2 21 23 -11 11 23 2 2 0.42644823D-01 0.83523546D-01 0.89539948D+05 0.89539948D+05 0.89539948D+05 0.11256810D+01  1  2 12  4  7  2       -2 0.141935048706D-03 0.100000000000D+01
-.897676907130D-06 0.000000000000D+00 -.231472947696D-06 0.241594808867D-06 0.000000000000D+00  7 2 21 23 -11 11 23 2 2 0.42644823D-01 0.84859369D-01 0.69243887D+05 0.69243887D+05 0.69243887D+05 0.11350608D+01  1  2  5  4  7  2       -2 -.210564922378D-03 0.100000000000D+01
  </mgrwgt>
  </event>
  <event>
  8     66 0.29152272E-05 0.22082806E+03 0.75467711E-02 0.99862513E-01
        2 -1    0    0  501    0 0.00000000E+00 0.00000000E+00 0.87265763E+03 0.87265769E+03 0.32000000E+00 0.0000E+00 0.9000E+01
       -2 -1    0    0    0  501 0.00000000E+00 0.00000000E+00 -.69034185E+02 0.69034926E+02 0.32000000E+00 0.0000E+00 0.9000E+01
       25  2    1    2    0    0 -.16348740E+02 -.12917556E+03 0.47201012E+03 0.57394779E+03 0.29944767E+03 0.0000E+00 0.0000E+00
       23  2    3    3    0    0 0.80115850E+02 -.60695422E+02 0.86154502E+02 0.16019091E+03 0.90200036E+02 0.0000E+00 0.0000E+00
       23  1    1    2    0    0 0.16348740E+02 0.12917556E+03 0.33161333E+03 0.36774483E+03 0.91188000E+02 0.0000E+00 0.9000E+01
      -13  1    4    4    0    0 -.19042307E+02 -.14514852E+02 0.62982878E+01 0.24758231E+02 0.10565837E+00 0.0000E+00 0.9000E+01
       13  1    4    4    0    0 0.99158157E+02 -.46180570E+02 0.79856215E+02 0.13543268E+03 0.10565837E+00 0.0000E+00 0.9000E+01
       23  1    3    3    0    0 -.96464589E+02 -.68480137E+02 0.38585561E+03 0.41375688E+03 0.91188000E+02 0.0000E+00 0.9000E+01
#aMCatNLO 1  0  0  2  2 0.17663621D+03 0.00000000D+00  -5  7  0 0.00000000D+00 0.00000000D+00 0.00000000D+00 0.00000000D+00 0.00000000D+00
  <mgrwgt>
 0.6158189630D-03    3    2    0
 0.245445686306935D+03 0.000000000000000D+00 0.000000000000000D+00 0.245445686306935D+03
 0.245445686306935D+03 0.000000000000000D+00 0.000000000000000D+00 -.245445686306935D+03
 0.162582492101936D+03 0.163487397803013D+02 0.129175561247774D+03 0.341204993807943D+02
 0.371836422700108D+02 -.190424684634408D+02 -.145148091469216D+02 -.284486899999180D+02
 0.129074770739420D+03 0.991583173733489D+02 -.461806140469978D+02 -.685220798236770D+02
 0.162050467502502D+03 -.964645886902093D+02 -.684801380538547D+02 0.628502704428006D+02
 0.000000000000000D+00 0.000000000000000D+00 -.000000000000000D+00 0.000000000000000D+00
 0.601933032210959D+03 0.000000000000000D+00 0.000000000000000D+00 0.601933032210959D+03
 0.283720530361872D+03 0.000000000000000D+00 0.000000000000000D+00 -.283720530361872D+03
 0.189818621620730D+03 -.376594521169917D+02 0.158535216776107D+03 0.341204993807943D+02
 0.430431247335946D+02 -.313378400128056D+02 -.783086249733366D+01 -.284486899999180D+02
 0.978927045236799D+02 0.643737991606723D+02 -.272712331444612D+02 -.685220798236770D+02
 0.190949189983051D+03 -.150564512041082D+03 -.390706159444793D+02 0.628502704428006D+02
 0.363949921711776D+03 0.155188005010207D+03 -.843625051898326D+02 0.318212501849087D+03
0.289785948388D-05 0.000000000000D+00 0.000000000000D+00 0.203378653836D-06 0.000000000000D+00  7 2 -2 23 -13 13 23 21 0 0.13425508D+00 0.10620705D-01 0.48765033D+05 0.48765033D+05 0.48765033D+05 0.11482520D+01  1  2  2  2  7  2       -2 0.608147445639D-03 0.100000000000D+01
-.158805616888D-06 0.000000000000D+00 -.111285434420D-07 0.203378653836D-06 0.000000000000D+00  7 2 -2 23 -13 13 23 21 2 0.13425508D+00 0.10620705D-01 0.48765033D+05 0.48765033D+05 0.48765033D+05 0.11482520D+01  1  2  3  2  7  2       -2 -.439411919563D-04 0.100000000000D+01
0.186530856001D-06 0.000000000000D+00 0.000000000000D+00 0.203378653836D-06 0.000000000000D+00  7 2 -2 23 -13 13 23 21 2 0.13425508D+00 0.10620705D-01 0.48765033D+05 0.48765033D+05 0.48765033D+05 0.11482520D+01  1  2 15  2  7  2       -2 0.516127093609D-04 0.100000000000D+01
  </mgrwgt>
  </event>
  <event>
  8     66 0.29152272E-05 0.96863130E+02 0.75467711E-02 0.10048477E+00
        2 -1    0    0  501    0 0.00000000E+00 0.00000000E+00 0.47856858E+03 0.47856868E+03 0.32000000E+00 0.0000E+00 0.9000E+01
       -2 -1    0    0    0  501 0.00000000E+00 0.00000000E+00 -.13993561E+03 0.13993598E+03 0.32000000E+00 0.0000E+00 0.9000E+01
       25  2    1    2    0    0 0.79687296E+02 0.61235741E+02 0.80865163E+02 0.32719835E+03 0.30069869E+03 0.0000E+00 0.0000E+00
       23  2    3    3    0    0 -.36794418E+02 0.99734906E+01 -.58065606E+02 0.11788323E+03 0.95244641E+02 0.0000E+00 0.0000E+00
       23  1    1    2    0    0 -.79687296E+02 -.61235741E+02 0.25776780E+03 0.29130632E+03 0.91188000E+02 0.0000E+00 0.9000E+01
      -13  1    4    4    0    0 -.59583950E+02 0.29857087E+02 -.56874696E+02 0.87615267E+02 0.10565837E+00 0.0000E+00 0.9000E+01
       13  1    4    4    0    0 0.22789533E+02 -.19883596E+02 -.11909101E+01 0.30267964E+02 0.10565837E+00 0.0000E+00 0.9000E+01
       23  1    3    3    0    0 0.11648171E+03 0.51262250E+02 0.13893077E+03 0.20931512E+03 0.91188000E+02 0.0000E+00 0.9000E+01
#aMCatNLO 1  0  0  2  1 0.17589355D+03 0.00000000D+00  -5  7  0 0.00000000D+00 0.00000000D+00 0.00000000D+00 0.00000000D+00 0.00000000D+00
  <mgrwgt>
 0.2972116606D-03    7    2    0
 0.258783565987135D+03 0.000000000000000D+00 0.000000000000000D+00 0.258783565987135D+03
 0.258783565987135D+03 0.000000000000000D+00 0.000000000000000D+00 -.258783565987135D+03
 0.179465887685356D+03 -.796872983348075D+02 -.612357425925359D+02 0.117443057742606D+03
 0.141914272390867D+03 -.595840455694798D+02 0.298571369011044D+02 -.125291474561808D+03
 0.369499612918389D+02 0.227896192579494D+02 -.198836495415535D+02 -.212267136988931D+02
 0.159237010606207D+03 0.116481724646338D+03 0.512622552329850D+02 0.290751305180952D+02
 0.000000000000000D+00 0.000000000000000D+00 -.000000000000000D+00 -.000000000000000D+00
 0.318402695488662D+03 0.000000000000000D+00 0.000000000000000D+00 0.318402695488662D+03
 0.444883266864714D+03 0.000000000000000D+00 0.000000000000000D+00 -.444883266864714D+03
 0.190271508455078D+03 -.117943554177651D+03 -.135809352322062D+02 0.117443057742606D+03
 0.170474741031840D+03 -.919065375455238D+02 0.701204113535706D+02 -.125291474561808D+03
 0.289074890859891D+02 0.159754330352103D+02 -.113953977613472D+02 -.212267136988931D+02
 0.156985334231001D+03 0.837626027679513D+02 0.920196010777779D+02 0.290751305180952D+02
 0.216646889549467D+03 0.110112055920013D+03 -.137163679437795D+03 -.126480571376052D+03
0.243728380741D-05 0.000000000000D+00 0.000000000000D+00 0.136557329115D-07 0.000000000000D+00  7 2 -2 23 -13 13 23 21 0 0.73625971D-01 0.21528592D-01 0.37860021D+05 0.37860021D+05 0.37860021D+05 0.11580740D+01  1  2  2  2  7  2       -2 0.335352031520D-03 0.100000000000D+01
-.122016760737D-06 0.000000000000D+00 -.935981157203D-08 0.136557329115D-07 0.000000000000D+00  7 2 -2 23 -13 13 23 21 2 0.73625971D-01 0.21528592D-01 0.37860021D+05 0.37860021D+05 0.37860021D+05 0.11580740D+01  1  2  3  2  7  2       -2 -.225157765764D-04 0.100000000000D+01
0.150756754644D-06 0.000000000000D+00 0.000000000000D+00 0.136557329115D-07 0.000000000000D+00  7 2 -2 23 -13 13 23 21 2 0.73625971D-01 0.21528592D-01 0.37860021D+05 0.37860021D+05 0.37860021D+05 0.11580740D+01  1  2 15  2  7  2       -2 0.278191732386D-04 0.100000000000D+01
0.191734551982D-07 0.000000000000D+00 0.000000000000D+00 0.136557329115D-07 0.000000000000D+00  7 2 -2 23 -13 13 23 21 2 0.73625971D-01 0.38013979D-01 0.94583446D+05 0.94583446D+05 0.94583446D+05 0.11237121D+01  1  2 12  2  7  2       -2 0.124137920743D-05 0.100000000000D+01
-.751156207230D-06 0.000000000000D+00 -.771301934744D-06 0.136557329115D-07 0.000000000000D+00  7 2 -2 23 -13 13 23 21 2 0.73625971D-01 0.44564575D-01 0.37860021D+05 0.37860021D+05 0.37860021D+05 0.11580740D+01  1  2  5  2  7  2       -2 -.387345513574D-04 0.100000000000D+01
0.120121163895D-08 0.000000000000D+00 0.000000000000D+00 0.136557329115D-07 0.000000000000D+00  7 2 21 23 -13 13 23 2 2 0.73625971D-01 0.38013979D-01 0.94583446D+05 0.94583446D+05 0.94583446D+05 0.11237121D+01  1  2 12  4  7  2       -2 0.882843827151D-06 0.100000000000D+01
-.116994927712D-07 0.000000000000D+00 -.606798666295D-07 0.136557329115D-07 0.000000000000D+00  7 2 21 23 -13 13 23 2 2 0.73625971D-01 0.44564575D-01 0.37860021D+05 0.37860021D+05 0.37860021D+05 0.11580740D+01  1  2  5  4  7  2       -2 -.683343926998D-05 0.100000000000D+01
  </mgrwgt>
  </event>
  <event>
  8     66 0.29152272E-05 0.23855658E+03 0.75467711E-02 0.91684398E-01
        2 -1    0    0  501    0 0.00000000E+00 0.00000000E+00 0.80623633E+03 0.80623640E+03 0.32000000E+00 0.0000E+00 0.9000E+01
       -2 -1    0    0    0  501 0.00000000E+00 0.00000000E+00 -.12906200E+03 0.12906240E+03 0.32000000E+00 0.0000E+00 0.9000E+01
       25  2    1    2    0    0 -.91101350E+02 0.94853210E+02 0.10929510E+03 0.34529994E+03 0.29998340E+03 0.0000E+00 0.0000E+00
       23  2    3    3    0    0 -.47221345E+02 -.71558932E+02 0.76964755E+02 0.14786904E+03 0.92688422E+02 0.0000E+00 0.0000E+00
       23  1    1    2    0    0 0.91101350E+02 -.94853210E+02 0.56787922E+03 0.58999886E+03 0.91188000E+02 0.0000E+00 0.9000E+01
      -13  1    4    4    0    0 -.51893790E+02 -.89671394E+02 0.77130006E+02 0.12916259E+03 0.10565837E+00 0.0000E+00 0.9000E+01
       13  1    4    4    0    0 0.46724452E+01 0.18112462E+02 -.16525082E+00 0.18706456E+02 0.10565837E+00 0.0000E+00 0.9000E+01
       23  1    3    3    0    0 -.43880005E+02 0.16641214E+03 0.32330349E+02 0.19743090E+03 0.91188000E+02 0.0000E+00 0.9000E+01
#aMCatNLO 1  0  0  2  1 0.57307135D+03 0.00000000D+00  -5  7  0 0.00000000D+00 0.00000000D+00 0.00000000D+00 0.00000000D+00 0.00000000D+00
  <mgrwgt>
 0.6472770343D-03    5    2    0
 0.322575094223888D+03 0.000000000000000D+00 0.000000000000000D+00 0.322575094223888D+03
 0.322575094223888D+03 0.000000000000000D+00 0.000000000000000D+00 -.322575094223888D+03
 0.259276044286846D+03 0.911013505111280D+02 -.948532100278461D+02 0.203990755377533D+03
 0.106293414528314D+03 -.518938634757448D+02 -.896715343020696D+02 -.237556907195199D+02
 0.272928115483498D+02 0.467251848337433D+01 0.181126011856498D+02 -.198745770150173D+02
 0.252287918084266D+03 -.438800055187576D+02 0.166412143144266D+03 -.160360487642996D+03
 0.000000000000000D+00 -.000000000000000D+00 0.000000000000000D+00 -.000000000000000D+00
 0.693164193596482D+03 0.000000000000000D+00 0.000000000000000D+00 0.693164193596482D+03
 0.745182372131828D+03 0.000000000000000D+00 0.000000000000000D+00 -.745182372131828D+03
 0.462634968220066D+03 0.305131446459102D+03 -.266455314411744D+03 0.203990755377533D+03
 0.156034317068117D+03 0.258803061804646D+02 -.152028237552625D+03 -.237556907195199D+02
 0.296794086906031D+02 0.215634781070100D+02 0.457000006854391D+01 -.198745770150173D+02
 0.214570499853176D+03 0.945328324268521D+02 0.554374030731893D+02 -.160360487642996D+03
 0.575427371896348D+03 -.447108063173429D+03 0.358476148822636D+03 -.520181785353460D+02
0.652093575573D-05 0.000000000000D+00 0.000000000000D+00 0.385265721117D-06 0.000000000000D+00  7 2 -2 23 -13 13 23 21 0 0.12403639D+00 0.19855728D-01 0.56909242D+05 0.56909242D+05 0.56909242D+05 0.11423835D+01  1  2  2  2  7  2       -2 0.561785327473D-03 0.100000000000D+01
-.322173292503D-06 0.000000000000D+00 -.250421103038D-07 0.385265721117D-06 0.000000000000D+00  7 2 -2 23 -13 13 23 21 2 0.12403639D+00 0.19855728D-01 0.56909242D+05 0.56909242D+05 0.56909242D+05 0.11423835D+01  1  2  3  2  7  2       -2 -.362221199399D-04 0.100000000000D+01
0.384850642555D-06 0.000000000000D+00 0.000000000000D+00 0.385265721117D-06 0.000000000000D+00  7 2 -2 23 -13 13 23 21 2 0.12403639D+00 0.19855728D-01 0.56909242D+05 0.56909242D+05 0.56909242D+05 0.11423835D+01  1  2 15  2  7  2       -2 0.432689687754D-04 0.100000000000D+01
0.522116662804D-05 0.000000000000D+00 -.266461837290D-05 0.385265721117D-06 0.000000000000D+00  7 2 -2 23 -13 13 23 21 2 0.12403639D+00 0.96237239D-01 0.56909242D+05 0.56909242D+05 0.56909242D+05 0.11423835D+01  1  2  5  2  7  2       -2 0.283228324054D-04 0.100000000000D+01
0.942412699256D-06 0.000000000000D+00 -.511559377560D-06 0.385265721117D-06 0.000000000000D+00  7 2 21 23 -13 13 23 2 2 0.12403639D+00 0.96237239D-01 0.56909242D+05 0.56909242D+05 0.56909242D+05 0.11423835D+01  1  2  5  4  7  2       -2 0.501220256188D-04 0.100000000000D+01
  </mgrwgt>
  </event>
  <event>
  9     66 0.29152272E-05 0.19573104E+03 0.75467711E-02 0.10289634E+00
        2 -1    0    0  501    0 0.00000000E+00 0.00000000E+00 0.49961236E+03 0.49961246E+03 0.32000000E+00 0.0000E+00 0.9000E+01
       -2 -1    0    0    0  502 0.00000000E+00 0.00000000E+00 -.39425457E+03 0.39425470E+03 0.32000000E+00 0.0000E+00 0.9000E+01
       25  2    1    2    0    0 -.75157517E+02 -.73994687E+02 0.34580865E+03 0.46954109E+03 0.29960198E+03 0.0000E+00 0.0000E+00
       23  2    3    3    0    0 -.59804397E+01 -.10210768E+03 0.41629150E+02 0.14332609E+03 0.91365402E+02 0.0000E+00 0.0000E+00
       23  1    1    2    0    0 0.13310156E+03 -.19320758E+02 -.28017383E+01 0.16251898E+03 0.91188000E+02 0.0000E+00 0.9000E+01
      -11  1    4    4    0    0 0.30081495E+02 -.49109784E+02 -.13072591E+02 0.59055566E+02 0.51099893E-03 0.0000E+00 0.9000E+01
       11  1    4    4    0    0 -.36061935E+02 -.52997900E+02 0.54701741E+02 0.84270522E+02 0.51099893E-03 0.0000E+00 0.9000E+01
       23  1    3    3    0    0 -.69177078E+02 0.28112996E+02 0.30417950E+03 0.32621500E+03 0.91188000E+02 0.0000E+00 0.9000E+01
       21  1    1    2  501  502 -.57944042E+02 0.93315446E+02 -.23764912E+03 0.26180709E+03 0.75000000E+00 0.0000E+00 0.9000E+01
#aMCatNLO 2  0  0  2  1 0.10984209D+03 0.00000000D+00  -5  7  0 0.00000000D+00 0.00000000D+00 0.00000000D+00 0.00000000D+00 0.00000000D+00
  <mgrwgt>
 0.1085411596D-03    2    2    0
 0.259702186772028D+03 0.000000000000000D+00 0.000000000000000D+00 0.259702186772028D+03
 0.259702186772028D+03 0.000000000000000D+00 0.000000000000000D+00 -.259702186772028D+03
 0.181298827061459D+03 0.112324932837721D+03 0.141387677787717D+02 -.108338442201097D+03
 0.683184638724176D+02 0.219675367765151D+02 -.360427354081104D+02 -.537192801344194D+02
 0.609255718937682D+02 -.430084232026131D+02 -.418109913732795D+02 0.106790376247671D+02
 0.208861510716410D+03 -.912840464116232D+02 0.637149590026183D+02 0.151378684710749D+03
 0.000000000000000D+00 -.000000000000000D+00 0.000000000000000D+00 -.000000000000000D+00
 0.272022253514137D+03 0.000000000000000D+00 0.000000000000000D+00 0.272022253514137D+03
 0.724110353308244D+03 0.000000000000000D+00 0.000000000000000D+00 -.724110353308244D+03
 0.195299222424984D+03 0.133101559638192D+03 -.193207582440178D+02 -.108338442201097D+03
 0.787554968059014D+02 0.300814948738752D+02 -.491097840062154D+02 -.537192801344194D+02
 0.649867858096674D+02 -.360619345812858D+02 -.529978995766385D+02 0.106790376247671D+02
 0.191850374420126D+03 -.691770777129056D+02 0.281129962026235D+02 0.151378684710749D+03
 0.465240727361703D+03 -.579440422178756D+02 0.933154456242481D+02 -.452088099794108D+03
-.408970172421D-05 0.000000000000D+00 0.000000000000D+00 0.187665003987D-06 0.000000000000D+00  7 2 -2 23 -11 11 23 21 2 0.73382181D-01 0.60100324D-01 0.65508131D+05 0.65508131D+05 0.65508131D+05 0.11371163D+01  1  2 13  2  7  2       -2 -.112647688121D-03 0.100000000000D+01
0.861235813252D-05 0.000000000000D+00 0.000000000000D+00 0.187665003987D-06 0.163532546923D-09  7 2 -2 23 -11 11 23 21 2 0.76863374D-01 0.60654501D-01 0.65508131D+05 0.65508131D+05 0.65508131D+05 0.11371163D+01  1  2  1  2  7  2       -2 0.221188847702D-03 0.100000000000D+01
  </mgrwgt>
  </event>
  <event>
  8     66 0.29152272E-05 0.20754287E+03 0.75467711E-02 0.99799030E-01
        2 -1    0    0  501    0 0.00000000E+00 0.00000000E+00 0.56249915E+02 0.56250826E+02 0.32000000E+00 0.0000E+00 0.9000E+01
       -2 -1    0    0    0  501 0.00000000E+00 0.00000000E+00 -.10901643E+04 0.10901643E+04 0.32000000E+00 0.0000E+00 0.9000E+01
       25  2    1    2    0    0 -.29726899E+02 0.11648264E+03 -.53738047E+03 0.62746134E+03 0.30079574E+03 0.0000E+00 0.0000E+00
       23  2    3    3    0    0 0.77028105E+02 -.35821864E+01 -.32584583E+03 0.34661557E+03 0.89558299E+02 0.0000E+00 0.0000E+00
       23  1    1    2    0    0 0.29726899E+02 -.11648264E+03 -.49653390E+03 0.51895382E+03 0.91188000E+02 0.0000E+00 0.9000E+01
      -11  1    4    4    0    0 0.70545771E+02 0.24759669E+01 -.32953207E+03 0.33700775E+03 0.51099893E-03 0.0000E+00 0.9000E+01
       11  1    4    4    0    0 0.64823331E+01 -.60581533E+01 0.36862430E+01 0.96078224E+01 0.51099893E-03 0.0000E+00 0.9000E+01
       23  1    3    3    0    0 -.10675500E+03 0.12006483E+03 -.21153464E+03 0.28084577E+03 0.91188000E+02 0.0000E+00 0.9000E+01
#aMCatNLO 1  0  0  2  1 0.19195591D+03 0.00000000D+00  -5  7  0 0.00000000D+00 0.00000000D+00 0.00000000D+00 0.00000000D+00 0.00000000D+00
  <mgrwgt>
 0.1125924918D-02    6    2    0
 0.247633191731681D+03 0.000000000000000D+00 0.000000000000000D+00 0.247633191731681D+03
 0.247633191731681D+03 0.000000000000000D+00 0.000000000000000D+00 -.247633191731681D+03
 0.164685076808658D+03 0.297268992088554D+02 -.116482639536844D+03 -.659850689885980D+02
 0.921581770407274D+02 0.705457714486311D+02 0.247596688013208D+01 -.592477283462923D+02
 0.299350275649587D+02 0.648233313744986D+01 -.605815325003932D+01 0.285899284995432D+02
 0.208488102049017D+03 -.106755003794936D+03 0.120064825906751D+03 0.966428688353470D+02
 0.000000000000000D+00 -.000000000000000D+00 -.000000000000000D+00 -.000000000000000D+00
 0.331449971830976D+03 0.000000000000000D+00 0.000000000000000D+00 0.331449971830976D+03
 0.405434987594924D+03 0.000000000000000D+00 0.000000000000000D+00 -.405434987594924D+03
 0.135401448009423D+03 0.428001599605726D+02 -.619065243489548D+02 -.659850689885980D+02
 0.106140699269671D+03 0.791846562447742D+02 0.385401731010078D+02 -.592477283462923D+02
 0.304066459750958D+02 0.911111639541972D+01 0.491606202919859D+01 0.285899284995432D+02
 0.259215835258027D+03 -.863794953287481D+02 0.205125172990887D+03 0.966428688353470D+02
 0.205720330913684D+03 -.447164372720185D+02 -.186674883772139D+03 -.739850157639479D+02
0.338723189794D-04 0.000000000000D+00 0.000000000000D+00 0.299025990110D-07 0.000000000000D+00  7 2 -2 23 -11 11 23 21 0 0.86539068D-02 0.16771766D+00 0.43074044D+05 0.43074044D+05 0.43074044D+05 0.11530351D+01  1  2  2  2  7  2       -2 0.737247792875D-03 0.100000000000D+01
-.181043010078D-05 0.000000000000D+00 -.130078623667D-06 0.299025990110D-07 0.000000000000D+00  7 2 -2 23 -11 11 23 21 2 0.86539068D-02 0.16771766D+00 0.43074044D+05 0.43074044D+05 0.43074044D+05 0.11530351D+01  1  2  3  2  7  2       -2 -.523884265020D-04 0.100000000000D+01
0.221599094155D-05 0.000000000000D+00 0.000000000000D+00 0.299025990110D-07 0.000000000000D+00  7 2 -2 23 -11 11 23 21 2 0.86539068D-02 0.16771766D+00 0.43074044D+05 0.43074044D+05 0.43074044D+05 0.11530351D+01  1  2 15  2  7  2       -2 0.641241429427D-04 0.100000000000D+01
-.937837453643D-05 0.000000000000D+00 -.944769796354D-05 0.299025990110D-07 0.000000000000D+00  7 2 -2 23 -11 11 23 21 2 0.86539068D-02 0.31915940D+00 0.43074044D+05 0.43074044D+05 0.43074044D+05 0.11530351D+01  1  2  5  2  7  2       -2 -.284330009057D-04 0.100000000000D+01
0.141027733402D-04 0.000000000000D+00 0.778083154339D-05 0.299025990110D-07 0.000000000000D+00  7 2 -2 23 -11 11 23 21 2 0.86539068D-02 0.16771766D+00 0.43074044D+05 0.43074044D+05 0.43074044D+05 0.11530351D+01  1  2  6  2  7  2       -2 0.408092035304D-03 0.100000000000D+01
-.115091259125D-06 0.000000000000D+00 -.660377202668D-06 0.299025990110D-07 0.000000000000D+00  7 2 21 23 -11 11 23 2 2 0.86539068D-02 0.31915940D+00 0.43074044D+05 0.43074044D+05 0.43074044D+05 0.11530351D+01  1  2  5  4  7  2       -2 -.271762564093D-05 0.100000000000D+01
  </mgrwgt>
  </event>
  <event>
  9     66 0.29152272E-05 0.15740673E+03 0.75467711E-02 0.10770590E+00
        2 -1    0    0  502    0 0.00000000E+00 0.00000000E+00 0.16307856E+04 0.16307856E+04 0.32000000E+00 0.0000E+00 0.9000E+01
       -2 -1    0    0    0  501 0.00000000E+00 0.00000000E+00 -.73956040E+02 0.73956732E+02 0.32000000E+00 0.0000E+00 0.9000E+01
       25  2    1    2    0    0 0.56865119E+02 0.10535061E+03 0.34901578E+03 0.47583961E+03 0.30046453E+03 0.0000E+00 0.0000E+00
       23  2    3    3    0    0 0.29280748E+00 0.88466658E+02 0.18096986E+02 0.12754664E+03 0.90078911E+02 0.0000E+00 0.0000E+00
       23  1    1    2    0    0 -.22733128E+02 -.75348915E+02 0.11452814E+04 0.11515984E+04 0.91188000E+02 0.0000E+00 0.9000E+01
      -13  1    4    4    0    0 0.64008322E+00 0.88847193E+02 -.18658349E+02 0.90787547E+02 0.10565837E+00 0.0000E+00 0.9000E+01
       13  1    4    4    0    0 -.34727574E+00 -.38053499E+00 0.36755336E+02 0.36759098E+02 0.10565837E+00 0.0000E+00 0.9000E+01
       23  1    3    3    0    0 0.56572312E+02 0.16883950E+02 0.33091879E+03 0.34829297E+03 0.91188000E+02 0.0000E+00 0.9000E+01
       21  1    1    2  502  501 -.34131991E+02 -.30001694E+02 0.62532415E+02 0.77304333E+02 0.75000000E+00 0.0000E+00 0.9000E+01
#aMCatNLO 2  0  0  1  1 0.45443310D+02 0.00000000D+00  -5  7  0 0.00000000D+00 0.00000000D+00 0.00000000D+00 0.00000000D+00 0.00000000D+00
  <mgrwgt>
 0.3573735710D-03    1    2    0
 0.321545289667795D+03 0.000000000000000D+00 0.000000000000000D+00 0.321545289667795D+03
 0.321545289667795D+03 0.000000000000000D+00 0.000000000000000D+00 -.321545289667795D+03
 0.257818901307387D+03 -.362579769271499D+02 -.872371274756992D+02 0.221879195118170D+03
 0.268927967063912D+03 -.137082304893720D+02 0.762352840952991D+02 -.257531585140324D+03
 0.765490804754491D+01 -.751593419184670D+00 -.736047942125156D+00 0.758227920717115D+01
 0.108688802916746D+03 0.507178008357067D+02 0.117378913225252D+02 0.280701108149825D+02
 0.000000000000000D+00 -.000000000000000D+00 -.000000000000000D+00 -.000000000000000D+00
 0.336783735099385D+03 0.000000000000000D+00 0.000000000000000D+00 0.336783735099385D+03
 0.358108421407423D+03 0.000000000000000D+00 0.000000000000000D+00 -.358108421407423D+03
 0.252467587337597D+03 -.227331284798983D+02 -.753489147585844D+02 0.221879195118170D+03
 0.272427554878941D+03 0.640084728226777D+00 0.888473162451819D+02 -.257531585140324D+03
 0.759976707856528D+01 -.347277071831334D+00 -.380657731204154D+00 0.758227920717115D+01
 0.112199272218480D+03 0.565723115987527D+02 0.168839504134775D+02 0.280701108149825D+02
 0.501979749932249D+02 -.341319907752499D+02 -.300016941688709D+02 -.213246863080381D+02
0.371558595816D-05 0.000000000000D+00 0.000000000000D+00 0.311080836543D-06 0.109150535726D-08  7 2 -2 23 -13 13 23 21 2 0.25088810D+00 0.11377815D-01 0.33104865D+05 0.33104865D+05 0.33104865D+05 0.11633883D+01  1  2  1  1  7  1        2 0.357373571034D-03 0.100000000000D+01
  </mgrwgt>
  </event>
  <event>
  8     66 0.29152272E-05 0.91586508E+02 0.75467711E-02 0.10475919E+00
        2 -1    0    0  501    0 0.00000000E+00 0.00000000E+00 0.26592485E+04 0.26592485E+04 0.32000000E+00 0.0000E+00 0.9000E+01
       -2 -1    0    0    0  501 0.00000000E+00 0.00000000E+00 -.18951121E+02 0.18953823E+02 0.32000000E+00 0.0000E+00 0.9000E+01
       25  2    1    2    0    0 0.93225444E+02 -.31526293E+02 0.18100298E+04 0.18371646E+04 0.29879959E+03 0.0000E+00 0.0000E+00
       23  2    3    3    0    0 0.12033188E+03 0.37073671E+02 0.14541227E+04 0.14624304E+04 0.91516944E+02 0.0000E+00 0.0000E+00
       23  1    1    2    0    0 -.93225444E+02 0.31526293E+02 0.83026763E+03 0.84103774E+03 0.91188000E+02 0.0000E+00 0.9000E+01
      -13  1    4    4    0    0 0.98041581E+02 0.30679713E+02 0.65809368E+03 0.66606358E+03 0.10565837E+00 0.0000E+00 0.9000E+01
       13  1    4    4    0    0 0.22290300E+02 0.63939585E+01 0.79602907E+03 0.79636677E+03 0.10565837E+00 0.0000E+00 0.9000E+01
       23  1    3    3    0    0 -.27106437E+02 -.68599964E+02 0.35590702E+03 0.37473426E+03 0.91188000E+02 0.0000E+00 0.9000E+01
#aMCatNLO 1  0  0  1  2 0.60197668D+02 0.00000000D+00  -5  7  0 0.00000000D+00 0.00000000D+00 0.00000000D+00 0.00000000D+00 0.00000000D+00
  <mgrwgt>
 0.8384562670D-03    9    2    0
 0.224498071622754D+03 0.000000000000000D+00 0.000000000000000D+00 0.224498071622754D+03
 0.224498071622754D+03 0.000000000000000D+00 0.000000000000000D+00 -.224498071622754D+03
 0.134334785636064D+03 -.932254556891275D+02 0.315262966605378D+02 0.675946139226277D+01
 0.103096776416732D+03 0.980416826292235D+02 0.306797421230985D+02 0.869063852731011D+01
 0.692163142527001D+02 0.222902002623914D+02 0.639392401269565D+01 0.652162776207819D+02
 0.142348266940012D+03 -.271064272024874D+02 -.685999627963319D+02 -.806663775403548D+02
 0.000000000000000D+00 -.000000000000000D+00 0.000000000000000D+00 0.000000000000000D+00
 0.335787979163081D+03 0.000000000000000D+00 0.000000000000000D+00 0.335787979163081D+03
 0.234796773939587D+03 0.000000000000000D+00 0.000000000000000D+00 -.234796773939587D+03
 0.122531461265461D+03 -.762928345764116D+02 0.288517023732051D+02 0.675946139226277D+01
 0.116361126428849D+03 0.112508345976004D+03 0.283946585033506D+02 0.869063852731011D+01
 0.726537717316254D+02 0.316422752904583D+02 0.491671583102847D+01 0.652162776207819D+02
 0.141467211983901D+03 -.839731291241478D+01 -.715551632858595D+02 -.806663775403548D+02
 0.117571181692831D+03 -.594604737776362D+02 0.939208657827537D+01 0.100991205223494D+03
0.460229401911D-05 0.000000000000D+00 0.000000000000D+00 0.209608052200D-07 0.000000000000D+00  7 2 -2 23 -13 13 23 21 0 0.40911537D+00 0.29157664D-02 0.35601914D+05 0.35601914D+05 0.35601914D+05 0.11604996D+01  1  2  2  1  7  1        2 0.690192841944D-03 0.100000000000D+01
-.246293732122D-06 0.000000000000D+00 -.176740208452D-07 0.209608052200D-07 0.000000000000D+00  7 2 -2 23 -13 13 23 21 2 0.40911537D+00 0.29157664D-02 0.35601914D+05 0.35601914D+05 0.35601914D+05 0.11604996D+01  1  2  3  1  7  1        2 -.497438578098D-04 0.100000000000D+01
0.288983375072D-06 0.000000000000D+00 0.000000000000D+00 0.209608052200D-07 0.000000000000D+00  7 2 -2 23 -13 13 23 21 2 0.40911537D+00 0.29157664D-02 0.35601914D+05 0.35601914D+05 0.35601914D+05 0.11604996D+01  1  2 15  1  7  1        2 0.583658698706D-04 0.100000000000D+01
0.584462879928D-05 0.000000000000D+00 0.000000000000D+00 0.209608052200D-07 0.000000000000D+00  7 2 -2 23 -13 13 23 21 2 0.61759372D+00 0.29157664D-02 0.49911042D+05 0.49911042D+05 0.49911042D+05 0.11473634D+01  1  2 12  1  7  1        2 0.140316939307D-03 0.100000000000D+01
-.616479036831D-05 0.000000000000D+00 0.000000000000D+00 0.209608052200D-07 0.000000000000D+00  7 2 -2 23 -13 13 23 21 2 0.40911537D+00 0.29157664D-02 0.35601914D+05 0.35601914D+05 0.35601914D+05 0.11604996D+01  1  2  4  1  7  1        2 -.124510052638D-02 0.100000000000D+01
-.704581939064D-05 0.000000000000D+00 -.122367259260D-05 0.209608052200D-07 0.000000000000D+00  7 2 -2 23 -13 13 23 21 2 0.61655754D+00 0.29157664D-02 0.35601914D+05 0.35601914D+05 0.35601914D+05 0.11604996D+01  1  2  5  1  7  1        2 -.178052035857D-03 0.100000000000D+01
0.704311689618D-05 0.000000000000D+00 0.112749797222D-05 0.209608052200D-07 0.000000000000D+00  7 2 -2 23 -13 13 23 21 2 0.40911537D+00 0.29157664D-02 0.35601914D+05 0.35601914D+05 0.35601914D+05 0.11604996D+01  1  2  6  1  7  1        2 0.142249582400D-02 0.100000000000D+01
0.284239480363D-06 0.000000000000D+00 0.000000000000D+00 0.209608052200D-07 0.000000000000D+00  7 21 -2 23 -13 13 23 -2 2 0.61759372D+00 0.29157664D-02 0.49911042D+05 0.49911042D+05 0.49911042D+05 0.11473634D+01  1  2 12  3  7  1        2 0.139389788100D-06 0.100000000000D+01
-.298425172282D-06 0.000000000000D+00 -.593311246920D-07 0.209608052200D-07 0.000000000000D+00  7 21 -2 23 -13 13 23 -2 2 0.61655754D+00 0.29157664D-02 0.35601914D+05 0.35601914D+05 0.35601914D+05 0.11604996D+01  1  2  5  3  7  1        2 -.158177825566D-06 0.100000000000D+01
  </mgrwgt>
  </event>
  <event>
  8     66 0.29152272E-05 0.55048096E+03 0.75467711E-02 0.88307510E-01
        2 -1    0    0  501    0 0.00000000E+00 0.00000000E+00 0.85683238E+03 0.85683244E+03 0.32000000E+00 0.0000E+00 0.9000E+01
       -2 -1    0    0    0  501 0.00000000E+00 0.00000000E+00 -.45787325E+03 0.45787336E+03 0.32000000E+00 0.0000E+00 0.9000E+01
       25  2    1    2    0    0 0.38632198E+03 -.32680096E+03 0.52134610E+03 0.78618204E+03 0.30039459E+03 0.0000E+00 0.0000E+00
       23  2    3    3    0    0 0.30174461E+03 -.33894712E+03 0.39415312E+03 0.60787286E+03 0.90651928E+02 0.0000E+00 0.0000E+00
       23  1    1    2    0    0 -.38632198E+03 0.32680096E+03 -.12238697E+03 0.52852376E+03 0.91188000E+02 0.0000E+00 0.9000E+01
      -13  1    4    4    0    0 0.23839715E+03 -.20802993E+03 0.25186781E+03 0.40440952E+03 0.10565837E+00 0.0000E+00 0.9000E+01
       13  1    4    4    0    0 0.63347461E+02 -.13091719E+03 0.14228531E+03 0.20346334E+03 0.10565837E+00 0.0000E+00 0.9000E+01
       23  1    3    3    0    0 0.84577369E+02 0.12146156E+02 0.12719298E+03 0.17830919E+03 0.91188000E+02 0.0000E+00 0.9000E+01
#aMCatNLO 1  0  0  2  2 0.58348416D+03 0.00000000D+00  -5  7  0 0.00000000D+00 0.00000000D+00 0.00000000D+00 0.00000000D+00 0.00000000D+00
  <mgrwgt>
 0.7439593949D-03    3    2    0
 0.626355122412424D+03 0.000000000000000D+00 0.000000000000000D+00 0.626355122412424D+03
 0.626355122412424D+03 0.000000000000000D+00 0.000000000000000D+00 -.626355122412424D+03
 0.593657353368736D+03 -.386321978282185D+03 0.326800960795210D+03 -.296766344089485D+03
 0.344209586180997D+03 0.238397386014389D+03 -.208030032741043D+03 0.135537563199875D+03
 0.168217761805849D+03 0.633472229476721D+02 -.130917084390223D+03 0.845284670779637D+02
 0.146625543469266D+03 0.845773693201239D+02 0.121461563360561D+02 0.767003138116463D+02
 0.000000000000000D+00 0.000000000000000D+00 0.000000000000000D+00 0.000000000000000D+00
 0.327079756568496D+04 0.000000000000000D+00 0.000000000000000D+00 0.327079756568496D+04
 0.723957983094060D+03 0.000000000000000D+00 0.000000000000000D+00 -.723957983094060D+03
 0.531269478446429D+03 -.423541435639571D+03 0.804636358666061D+02 -.296766344089485D+03
 0.458935514054513D+03 0.211824435699235D+03 -.383903351721524D+03 0.135537563199875D+03
 0.241455952080146D+03 0.497927117624266D+02 -.220627742824250D+03 0.845284670779637D+02
 0.150271298546120D+03 0.747542065699712D+02 -.528685377519213D+02 0.767003138116463D+02
 0.261282330565181D+04 0.871700816079378D+02 0.576935996431089D+03 0.254683958259090D+04
0.100781220438D-03 0.000000000000D+00 0.000000000000D+00 0.122597610015D-05 0.000000000000D+00  7 2 -2 23 -13 13 23 21 0 0.13182038D+00 0.70442052D-01 0.30302928D+06 0.30302928D+06 0.30302928D+06 0.10842292D+01  1  2  2  2  7  2       -2 0.736106389993D-03 0.100000000000D+01
-.548545294801D-05 0.000000000000D+00 -.387026422787D-06 0.122597610015D-05 0.000000000000D+00  7 2 -2 23 -13 13 23 21 2 0.13182038D+00 0.70442052D-01 0.30302928D+06 0.30302928D+06 0.30302928D+06 0.10842292D+01  1  2  3  2  7  2       -2 -.470994312500D-04 0.100000000000D+01
0.640005611292D-05 0.000000000000D+00 0.000000000000D+00 0.122597610015D-05 0.000000000000D+00  7 2 -2 23 -13 13 23 21 2 0.13182038D+00 0.70442052D-01 0.30302928D+06 0.30302928D+06 0.30302928D+06 0.10842292D+01  1  2 15  2  7  2       -2 0.549524361514D-04 0.100000000000D+01
  </mgrwgt>
  </event>
  <event>
  8     66 0.29152272E-05 0.47353514E+03 0.75467711E-02 0.92769477E-01
        2 -1    0    0  501    0 0.00000000E+00 0.00000000E+00 0.23413280E+04 0.23413280E+04 0.32000000E+00 0.0000E+00 0.9000E+01
       -2 -1    0    0    0  501 0.00000000E+00 0.00000000E+00 -.22787395E+03 0.22787417E+03 0.32000000E+00 0.0000E+00 0.9000E+01
       25  2    1    2    0    0 -.42361205E+03 -.35031675E+03 0.18495327E+04 0.19526483E+04 0.29982505E+03 0.0000E+00 0.0000E+00
       23  2    3    3    0    0 -.59823174E+02 0.38080563E+01 0.28665118E+03 0.30684736E+03 0.91613820E+02 0.0000E+00 0.0000E+00
       23  1    1    2    0    0 0.42361205E+03 0.35031675E+03 0.26392132E+03 0.61655390E+03 0.91188000E+02 0.0000E+00 0.9000E+01
      -13  1    4    4    0    0 -.61193938E+02 0.13202643E+02 0.29007571E+03 0.29675400E+03 0.10565837E+00 0.0000E+00 0.9000E+01
       13  1    4    4    0    0 0.13707638E+01 -.93945863E+01 -.34245365E+01 0.10093357E+02 0.10565837E+00 0.0000E+00 0.9000E+01
       23  1    3    3    0    0 -.36378887E+03 -.35412480E+03 0.15628816E+04 0.16458009E+04 0.91188000E+02 0.0000E+00 0.9000E+01
#aMCatNLO 1  0  0  1  2 0.36333119D+02 0.00000000D+00  -5  7  0 0.00000000D+00 0.00000000D+00 0.00000000D+00 0.00000000D+00 0.00000000D+00
  <mgrwgt>
 0.3267391602D-03    6    2    0
 0.730429989625505D+03 0.000000000000000D+00 0.000000000000000D+00 0.730429989625505D+03
 0.730429989625505D+03 0.000000000000000D+00 0.000000000000000D+00 -.730429989625505D+03
 0.702508145447743D+03 0.423612047330685D+03 0.350316747833757D+03 -.427824090742810D+03
 0.102240803274748D+03 -.611940207391259D+02 0.132026726951754D+02 0.808341704587187D+02
 0.227053393298339D+02 0.137084699173089D+01 -.939461636146009D+01 -.206250914186859D+02
 0.633405691198685D+03 -.363788873583290D+03 -.354124804167473D+03 0.367615011702777D+03
 0.000000000000000D+00 -.000000000000000D+00 0.000000000000000D+00 -.000000000000000D+00
 0.746597046069921D+03 0.000000000000000D+00 0.000000000000000D+00 0.746597046069921D+03
 0.751358464926602D+03 0.000000000000000D+00 0.000000000000000D+00 -.751358464926602D+03
 0.698725404845653D+03 0.430301114180790D+03 0.334229619494713D+03 -.427824090742810D+03
 0.101384887444171D+03 -.602219730334937D+02 0.108649092159639D+02 0.808341704587187D+02
 0.229411974127964D+02 0.158874980720605D+01 -.991867011014304D+01 -.206250914186859D+02
 0.638260241071054D+03 -.357718323509628D+03 -.368724406819386D+03 0.367615011702777D+03
 0.366437802228490D+02 -.139495674448745D+02 0.335485482188516D+02 -.476141885668043D+01
0.570125746712D-04 0.000000000000D+00 0.000000000000D+00 0.271438336543D-05 0.000000000000D+00  7 2 -2 23 -13 13 23 21 0 0.36020433D+00 0.35057549D-01 0.32782453D+06 0.32782453D+06 0.32782453D+06 0.10817134D+01  1  2  2  1  7  1        2 0.237465219011D-03 0.100000000000D+01
-.293899662695D-05 0.000000000000D+00 -.218943298493D-06 0.271438336543D-05 0.000000000000D+00  7 2 -2 23 -13 13 23 21 2 0.36020433D+00 0.35057549D-01 0.32782453D+06 0.32782453D+06 0.32782453D+06 0.10817134D+01  1  2  3  1  7  1        2 -.143236230462D-04 0.100000000000D+01
0.354621235380D-05 0.000000000000D+00 0.000000000000D+00 0.271438336543D-05 0.000000000000D+00  7 2 -2 23 -13 13 23 21 2 0.36020433D+00 0.35057549D-01 0.32782453D+06 0.32782453D+06 0.32782453D+06 0.10817134D+01  1  2 15  1  7  1        2 0.172829762824D-04 0.100000000000D+01
0.843142830869D-04 0.000000000000D+00 0.000000000000D+00 0.271438336543D-05 0.000000000000D+00  7 2 -2 23 -13 13 23 21 2 0.37320882D+00 0.35057549D-01 0.34914424D+06 0.34914424D+06 0.34914424D+06 0.10797109D+01  1  2 12  1  7  1        2 0.365083536548D-03 0.100000000000D+01
-.573231431842D-04 0.000000000000D+00 0.000000000000D+00 0.271438336543D-05 0.000000000000D+00  7 2 -2 23 -13 13 23 21 2 0.36020433D+00 0.35057549D-01 0.32782453D+06 0.32782453D+06 0.32782453D+06 0.10817134D+01  1  2  4  1  7  1        2 -.279372588340D-03 0.100000000000D+01
0.111275361246D-05 0.000000000000D+00 0.000000000000D+00 0.271438336543D-05 0.000000000000D+00  7 21 -2 23 -13 13 23 -2 2 0.37320882D+00 0.35057549D-01 0.34914424D+06 0.34914424D+06 0.34914424D+06 0.10797109D+01  1  2 12  3  7  1        2 0.603639793081D-06 0.100000000000D+01
  </mgrwgt>
  </event>
  <event>
  9     66 0.29152272E-05 0.20961443E+03 0.75467711E-02 0.95799581E-01
        2 -1    0    0  502    0 0.00000000E+00 0.00000000E+00 0.21133750E+04 0.21133751E+04 0.32000000E+00 0.0000E+00 0.9000E+01
       -2 -1    0    0    0  501 0.00000000E+00 0.00000000E+00 -.37717704E+03 0.37717718E+03 0.32000000E+00 0.0000E+00 0.9000E+01
       25  2    1    2    0    0 -.32061154E+03 -.20744886E+03 -.17980497E+03 0.51760874E+03 0.29960338E+03 0.0000E+00 0.0000E+00
       23  2    3    3    0    0 -.28192453E+03 -.15553791E+03 -.21775214E+03 0.39951271E+03 0.92308886E+02 0.0000E+00 0.0000E+00
       23  1    1    2    0    0 -.77796525E+01 0.34655791E+02 0.33684354E+03 0.35077110E+03 0.91188000E+02 0.0000E+00 0.9000E+01
      -13  1    4    4    0    0 -.14860461E+03 -.85857597E+02 -.60708897E+02 0.18204515E+03 0.10565837E+00 0.0000E+00 0.9000E+01
       13  1    4    4    0    0 -.13331992E+03 -.69680313E+02 -.15704325E+03 0.21746756E+03 0.10565837E+00 0.0000E+00 0.9000E+01
       23  1    3    3    0    0 -.38687014E+02 -.51910950E+02 0.37947175E+02 0.11809603E+03 0.91188000E+02 0.0000E+00 0.9000E+01
       21  1    1    2  502  501 0.32839120E+03 0.17279307E+03 0.15791594E+04 0.16221724E+04 0.75000000E+00 0.0000E+00 0.9000E+01
#aMCatNLO 2  0  0  1  2 0.37107711D+03 0.00000000D+00  -5  7  0 0.00000000D+00 0.00000000D+00 0.00000000D+00 0.00000000D+00 0.00000000D+00
  <mgrwgt>
 0.1065922721D-03    1    2    0
 0.384618062211672D+03 0.000000000000000D+00 0.000000000000000D+00 0.384618062211672D+03
 0.384618062211672D+03 0.000000000000000D+00 0.000000000000000D+00 -.384618062211672D+03
 0.331677921992155D+03 0.118938869903103D+03 0.101332616476790D+03 0.277993234912605D+03
 0.135175485022066D+03 -.815557354054327D+02 -.505777935863600D+02 -.951995828213838D+02
 0.204989071538362D+03 -.412783811889157D+02 -.212498310670702D+02 -.199662363444399D+03
 0.973936458707599D+02 0.389524669124560D+01 -.295049918233595D+02 0.168687113531774D+02
 0.000000000000000D+00 0.000000000000000D+00 0.000000000000000D+00 0.000000000000000D+00
 0.176021184995924D+04 0.000000000000000D+00 0.000000000000000D+00 0.176021184995924D+04
 0.452852529937354D+03 0.000000000000000D+00 0.000000000000000D+00 -.452852529937354D+03
 0.294715179240285D+03 -.777965248685963D+01 0.346557914444609D+02 0.277993234912605D+03
 0.196259588490976D+03 -.148604626431128D+03 -.858576176500764D+02 -.951995828213838D+02
 0.249989197415559D+03 -.133319902476344D+03 -.696802917041123D+02 -.199662363444399D+03
 0.113098349392237D+03 -.386870144514168D+02 -.519109504957054D+02 0.168687113531774D+02
 0.135900206535754D+04 0.328391195845748D+03 0.172793068405433D+03 0.130735932002189D+04
0.409212514064D-04 0.000000000000D+00 0.000000000000D+00 0.359756485569D-06 0.470188434873D-10  7 2 -2 23 -13 13 23 21 2 0.32513456D+00 0.58027237D-01 0.20377410D+06 0.20377410D+06 0.20377410D+06 0.10972024D+01  1  2  1  1  7  1        2 0.106592272097D-03 0.100000000000D+01
  </mgrwgt>
  </event>
  <event>
  8     66 0.29152272E-05 0.14021183E+03 0.75467711E-02 0.10125421E+00
        4 -1    0    0  501    0 0.00000000E+00 0.00000000E+00 0.77594219E+03 0.77594374E+03 0.15500000E+01 0.0000E+00 0.9000E+01
       -4 -1    0    0    0  501 0.00000000E+00 0.00000000E+00 -.11309925E+03 0.11310987E+03 0.15500000E+01 0.0000E+00 0.9000E+01
       25  2    1    2    0    0 0.18954208E+03 -.23168353E+02 0.53415459E+03 0.64138667E+03 0.29932050E+03 0.0000E+00 0.0000E+00
       23  2    3    3    0    0 0.76059903E+02 -.11585598E+03 0.13031383E+03 0.20221493E+03 0.68567256E+02 0.0000E+00 0.0000E+00
       23  1    1    2    0    0 -.18954208E+03 0.23168353E+02 0.12868835E+03 0.24766694E+03 0.91188000E+02 0.0000E+00 0.9000E+01
      -13  1    4    4    0    0 -.89665682E+01 -.11779051E+02 -.30093448E+00 0.14806995E+02 0.10565837E+00 0.0000E+00 0.9000E+01
       13  1    4    4    0    0 0.85026471E+02 -.10407693E+03 0.13061476E+03 0.18740794E+03 0.10565837E+00 0.0000E+00 0.9000E+01
       23  1    3    3    0    0 0.11348217E+03 0.92687625E+02 0.40384077E+03 0.43917174E+03 0.91188000E+02 0.0000E+00 0.9000E+01
#aMCatNLO 1  0  0  2  1 0.45274847D+02 0.00000000D+00  -5  7  0 0.00000000D+00 0.00000000D+00 0.00000000D+00 0.00000000D+00 0.00000000D+00
  <mgrwgt>
 0.7926626431D-04    9    2    0
 0.296249707613135D+03 0.000000000000000D+00 0.000000000000000D+00 0.296249707613135D+03
 0.296249707613135D+03 0.000000000000000D+00 0.000000000000000D+00 -.296249707613135D+03
 0.227661026317948D+03 -.189542076529092D+03 0.231683528671922D+02 -.839721394904438D+02
 0.225544968801812D+02 -.896678989760725D+01 -.117788325195180D+02 -.170164953185848D+02
 0.135086693588724D+03 0.850266916904332D+02 -.104077145702034D+03 -.136683659385966D+02
 0.207197198439418D+03 0.113482174736266D+03 0.926876253543594D+02 0.114657000747625D+03
 0.000000000000000D+00 0.000000000000000D+00 0.000000000000000D+00 -.000000000000000D+00
 0.300545763999600D+03 0.000000000000000D+00 0.000000000000000D+00 0.300545763999600D+03
 0.446411422710387D+03 0.000000000000000D+00 0.000000000000000D+00 -.446411422710387D+03
 0.239614961393595D+03 -.204604289926342D+03 0.136324140484600D+02 -.839721394904438D+02
 0.236806179810374D+02 -.104571364696549D+02 -.127223760316785D+02 -.170164953185848D+02
 0.134245102211201D+03 0.763450279848557D+02 -.109573536687724D+03 -.136683659385966D+02
 0.196686016560058D+03 0.100463369293935D+03 0.844453751009066D+02 0.114657000747625D+03
 0.152730488564096D+03 0.382530291172067D+02 0.242181235700360D+02 -.145865658710788D+03
0.210173233238D-04 0.000000000000D+00 0.000000000000D+00 0.347265708819D-09 0.000000000000D+00  7 4 -4 23 -13 13 23 21 0 0.11937666D+00 0.17400821D-01 0.71125507D+05 0.71125507D+05 0.71125507D+05 0.11340712D+01  1  2  2  2  7  2       -4 0.658904734904D-04 0.100000000000D+01
-.115194680747D-05 0.000000000000D+00 -.807120555519D-07 0.347265708819D-09 0.000000000000D+00  7 4 -4 23 -13 13 23 21 2 0.11937666D+00 0.17400821D-01 0.71125507D+05 0.71125507D+05 0.71125507D+05 0.11340712D+01  1  2  3  2  7  2       -4 -.464470665257D-05 0.100000000000D+01
0.128189191965D-05 0.000000000000D+00 0.000000000000D+00 0.347265708819D-09 0.000000000000D+00  7 4 -4 23 -13 13 23 21 2 0.11937666D+00 0.17400821D-01 0.71125507D+05 0.71125507D+05 0.71125507D+05 0.11340712D+01  1  2 15  2  7  2       -4 0.516865178884D-05 0.100000000000D+01
0.130447788624D-03 0.000000000000D+00 0.000000000000D+00 0.347265708819D-09 0.000000000000D+00  7 4 -4 23 -13 13 23 21 2 0.11937666D+00 0.26295680D-01 0.83960803D+05 0.83960803D+05 0.83960803D+05 0.11280062D+01  1  2 12  2  7  2       -4 0.242168426328D-03 0.100000000000D+01
-.122934257894D-03 0.000000000000D+00 0.000000000000D+00 0.347265708819D-09 0.000000000000D+00  7 4 -4 23 -13 13 23 21 2 0.11937666D+00 0.17400821D-01 0.71125507D+05 0.71125507D+05 0.71125507D+05 0.11340712D+01  1  2  4  2  7  2       -4 -.495677024118D-03 0.100000000000D+01
-.136648055586D-03 0.000000000000D+00 -.860416498188D-05 0.347265708819D-09 0.000000000000D+00  7 4 -4 23 -13 13 23 21 2 0.11937666D+00 0.26458850D-01 0.71125507D+05 0.71125507D+05 0.71125507D+05 0.11340712D+01  1  2  5  2  7  2       -4 -.252408215174D-03 0.100000000000D+01
0.129425458618D-03 0.000000000000D+00 0.790022415973D-05 0.347265708819D-09 0.000000000000D+00  7 4 -4 23 -13 13 23 21 2 0.11937666D+00 0.17400821D-01 0.71125507D+05 0.71125507D+05 0.71125507D+05 0.11340712D+01  1  2  6  2  7  2       -4 0.521849867338D-03 0.100000000000D+01
0.635600442247D-05 0.000000000000D+00 0.000000000000D+00 0.347265708819D-09 0.000000000000D+00  7 4 21 23 -13 13 23 4 2 0.11937666D+00 0.26295680D-01 0.83960803D+05 0.83960803D+05 0.83960803D+05 0.11280062D+01  1  2 12  4  7  2       -4 0.244193109853D-03 0.100000000000D+01
-.641930409776D-05 0.000000000000D+00 -.423876116939D-06 0.347265708819D-09 0.000000000000D+00  7 4 21 23 -13 13 23 4 2 0.11937666D+00 0.26458850D-01 0.71125507D+05 0.71125507D+05 0.71125507D+05 0.11340712D+01  1  2  5  4  7  2       -4 -.247274318542D-03 0.100000000000D+01
  </mgrwgt>
  </event>
  <event>
  7     66 0.29152272E-05 0.14043963E+03 0.75467711E-02 0.99618966E-01
        2 -1    0    0  501    0 0.00000000E+00 0.00000000E+00 0.10955629E+04 0.10955630E+04 0.32000000E+00 0.0000E+00 0.9000E+01
       -2 -1    0    0    0  501 0.00000000E+00 0.00000000E+00 -.96319927E+02 0.96320458E+02 0.32000000E+00 0.0000E+00 0.9000E+01
       23  2    1    2    0    0 0.26160140E+03 -.56311553E+01 0.35888804E+03 0.45334051E+03 0.90829466E+02 0.0000E+00 0.0000E+00
       23  1    1    2    0    0 -.23481081E+03 0.56517798E+01 0.33783659E+03 0.42144617E+03 0.91188000E+02 0.0000E+00 0.9000E+01
      -13  1    3    3    0    0 0.24921412E+03 -.21041906E+02 0.35316982E+03 0.43275787E+03 0.10565837E+00 0.0000E+00 0.9000E+01
       13  1    3    3    0    0 0.12387275E+02 0.15410751E+02 0.57182168E+01 0.20582638E+02 0.10565837E+00 0.0000E+00 0.9000E+01
       23  1    1    2    0    0 -.26790585E+02 -.20624518E-01 0.30251836E+03 0.31709675E+03 0.91188000E+02 0.0000E+00 0.9000E+01
#aMCatNLO 1  0  0  1  2 0.40008312D+02 0.00000000D+00  -5  7  0 0.00000000D+00 0.00000000D+00 0.00000000D+00 0.00000000D+00 0.00000000D+00
  <mgrwgt>
 0.5164625054D-03    9    2    0
 0.324845939752798D+03 0.000000000000000D+00 0.000000000000000D+00 0.324845939752798D+03
 0.324845939752798D+03 0.000000000000000D+00 0.000000000000000D+00 -.324845939752798D+03
 0.253557333875794D+03 -.234811276689538D+03 0.565179103454762D+01 -.284216786226970D+02
 0.250725911322641D+03 0.249214350545160D+03 -.210419554945131D+02 -.176897201755721D+02
 0.289644692555464D+02 0.123869052167816D+02 0.154108007761167D+02 -.211663005233509D+02
 0.116444165051615D+03 -.267899790724031D+02 -.206363161512053D-01 0.672776993216200D+02
 0.000000000000000D+00 -.000000000000000D+00 -.000000000000000D+00 0.000000000000000D+00
 0.355555208667204D+03 0.000000000000000D+00 0.000000000000000D+00 0.355555208667204D+03
 0.338758535454249D+03 0.000000000000000D+00 0.000000000000000D+00 -.338758535454249D+03
 0.246045912300993D+03 -.226014089768461D+03 0.182531922257476D+02 -.284216786226970D+02
 0.258923194251959D+03 0.258188428436385D+03 -.818716943131535D+01 -.176897201755721D+02
 0.302341190277852D+02 0.134292944537964D+02 0.169039559279689D+02 -.211663005233509D+02
 0.115719353003801D+03 -.227019634715883D+02 0.583518158608365D+01 0.672776993216200D+02
 0.433911655369154D+02 -.229016696501327D+02 -.328051603084848D+02 0.167966732129550D+02
0.294148214621D-05 0.000000000000D+00 0.000000000000D+00 0.431238204936D-09 0.000000000000D+00  7 2 -2 23 -13 13 23 21 0 0.16854819D+00 0.14818495D-01 0.95133456D+05 0.95133456D+05 0.95133456D+05 0.11235044D+01  1  2  2  1  7  1        2 0.267803611842D-03 0.100000000000D+01
-.162881862334D-06 0.000000000000D+00 -.112960659515D-07 0.431238204936D-09 0.000000000000D+00  7 2 -2 23 -13 13 23 21 2 0.16854819D+00 0.14818495D-01 0.95133456D+05 0.95133456D+05 0.95133456D+05 0.11235044D+01  1  2  3  1  7  1        2 -.187185624368D-04 0.100000000000D+01
0.191871028539D-06 0.000000000000D+00 0.000000000000D+00 0.431238204936D-09 0.000000000000D+00  7 2 -2 23 -13 13 23 21 2 0.16854819D+00 0.14818495D-01 0.95133456D+05 0.95133456D+05 0.95133456D+05 0.11235044D+01  1  2 15  1  7  1        2 0.220500292424D-04 0.100000000000D+01
0.574985641562D-05 0.000000000000D+00 0.000000000000D+00 0.431238204936D-09 0.000000000000D+00  7 2 -2 23 -13 13 23 21 2 0.18783445D+00 0.14818495D-01 0.10839467D+06 0.10839467D+06 0.10839467D+06 0.11188605D+01  1  2 12  1  7  1        2 0.554380387203D-03 0.100000000000D+01
-.548832449717D-05 0.000000000000D+00 0.000000000000D+00 0.431238204936D-09 0.000000000000D+00  7 2 -2 23 -13 13 23 21 2 0.16854819D+00 0.14818495D-01 0.95133456D+05 0.95133456D+05 0.95133456D+05 0.11235044D+01  1  2  4  1  7  1        2 -.630724276490D-03 0.100000000000D+01
-.160176353226D-04 0.000000000000D+00 -.314715213192D-05 0.431238204936D-09 0.000000000000D+00  7 2 -2 23 -13 13 23 21 2 0.18919487D+00 0.14818495D-01 0.95133456D+05 0.95133456D+05 0.95133456D+05 0.11235044D+01  1  2  5  1  7  1        2 -.154169158591D-02 0.100000000000D+01
0.162932985113D-04 0.000000000000D+00 0.312625620615D-05 0.431238204936D-09 0.000000000000D+00  7 2 -2 23 -13 13 23 21 2 0.16854819D+00 0.14818495D-01 0.95133456D+05 0.95133456D+05 0.95133456D+05 0.11235044D+01  1  2  6  1  7  1        2 0.187244375227D-02 0.100000000000D+01
0.100042767169D-06 0.000000000000D+00 0.000000000000D+00 0.431238204936D-09 0.000000000000D+00  7 21 -2 23 -13 13 23 -2 2 0.18783445D+00 0.14818495D-01 0.10839467D+06 0.10839467D+06 0.10839467D+06 0.11188605D+01  1  2 12  3  7  1        2 0.508340689853D-05 0.100000000000D+01
-.280817459428D-06 0.000000000000D+00 -.578428770134D-07 0.431238204936D-09 0.000000000000D+00  7 21 -2 23 -13 13 23 -2 2 0.18919487D+00 0.14818495D-01 0.95133456D+05 0.95133456D+05 0.95133456D+05 0.11235044D+01  1  2  5  3  7  1        2 -.141642572587D-04 0.100000000000D+01
  </mgrwgt>
  </event>
  <event>
  8     66 0.29152272E-05 0.13337638E+04 0.75467711E-02 0.83892697E-01
        2 -1    0    0  501    0 0.00000000E+00 0.00000000E+00 0.25358215E+04 0.25358215E+04 0.32000000E+00 0.0000E+00 0.9000E+01
       -2 -1    0    0    0  501 0.00000000E+00 0.00000000E+00 -.71672710E+03 0.71672717E+03 0.32000000E+00 0.0000E+00 0.9000E+01
       25  2    1    2    0    0 -.60953704E+03 -.11817318E+04 0.89215060E+03 0.16291062E+04 0.30004772E+03 0.0000E+00 0.0000E+00
       23  2    3    3    0    0 -.10576574E+03 -.17212427E+03 0.22114641E+03 0.31318259E+03 0.91457323E+02 0.0000E+00 0.0000E+00
       23  1    1    2    0    0 0.60953704E+03 0.11817318E+04 0.92694381E+03 0.16234425E+04 0.91188000E+02 0.0000E+00 0.9000E+01
      -11  1    4    4    0    0 -.17259085E+02 -.41596313E+02 0.45621916E+01 0.45265250E+02 0.51099893E-03 0.0000E+00 0.9000E+01
       11  1    4    4    0    0 -.88506657E+02 -.13052796E+03 0.21658422E+03 0.26791734E+03 0.51099893E-03 0.0000E+00 0.9000E+01
       23  1    3    3    0    0 -.50377130E+03 -.10096076E+04 0.67100419E+03 0.13159236E+04 0.91188000E+02 0.0000E+00 0.9000E+01
#aMCatNLO 1  0  0  1  2 0.23479007D+03 0.00000000D+00  -5  7  0 0.00000000D+00 0.00000000D+00 0.00000000D+00 0.00000000D+00 0.00000000D+00
  <mgrwgt>
 0.4162831623D-03    4    2    0
 0.134814395991231D+04 0.000000000000000D+00 0.000000000000000D+00 0.134814395991231D+04
 0.134814395991231D+04 0.000000000000000D+00 0.000000000000000D+00 -.134814395991231D+04
 0.133299101890872D+04 0.609537043622694D+03 0.118173184916270D+04 0.228961628563456D+02
 0.515257931202971D+02 -.172590852952567D+02 -.415963130503399D+02 -.250355361848880D+02
 0.177068274756695D+03 -.885066569003778D+02 -.130527958792890D+03 0.805120958800163D+02
 0.113470283303891D+04 -.503771301427059D+03 -.100960757731947D+04 -.783727225514738D+02
 0.000000000000000D+00 0.000000000000000D+00 0.000000000000000D+00 -.000000000000000D+00
 0.138709306823548D+04 0.000000000000000D+00 0.000000000000000D+00 0.138709306823548D+04
 0.176041360703383D+04 0.000000000000000D+00 0.000000000000000D+00 -.176041360703383D+04
 0.122457946966658D+04 0.539893342812186D+03 0.109511212681553D+04 0.228961628563456D+02
 0.554853969457480D+02 -.201730442018156D+02 -.452205648991030D+02 -.250355361848880D+02
 0.191425768408994D+03 -.985409019025483D+02 -.143008104246624D+03 0.805120958800163D+02
 0.123500062147627D+04 -.568299305301476D+03 -.108986462446329D+04 -.783727225514738D+02
 0.441015418771721D+03 0.147119908593653D+03 0.182981166793488D+03 -.373320538798344D+03
0.185507562983D-02 0.000000000000D+00 0.000000000000D+00 0.110518804449D-04 0.000000000000D+00  7 2 -2 23 -11 11 23 21 0 0.39012639D+00 0.11026571D+00 0.17789257D+07 0.17789257D+07 0.17789257D+07 0.10316069D+01  1  2  2  1  7  1        2 0.460546191323D-03 0.100000000000D+01
-.103045346630D-03 0.000000000000D+00 -.712397887118D-05 0.110518804449D-04 0.000000000000D+00  7 2 -2 23 -11 11 23 21 2 0.39012639D+00 0.11026571D+00 0.17789257D+07 0.17789257D+07 0.17789257D+07 0.10316069D+01  1  2  3  1  7  1        2 -.272250336084D-04 0.100000000000D+01
0.116165139502D-03 0.000000000000D+00 0.000000000000D+00 0.110518804449D-04 0.000000000000D+00  7 2 -2 23 -11 11 23 21 2 0.39012639D+00 0.11026571D+00 0.17789257D+07 0.17789257D+07 0.17789257D+07 0.10316069D+01  1  2 15  1  7  1        2 0.306913405649D-04 0.100000000000D+01
-.180653072652D-03 0.000000000000D+00 0.000000000000D+00 0.110518804449D-04 0.000000000000D+00  7 2 -2 23 -11 11 23 21 2 0.39012639D+00 0.11026571D+00 0.17789257D+07 0.17789257D+07 0.17789257D+07 0.10316069D+01  1  2  4  1  7  1        2 -.477293360180D-04 0.100000000000D+01
  </mgrwgt>
  </event>
  <event>
  8     66 0.29152272E-05 0.27650603E+03 0.75467711E-02 0.97148278E-01
        2 -1    0    0  501    0 0.00000000E+00 0.00000000E+00 0.19983523E+04 0.19983523E+04 0.32000000E+00 0.0000E+00 0.9000E+01
       -2 -1    0    0    0  501 0.00000000E+00 0.00000000E+00 -.70535906E+02 0.70536632E+02 0.32000000E+00 0.0000E+00 0.9000E+01
       25  2    1    2    0    0 -.97218225E+02 -.18467615E+03 0.17269020E+04 0.17651810E+04 0.30019475E+03 0.0000E+00 0.0000E+00
       23  2    3    3    0    0 -.14172927E+03 -.15683515E+03 0.14628464E+04 0.14809329E+04 0.92511556E+02 0.0000E+00 0.0000E+00
       23  1    1    2    0    0 0.97218225E+02 0.18467615E+03 0.20091442E+03 0.30370795E+03 0.91188000E+02 0.0000E+00 0.9000E+01
      -13  1    4    4    0    0 -.47517567E+02 -.15124646E+02 0.55802697E+03 0.56025065E+03 0.10565837E+00 0.0000E+00 0.9000E+01
       13  1    4    4    0    0 -.94211708E+02 -.14171050E+03 0.90481939E+03 0.92068227E+03 0.10565837E+00 0.0000E+00 0.9000E+01
       23  1    3    3    0    0 0.44511050E+02 -.27841008E+02 0.26405561E+03 0.28424808E+03 0.91188000E+02 0.0000E+00 0.9000E+01
#aMCatNLO 1  0  0  2  1 0.22741793D+03 0.00000000D+00  -5  7  0 0.00000000D+00 0.00000000D+00 0.00000000D+00 0.00000000D+00 0.00000000D+00
  <mgrwgt>
 0.5294383936D-03    3    2    0
 0.375441562046383D+03 0.000000000000000D+00 0.000000000000000D+00 0.375441562046383D+03
 0.375441562046383D+03 0.000000000000000D+00 0.000000000000000D+00 -.375441562046383D+03
 0.320971278007111D+03 0.972182246595323D+02 0.184676152809417D+03 -.226165084261652D+03
 0.110966310373633D+03 -.475175057043194D+02 -.151244818264900D+02 0.991305136628352D+02
 0.213700151842674D+03 -.942117687266651D+02 -.141710663397816D+03 0.129267108772209D+03
 0.105245383869349D+03 0.445110497714521D+02 -.278410075851105D+02 -.223253817339248D+01
 0.000000000000000D+00 -.000000000000000D+00 -.000000000000000D+00 0.000000000000000D+00
 0.666358351171493D+03 0.000000000000000D+00 0.000000000000000D+00 0.666358351171493D+03
 0.439459030271816D+03 0.000000000000000D+00 0.000000000000000D+00 -.439459030271816D+03
 0.394402252797902D+03 0.176827954367893D+03 0.254595983634947D+03 -.226165084261652D+03
 0.102108145974571D+03 -.238056976107935D+02 0.570118378675042D+01 0.991305136628352D+02
 0.173524884934169D+03 -.511197626813407D+02 -.103863709468197D+03 0.129267108772209D+03
 0.114531080705161D+03 0.689686851012737D+02 -.636029497726399D+01 -.223253817339248D+01
 0.321251017031506D+03 -.170871179177033D+03 -.150073162976237D+03 0.226899320899678D+03
0.107879279921D-04 0.000000000000D+00 0.000000000000D+00 0.347569979184D-06 0.000000000000D+00  7 2 -2 23 -13 13 23 21 0 0.30743887D+00 0.10851736D-01 0.76455582D+05 0.76455582D+05 0.76455582D+05 0.11314171D+01  1  2  2  2  7  2       -2 0.519392964030D-03 0.100000000000D+01
-.531154917566D-06 0.000000000000D+00 -.414284840165D-07 0.347569979184D-06 0.000000000000D+00  7 2 -2 23 -13 13 23 21 2 0.30743887D+00 0.10851736D-01 0.76455582D+05 0.76455582D+05 0.76455582D+05 0.11314171D+01  1  2  3  2  7  2       -2 -.327359323899D-04 0.100000000000D+01
0.694146435108D-06 0.000000000000D+00 0.000000000000D+00 0.347569979184D-06 0.000000000000D+00  7 2 -2 23 -13 13 23 21 2 0.30743887D+00 0.10851736D-01 0.76455582D+05 0.76455582D+05 0.76455582D+05 0.11314171D+01  1  2 15  2  7  2       -2 0.427813619284D-04 0.100000000000D+01
  </mgrwgt>
  </event>
  <event>
  8     66 0.29152272E-05 0.21954333E+03 0.75467711E-02 0.10209409E+00
        2 -1    0    0  501    0 0.00000000E+00 0.00000000E+00 0.86359392E+03 0.86359398E+03 0.32000000E+00 0.0000E+00 0.9000E+01
       -2 -1    0    0    0  501 0.00000000E+00 0.00000000E+00 -.64980104E+02 0.64980892E+02 0.32000000E+00 0.0000E+00 0.9000E+01
       25  2    1    2    0    0 0.95032695E+02 0.62817535E+02 0.61911932E+03 0.69725090E+03 0.29978797E+03 0.0000E+00 0.0000E+00
       23  2    3    3    0    0 0.14710241E+03 0.83640645E+01 0.22115681E+03 0.28208124E+03 0.94606619E+02 0.0000E+00 0.0000E+00
       23  1    1    2    0    0 -.95032695E+02 -.62817535E+02 0.17949450E+03 0.23132398E+03 0.91188000E+02 0.0000E+00 0.9000E+01
      -13  1    4    4    0    0 0.93397999E+02 -.40939375E+02 0.12198018E+03 0.15899181E+03 0.10565837E+00 0.0000E+00 0.9000E+01
       13  1    4    4    0    0 0.53704415E+02 0.49303440E+02 0.99176629E+02 0.12308943E+03 0.10565837E+00 0.0000E+00 0.9000E+01
       23  1    3    3    0    0 -.52069719E+02 0.54453470E+02 0.39796251E+03 0.41516966E+03 0.91188000E+02 0.0000E+00 0.9000E+01
#aMCatNLO 1  0  0  1  1 0.93849943D+02 0.00000000D+00  -5  7  0 0.00000000D+00 0.00000000D+00 0.00000000D+00 0.00000000D+00 0.00000000D+00
  <mgrwgt>
 0.1715474822D-03    4    2    0
 0.236889882619940D+03 0.000000000000000D+00 0.000000000000000D+00 0.236889882619940D+03
 0.236889882619940D+03 0.000000000000000D+00 0.000000000000000D+00 -.236889882619940D+03
 0.150818696374748D+03 -.950326971923787D+02 -.628175360825975D+02 -.381283550265630D+02
 0.106000211837707D+03 0.933980525041262D+02 -.409394687967210D+02 -.289276440920701D+02
 0.740721873930322D+02 0.537043716168748D+02 0.493035281661629D+02 -.131031112638749D+02
 0.142888669634393D+03 -.520697269286222D+02 0.544534767131557D+02 0.801591103825080D+02
 0.000000000000000D+00 0.000000000000000D+00 0.000000000000000D+00 -.000000000000000D+00
 0.283160490227520D+03 0.000000000000000D+00 0.000000000000000D+00 0.283160490227520D+03
 0.294338357879212D+03 0.000000000000000D+00 0.000000000000000D+00 -.294338357879212D+03
 0.176045558926287D+03 -.124184104617313D+03 -.761664242106277D+02 -.381283550265630D+02
 0.946149466975087D+02 0.755061780417695D+02 -.491324396237307D+02 -.289276440920701D+02
 0.617729725166514D+02 0.415890132104153D+02 0.437557149288340D+02 -.131031112638749D+02
 0.150552109293157D+03 -.782402596891677D+02 0.424695779950217D+02 0.801591103825080D+02
 0.945132606731286D+02 0.853291730542957D+02 0.390735709105026D+02 -.111778676516918D+02
0.137991151589D-05 0.000000000000D+00 0.000000000000D+00 0.172070023412D-07 0.000000000000D+00  7 2 -2 23 -13 13 23 21 0 0.13286067D+00 0.99970043D-02 0.48199276D+05 0.48199276D+05 0.48199276D+05 0.11486992D+01  1  2  2  1  7  1        2 0.322023043964D-03 0.100000000000D+01
-.761227241498D-07 0.000000000000D+00 -.529922356008D-08 0.172070023412D-07 0.000000000000D+00  7 2 -2 23 -13 13 23 21 2 0.13286067D+00 0.99970043D-02 0.48199276D+05 0.48199276D+05 0.48199276D+05 0.11486992D+01  1  2  3  1  7  1        2 -.234402724373D-04 0.100000000000D+01
0.870086788818D-07 0.000000000000D+00 0.000000000000D+00 0.172070023412D-07 0.000000000000D+00  7 2 -2 23 -13 13 23 21 2 0.13286067D+00 0.99970043D-02 0.48199276D+05 0.48199276D+05 0.48199276D+05 0.11486992D+01  1  2 15  1  7  1        2 0.267923561614D-04 0.100000000000D+01
-.499558162362D-06 0.000000000000D+00 0.000000000000D+00 0.172070023412D-07 0.000000000000D+00  7 2 -2 23 -13 13 23 21 2 0.13286067D+00 0.99970043D-02 0.48199276D+05 0.48199276D+05 0.48199276D+05 0.11486992D+01  1  2  4  1  7  1        2 -.153827645487D-03 0.100000000000D+01
  </mgrwgt>
  </event>
  <event>
  8     66 0.29152272E-05 0.11105505E+03 0.75467711E-02 0.10577706E+00
        2 -1    0    0  501    0 0.00000000E+00 0.00000000E+00 0.18104865E+04 0.18104865E+04 0.32000000E+00 0.0000E+00 0.9000E+01
       -2 -1    0    0    0  501 0.00000000E+00 0.00000000E+00 -.35381302E+02 0.35382749E+02 0.32000000E+00 0.0000E+00 0.9000E+01
       25  2    1    2    0    0 0.97414816E+02 -.60699365E+02 0.15024719E+04 0.15363241E+04 0.29949264E+03 0.0000E+00 0.0000E+00
       23  2    3    3    0    0 0.11870450E+03 -.50982746E+02 0.40240659E+03 0.43223777E+03 0.90600380E+02 0.0000E+00 0.0000E+00
       23  1    1    2    0    0 -.97414816E+02 0.60699365E+02 0.27263336E+03 0.30954524E+03 0.91188000E+02 0.0000E+00 0.9000E+01
      -13  1    4    4    0    0 0.12047826E+03 -.58030387E+02 0.28724817E+03 0.31685022E+03 0.10565837E+00 0.0000E+00 0.9000E+01
       13  1    4    4    0    0 -.17737577E+01 0.70476406E+01 0.11515841E+03 0.11538755E+03 0.10565837E+00 0.0000E+00 0.9000E+01
       23  1    3    3    0    0 -.21289684E+02 -.97166190E+01 0.11000653E+04 0.11040863E+04 0.91188000E+02 0.0000E+00 0.9000E+01
#aMCatNLO 1  0  0  1  2 0.34081356D+02 0.00000000D+00  -5  7  0 0.00000000D+00 0.00000000D+00 0.00000000D+00 0.00000000D+00 0.00000000D+00
  <mgrwgt>
 0.6671655060D-03    9    2    0
 0.253098264624652D+03 0.000000000000000D+00 0.000000000000000D+00 0.253098264624652D+03
 0.253098264624652D+03 0.000000000000000D+00 0.000000000000000D+00 -.253098264624652D+03
 0.172713882909605D+03 -.974148174056789D+02 0.606993656373476D+02 -.913278400420949D+02
 0.148101466306748D+03 0.120478424238898D+03 -.580304749695380D+02 -.636510611846396D+02
 0.169340269858225D+02 -.177392362162560D+01 0.704772886420660D+01 0.152952274516541D+02
 0.168447153047129D+03 -.212896832115936D+02 -.971661953201616D+01 0.139683673775080D+03
 0.000000000000000D+00 -.000000000000000D+00 0.000000000000000D+00 0.000000000000000D+00
 0.305397974860876D+03 0.000000000000000D+00 0.000000000000000D+00 0.305397974860876D+03
 0.259285102349707D+03 0.000000000000000D+00 0.000000000000000D+00 -.259285102349707D+03
 0.166381278958116D+03 -.860223083619721D+02 0.602234733394017D+02 -.913278400420949D+02
 0.156704373256594D+03 0.130718922111748D+03 -.584582450108980D+02 -.636510611846396D+02
 0.168332299919137D+02 -.639452170068591D+00 0.700033928356512D+01 0.152952274516541D+02
 0.167423669770676D+03 -.100055016107905D+02 -.101879867340823D+02 0.139683673775080D+03
 0.573405252332826D+02 -.340516599689165D+02 0.142241912201346D+01 0.461128725111692D+02
0.254728798034D-05 0.000000000000D+00 0.000000000000D+00 0.149650300177D-06 0.000000000000D+00  7 2 -2 23 -13 13 23 21 0 0.27853650D+00 0.54433907D-02 0.36429204D+05 0.36429204D+05 0.36429204D+05 0.11595917D+01  1  2  2  1  7  1        2 0.440597579480D-03 0.100000000000D+01
-.127812023678D-06 0.000000000000D+00 -.978225656084D-08 0.149650300177D-06 0.000000000000D+00  7 2 -2 23 -13 13 23 21 2 0.27853650D+00 0.54433907D-02 0.36429204D+05 0.36429204D+05 0.36429204D+05 0.11595917D+01  1  2  3  1  7  1        2 -.297266507531D-04 0.100000000000D+01
0.159646454295D-06 0.000000000000D+00 0.000000000000D+00 0.149650300177D-06 0.000000000000D+00  7 2 -2 23 -13 13 23 21 2 0.27853650D+00 0.54433907D-02 0.36429204D+05 0.36429204D+05 0.36429204D+05 0.11595917D+01  1  2 15  1  7  1        2 0.371307350766D-04 0.100000000000D+01
0.672387047802D-05 0.000000000000D+00 0.000000000000D+00 0.149650300177D-06 0.000000000000D+00  7 2 -2 23 -13 13 23 21 2 0.33902033D+00 0.54433907D-02 0.43197561D+05 0.43197561D+05 0.43197561D+05 0.11529240D+01  1  2 12  1  7  1        2 0.955440319637D-03 0.100000000000D+01
-.685242620783D-05 0.000000000000D+00 0.000000000000D+00 0.149650300177D-06 0.000000000000D+00  7 2 -2 23 -13 13 23 21 2 0.27853650D+00 0.54433907D-02 0.36429204D+05 0.36429204D+05 0.36429204D+05 0.11595917D+01  1  2  4  1  7  1        2 -.159374427248D-02 0.100000000000D+01
-.938162493851D-05 0.000000000000D+00 -.146797612826D-05 0.149650300177D-06 0.000000000000D+00  7 2 -2 23 -13 13 23 21 2 0.33885323D+00 0.54433907D-02 0.36429204D+05 0.36429204D+05 0.36429204D+05 0.11595917D+01  1  2  5  1  7  1        2 -.135360104772D-02 0.100000000000D+01
0.951377211870D-05 0.000000000000D+00 0.144021863656D-05 0.149650300177D-06 0.000000000000D+00  7 2 -2 23 -13 13 23 21 2 0.27853650D+00 0.54433907D-02 0.36429204D+05 0.36429204D+05 0.36429204D+05 0.11595917D+01  1  2  6  1  7  1        2 0.221272281729D-02 0.100000000000D+01
0.189831740107D-06 0.000000000000D+00 0.000000000000D+00 0.149650300177D-06 0.000000000000D+00  7 21 -2 23 -13 13 23 -2 2 0.33902033D+00 0.54433907D-02 0.43197561D+05 0.43197561D+05 0.43197561D+05 0.11529240D+01  1  2 12  3  7  1        2 0.482765074021D-05 0.100000000000D+01
-.248024899029D-06 0.000000000000D+00 -.413645942406D-07 0.149650300177D-06 0.000000000000D+00  7 21 -2 23 -13 13 23 -2 2 0.33885323D+00 0.54433907D-02 0.36429204D+05 0.36429204D+05 0.36429204D+05 0.11595917D+01  1  2  5  3  7  1        2 -.648162527933D-05 0.100000000000D+01
  </mgrwgt>
  </event>
  <event>
  8     66 0.29152272E-05 0.21913628E+03 0.75467711E-02 0.89149083E-01
        2 -1    0    0  501    0 0.00000000E+00 0.00000000E+00 0.38973097E+03 0.38973110E+03 0.32000000E+00 0.0000E+00 0.9000E+01
       -2 -1    0    0    0  501 0.00000000E+00 0.00000000E+00 -.24511150E+03 0.24511171E+03 0.32000000E+00 0.0000E+00 0.9000E+01
       25  2    1    2    0    0 -.42994808E+02 0.10730380E+03 0.28640862E+03 0.43043618E+03 0.29980452E+03 0.0000E+00 0.0000E+00
       23  2    3    3    0    0 -.85983304E+02 -.45912917E+02 0.15297605E+03 0.20362596E+03 0.92524243E+02 0.0000E+00 0.0000E+00
       23  1    1    2    0    0 0.42994808E+02 -.10730380E+03 -.14178914E+03 0.20440663E+03 0.91188000E+02 0.0000E+00 0.9000E+01
      -11  1    4    4    0    0 -.23073070E+02 -.37680304E+02 0.73656274E+01 0.44793128E+02 0.51099893E-03 0.0000E+00 0.9000E+01
       11  1    4    4    0    0 -.62910234E+02 -.82326123E+01 0.14561042E+03 0.15883283E+03 0.51099893E-03 0.0000E+00 0.9000E+01
       23  1    3    3    0    0 0.42988496E+02 0.15321671E+03 0.13343256E+03 0.22681021E+03 0.91188000E+02 0.0000E+00 0.9000E+01
#aMCatNLO 1  0  0  2  2 0.77730296D+03 0.00000000D+00  -5  7  0 0.00000000D+00 0.00000000D+00 0.00000000D+00 0.00000000D+00 0.00000000D+00
  <mgrwgt>
 0.3813857009D-03    5    2    0
 0.309075476355997D+03 0.000000000000000D+00 0.000000000000000D+00 0.309075476355997D+03
 0.309075476355997D+03 0.000000000000000D+00 0.000000000000000D+00 -.309075476355997D+03
 0.243098471978850D+03 0.429948083999978D+02 -.107303798290948D+03 -.193439802154144D+03
 0.442794470029339D+02 -.230730701049425D+02 -.376803042323785D+02 -.291505330541979D+01
 0.129055498933011D+03 -.629102341786198D+02 -.823261229893593D+01 0.112382598008656D+03
 0.201717534797200D+03 0.429884958835645D+02 0.153216714822263D+03 0.839722574509084D+02
 0.000000000000000D+00 -.000000000000000D+00 0.000000000000000D+00 -.000000000000000D+00
 0.866324012715393D+03 0.000000000000000D+00 0.000000000000000D+00 0.866324012715393D+03
 0.905075975609334D+03 0.000000000000000D+00 0.000000000000000D+00 -.905075975609334D+03
 0.524057005274899D+03 0.305362945070418D+03 -.368313736037881D+03 -.193439802154144D+03
 0.839880664205317D+02 0.207945805735541D+02 -.813208656130527D+02 -.291505330541979D+01
 0.158561478616819D+03 0.354551333537390D+02 -.106088772661604D+03 0.112382598008656D+03
 0.226525104745225D+03 0.189448016425324D+03 0.751537004703829D+01 0.839722574509084D+02
 0.778268333267252D+03 -.551060675423035D+03 0.548208004265500D+03 -.387519628939410D+02
0.548635985467D-05 0.000000000000D+00 0.000000000000D+00 0.212578561846D-06 0.000000000000D+00  7 2 -2 23 -11 11 23 21 0 0.59958637D-01 0.37709487D-01 0.48020710D+05 0.48020710D+05 0.48020710D+05 0.11488415D+01  1  2  2  2  7  2       -2 0.358477145667D-03 0.100000000000D+01
-.260971285821D-06 0.000000000000D+00 -.210690664337D-07 0.212578561846D-06 0.000000000000D+00  7 2 -2 23 -11 11 23 21 2 0.59958637D-01 0.37709487D-01 0.48020710D+05 0.48020710D+05 0.48020710D+05 0.11488415D+01  1  2  3  2  7  2       -2 -.225055773807D-04 0.100000000000D+01
0.335688123321D-06 0.000000000000D+00 0.000000000000D+00 0.212578561846D-06 0.000000000000D+00  7 2 -2 23 -11 11 23 21 2 0.59958637D-01 0.37709487D-01 0.48020710D+05 0.48020710D+05 0.48020710D+05 0.11488415D+01  1  2 15  2  7  2       -2 0.289489895848D-04 0.100000000000D+01
0.715540324811D-05 0.000000000000D+00 -.274313385275D-05 0.212578561846D-06 0.000000000000D+00  7 2 -2 23 -11 11 23 21 2 0.59958637D-01 0.24798401D+00 0.48020710D+05 0.48020710D+05 0.48020710D+05 0.11488415D+01  1  2  5  2  7  2       -2 0.632719862248D-05 0.100000000000D+01
0.142557886193D-05 0.000000000000D+00 -.632683525635D-06 0.212578561846D-06 0.000000000000D+00  7 2 21 23 -11 11 23 2 2 0.59958637D-01 0.24798401D+00 0.48020710D+05 0.48020710D+05 0.48020710D+05 0.11488415D+01  1  2  5  4  7  2       -2 0.101379443936D-04 0.100000000000D+01
  </mgrwgt>
  </event>
  <event>
  8     66 0.29152272E-05 0.36316721E+03 0.75467711E-02 0.92717816E-01
        2 -1    0    0  501    0 0.00000000E+00 0.00000000E+00 0.18203229E+04 0.18203230E+04 0.32000000E+00 0.0000E+00 0.9000E+01
       -2 -1    0    0    0  501 0.00000000E+00 0.00000000E+00 -.10164749E+03 0.10164799E+03 0.32000000E+00 0.0000E+00 0.9000E+01
       25  2    1    2    0    0 -.14896051E+03 0.30409801E+03 0.12958357E+04 0.13726318E+04 0.30043799E+03 0.0000E+00 0.0000E+00
       23  2    3    3    0    0 -.55882382E+02 0.14259097E+03 0.97045035E+03 0.98670569E+03 0.91428741E+02 0.0000E+00 0.0000E+00
       23  1    1    2    0    0 0.14896051E+03 -.30409801E+03 0.42283973E+03 0.54933917E+03 0.91188000E+02 0.0000E+00 0.9000E+01
      -11  1    4    4    0    0 -.72187280E+02 0.10817550E+03 0.86218093E+03 0.87193400E+03 0.51099893E-03 0.0000E+00 0.9000E+01
       11  1    4    4    0    0 0.16304898E+02 0.34415466E+02 0.10826942E+03 0.11477169E+03 0.51099893E-03 0.0000E+00 0.9000E+01
       23  1    3    3    0    0 -.93078124E+02 0.16150705E+03 0.32538537E+03 0.38592610E+03 0.91188000E+02 0.0000E+00 0.9000E+01
#aMCatNLO 1  0  0  1  1 0.37284863D+03 0.00000000D+00  -5  7  0 0.00000000D+00 0.00000000D+00 0.00000000D+00 0.00000000D+00 0.00000000D+00
  <mgrwgt>
 0.6475515168D-03    3    2    0
 0.430153188011853D+03 0.000000000000000D+00 0.000000000000000D+00 0.430153188011853D+03
 0.430153188011853D+03 0.000000000000000D+00 0.000000000000000D+00 -.430153188011853D+03
 0.382526124933174D+03 0.148960505611491D+03 -.304098012003764D+03 -.152794475606019D+03
 0.225527360142412D+03 -.721872799788288D+02 0.108175500630119D+03 0.184254302108489D+03
 0.401111343488170D+02 0.163048984491558D+02 0.344154656432921D+02 0.125948048760965D+02
 0.212141756599303D+03 -.930781240818181D+02 0.161507045730353D+03 -.440546313785666D+02
 0.000000000000000D+00 0.000000000000000D+00 0.000000000000000D+00 -.000000000000000D+00
 0.596826792799949D+03 0.000000000000000D+00 0.000000000000000D+00 0.596826792799949D+03
 0.740300105068327D+03 0.000000000000000D+00 0.000000000000000D+00 -.740300105068327D+03
 0.465968091540296D+03 0.259119203682164D+02 -.429876065391897D+03 -.152794475606019D+03
 0.234162295301752D+03 -.138851448873775D+03 0.400325847423277D+02 0.184254302108489D+03
 0.281127508312963D+02 0.641107432139286D+01 0.243021763527711D+02 0.125948048760965D+02
 0.209383206652742D+03 -.154207651385449D+03 0.990215410527798D+02 -.440546313785666D+02
 0.399500553542190D+03 0.260736105569615D+03 0.266519763244019D+03 -.143473312268378D+03
0.192687733260D-04 0.000000000000D+00 0.000000000000D+00 0.694741141865D-06 0.000000000000D+00  7 2 -2 23 -11 11 23 21 0 0.28004972D+00 0.15638116D-01 0.13189042D+06 0.13189042D+06 0.13189042D+06 0.11119886D+01  1  2  2  1  7  1        2 0.640124461043D-03 0.100000000000D+01
-.103319123192D-05 0.000000000000D+00 -.739971631565D-07 0.694741141865D-06 0.000000000000D+00  7 2 -2 23 -11 11 23 21 2 0.28004972D+00 0.15638116D-01 0.13189042D+06 0.13189042D+06 0.13189042D+06 0.11119886D+01  1  2  3  1  7  1        2 -.424416022630D-04 0.100000000000D+01
0.121399423007D-05 0.000000000000D+00 0.000000000000D+00 0.694741141865D-06 0.000000000000D+00  7 2 -2 23 -11 11 23 21 2 0.28004972D+00 0.15638116D-01 0.13189042D+06 0.13189042D+06 0.13189042D+06 0.11119886D+01  1  2 15  1  7  1        2 0.498686580667D-04 0.100000000000D+01
  </mgrwgt>
  </event>
  <event>
  9     66 0.29152272E-05 0.33794001E+03 0.75467711E-02 0.93314090E-01
        2 -1    0    0  501    0 0.00000000E+00 0.00000000E+00 0.20164638E+04 0.20164638E+04 0.32000000E+00 0.0000E+00 0.9000E+01
       -2 -1    0    0    0  502 0.00000000E+00 0.00000000E+00 -.24831947E+03 0.24831967E+03 0.32000000E+00 0.0000E+00 0.9000E+01
       25  2    1    2    0    0 0.28997793E+03 0.14630601E+03 0.12936187E+04 0.13669253E+04 0.29923723E+03 0.0000E+00 0.0000E+00
       23  2    3    3    0    0 0.23757350E+03 0.10641739E+03 0.55394755E+03 0.61875025E+03 0.90709148E+02 0.0000E+00 0.0000E+00
       23  1    1    2    0    0 -.30440979E+03 0.21908025E+03 0.16901746E+03 0.42135926E+03 0.91188000E+02 0.0000E+00 0.9000E+01
      -13  1    4    4    0    0 0.13925468E+03 0.60732086E+02 0.21778827E+03 0.26554094E+03 0.10565837E+00 0.0000E+00 0.9000E+01
       13  1    4    4    0    0 0.98318828E+02 0.45685299E+02 0.33615928E+03 0.35320931E+03 0.10565837E+00 0.0000E+00 0.9000E+01
       23  1    3    3    0    0 0.52404426E+02 0.39888625E+02 0.73967110E+03 0.74817506E+03 0.91188000E+02 0.0000E+00 0.9000E+01
       21  1    1    2  501  502 0.14431857E+02 -.36538626E+03 0.30550822E+03 0.47649893E+03 0.75000000E+00 0.0000E+00 0.9000E+01
#aMCatNLO 2  0  0  2  1 0.36567116D+03 0.00000000D+00  -5  7  0 0.00000000D+00 0.00000000D+00 0.00000000D+00 0.00000000D+00 0.00000000D+00
  <mgrwgt>
 0.4713270159D-04    1    2    0
 0.480869498475487D+03 0.000000000000000D+00 0.000000000000000D+00 0.480869498475487D+03
 0.480869498475487D+03 0.000000000000000D+00 0.000000000000000D+00 -.480869498475487D+03
 0.438639917440414D+03 -.297662284034640D+03 0.482467160300181D+02 -.305219830423472D+03
 0.141552784516584D+03 0.141382397866545D+03 0.686379424805993D+01 0.104723752063122D+01
 0.129646577940818D+03 0.100244861318929D+03 -.307950799081228D+01 0.821566770350882D+02
 0.251899717053158D+03 0.560350248491659D+02 -.520310022872658D+02 0.222015915867752D+03
 0.000000000000000D+00 0.000000000000000D+00 -.000000000000000D+00 -.000000000000000D+00
 0.638206981704365D+03 0.000000000000000D+00 0.000000000000000D+00 0.638206981704365D+03
 0.784583948966676D+03 0.000000000000000D+00 0.000000000000000D+00 -.784583948966676D+03
 0.492073032602587D+03 -.304409787744911D+03 0.219080246284490D+03 -.305219830423472D+03
 0.151925527621675D+03 0.139254732188373D+03 0.607321068286318D+02 0.104723752063122D+01
 0.136027369503302D+03 0.983187723502318D+02 0.456852785488217D+02 0.821566770350882D+02
 0.248884801636964D+03 0.524044259649970D+02 0.398886247262697D+02 0.222015915867752D+03
 0.393880199306512D+03 0.144318572413088D+02 -.365386256388213D+03 -.146376967262311D+03
0.743824503962D-05 0.000000000000D+00 0.000000000000D+00 0.476068229051D-06 0.248127883890D-10  7 2 -2 23 -13 13 23 21 2 0.31022506D+00 0.38202993D-01 0.31610616D+06 0.31610616D+06 0.31610616D+06 0.10828755D+01  1  2  1  2  7  2       -2 0.471327015936D-04 0.100000000000D+01
  </mgrwgt>
  </event>
  <event>
  8     66 0.29152272E-05 0.20433653E+03 0.75467711E-02 0.97391371E-01
        2 -1    0    0  501    0 0.00000000E+00 0.00000000E+00 0.11055029E+04 0.11055030E+04 0.32000000E+00 0.0000E+00 0.9000E+01
       -2 -1    0    0    0  501 0.00000000E+00 0.00000000E+00 -.31978747E+03 0.31978763E+03 0.32000000E+00 0.0000E+00 0.9000E+01
       25  2    1    2    0    0 0.17602693E+03 -.20012235E+03 0.99598611E+03 0.10737747E+04 0.29994896E+03 0.0000E+00 0.0000E+00
       23  2    3    3    0    0 0.21993544E+03 -.10771184E+03 0.71124652E+03 0.75776911E+03 0.91482079E+02 0.0000E+00 0.0000E+00
       23  1    1    2    0    0 -.17602693E+03 0.20012235E+03 -.21027064E+03 0.35151590E+03 0.91188000E+02 0.0000E+00 0.9000E+01
      -13  1    4    4    0    0 0.17087356E+03 -.12211854E+03 0.55801161E+03 0.59622787E+03 0.10565837E+00 0.0000E+00 0.9000E+01
       13  1    4    4    0    0 0.49061880E+02 0.14406700E+02 0.15323492E+03 0.16154124E+03 0.10565837E+00 0.0000E+00 0.9000E+01
       23  1    3    3    0    0 -.43908512E+02 -.92410509E+02 0.28473959E+03 0.31600561E+03 0.91188000E+02 0.0000E+00 0.9000E+01
#aMCatNLO 1  0  0  2  1 0.97354483D+02 0.00000000D+00  -5  7  0 0.00000000D+00 0.00000000D+00 0.00000000D+00 0.00000000D+00 0.00000000D+00
  <mgrwgt>
 0.4398315516D-03    9    2    0
 0.594580642588466D+03 0.000000000000000D+00 0.000000000000000D+00 0.594580642588466D+03
 0.594580642588466D+03 0.000000000000000D+00 0.000000000000000D+00 -.594580642588466D+03
 0.560247987847390D+03 -.176026930936741D+03 0.200122346465701D+03 -.484281036768015D+03
 0.345924520295813D+03 0.170873725017825D+03 -.122118720051808D+03 0.274868990708899D+03
 0.923707891508013D+02 0.490617175233120D+02 0.144068824381891D+02 0.769269283178311D+02
 0.190617987882928D+03 -.439085116043969D+02 -.924105088520821D+02 0.132485117741285D+03
 0.000000000000000D+00 -.000000000000000D+00 -.000000000000000D+00 -.000000000000000D+00
 0.618696344701076D+03 0.000000000000000D+00 0.000000000000000D+00 0.618696344701076D+03
 0.703657618249804D+03 0.000000000000000D+00 0.000000000000000D+00 -.703657618249804D+03
 0.571787736232635D+03 -.158418924019849D+03 0.242901803001400D+03 -.484281036768015D+03
 0.343161241242527D+03 0.181591961728384D+03 -.960782747212898D+02 0.274868990708899D+03
 0.952993074610582D+02 0.519807917971569D+02 0.214989066299010D+02 0.769269283178311D+02
 0.182891462779628D+03 -.380988389492910D+02 -.782956439494950D+02 0.132485117741285D+03
 0.129214215235032D+03 -.370549905564014D+02 -.900267909605166D+02 -.849612735487277D+02
0.339088973306D-04 0.000000000000D+00 0.000000000000D+00 0.287642947474D-05 0.000000000000D+00  7 2 -2 23 -13 13 23 21 0 0.17007739D+00 0.49198089D-01 0.11556618D+06 0.11556618D+06 0.11556618D+06 0.11166022D+01  1  2  2  2  7  2       -2 0.374650794053D-03 0.100000000000D+01
-.116795641610D-05 0.000000000000D+00 -.130219094167D-06 0.287642947474D-05 0.000000000000D+00  7 2 -2 23 -13 13 23 21 2 0.17007739D+00 0.49198089D-01 0.11556618D+06 0.11556618D+06 0.11556618D+06 0.11166022D+01  1  2  3  2  7  2       -2 -.160892800429D-04 0.100000000000D+01
0.200402619278D-05 0.000000000000D+00 0.000000000000D+00 0.287642947474D-05 0.000000000000D+00  7 2 -2 23 -13 13 23 21 2 0.17007739D+00 0.49198089D-01 0.11556618D+06 0.11556618D+06 0.11556618D+06 0.11166022D+01  1  2 15  2  7  2       -2 0.276066282820D-04 0.100000000000D+01
0.633559134687D-04 0.000000000000D+00 0.000000000000D+00 0.287642947474D-05 0.000000000000D+00  7 2 -2 23 -13 13 23 21 2 0.17007739D+00 0.59093280D-01 0.15568029D+06 0.15568029D+06 0.15568029D+06 0.11062803D+01  1  2 12  2  7  2       -2 0.587264136840D-03 0.100000000000D+01
-.681531628388D-04 0.000000000000D+00 0.000000000000D+00 0.287642947474D-05 0.000000000000D+00  7 2 -2 23 -13 13 23 21 2 0.17007739D+00 0.49198089D-01 0.11556618D+06 0.11556618D+06 0.11556618D+06 0.11166022D+01  1  2  4  2  7  2       -2 -.938849521785D-03 0.100000000000D+01
-.959601517271D-04 0.000000000000D+00 -.238584678164D-04 0.287642947474D-05 0.000000000000D+00  7 2 -2 23 -13 13 23 21 2 0.17007739D+00 0.60033658D-01 0.11556618D+06 0.11556618D+06 0.11556618D+06 0.11166022D+01  1  2  5  2  7  2       -2 -.886999120041D-03 0.100000000000D+01
0.992024109838D-04 0.000000000000D+00 0.233934971199D-04 0.287642947474D-05 0.000000000000D+00  7 2 -2 23 -13 13 23 21 2 0.17007739D+00 0.49198089D-01 0.11556618D+06 0.11556618D+06 0.11556618D+06 0.11166022D+01  1  2  6  2  7  2       -2 0.136657100320D-02 0.100000000000D+01
0.169455134743D-05 0.000000000000D+00 0.000000000000D+00 0.287642947474D-05 0.000000000000D+00  7 2 21 23 -13 13 23 2 2 0.17007739D+00 0.59093280D-01 0.15568029D+06 0.15568029D+06 0.15568029D+06 0.11062803D+01  1  2 12  4  7  2       -2 0.161988562167D-03 0.100000000000D+01
-.246353814869D-05 0.000000000000D+00 -.680265157213D-06 0.287642947474D-05 0.000000000000D+00  7 2 21 23 -13 13 23 2 2 0.17007739D+00 0.60033658D-01 0.11556618D+06 0.11556618D+06 0.11556618D+06 0.11166022D+01  1  2  5  4  7  2       -2 -.236311651046D-03 0.100000000000D+01
  </mgrwgt>
  </event>
  <event>
  9     66 0.29152272E-05 0.23670358E+03 0.75467711E-02 0.10337166E+00
        2 -1    0    0  501    0 0.00000000E+00 0.00000000E+00 0.25063143E+04 0.25063143E+04 0.32000000E+00 0.0000E+00 0.9000E+01
       21 -1    0    0  502  501 0.00000000E+00 0.00000000E+00 -.50670514E+02 0.50676064E+02 0.75000000E+00 0.0000E+00 0.9000E+01
       25  2    1    2    0    0 0.12460606E+03 0.13444049E+03 0.17490309E+04 0.17838712E+04 0.29914287E+03 0.0000E+00 0.0000E+00
       23  2    3    3    0    0 0.65085655E+01 -.43828780E+02 0.81969485E+03 0.82590059E+03 0.90822957E+02 0.0000E+00 0.0000E+00
       23  1    1    2    0    0 -.10792316E+03 -.12472999E+03 0.72339243E+03 0.74754053E+03 0.91188000E+02 0.0000E+00 0.9000E+01
      -11  1    4    4    0    0 0.13865536E+02 -.54741629E+01 0.69659008E+03 0.69674957E+03 0.51099893E-03 0.0000E+00 0.9000E+01
       11  1    4    4    0    0 -.73569705E+01 -.38354617E+02 0.12310477E+03 0.12915102E+03 0.51099893E-03 0.0000E+00 0.9000E+01
       23  1    3    3    0    0 0.11809750E+03 0.17826927E+03 0.92933604E+03 0.95797060E+03 0.91188000E+02 0.0000E+00 0.9000E+01
        2  1    1    2  502    0 -.16682909E+02 -.97104962E+01 -.16779533E+02 0.25578669E+02 0.32000000E+00 0.0000E+00 0.9000E+01
#aMCatNLO 2  0  0  2  1 0.19303191D+02 0.00000000D+00  -5  7  0 0.00000000D+00 0.00000000D+00 0.00000000D+00 0.00000000D+00 0.00000000D+00
  <mgrwgt>
 0.4986448355D-04    2    2    0
 0.271475411092230D+03 0.000000000000000D+00 0.000000000000000D+00 0.271475411092230D+03
 0.271475411092230D+03 0.000000000000000D+00 0.000000000000000D+00 -.271475411092230D+03
 0.196725358272209D+03 -.113878859091399D+03 -.128196584865328D+03 -.313505394568773D+02
 0.760958402302836D+02 0.115238268177671D+02 -.683718405268908D+01 0.749068169798758D+02
 0.424761855637807D+02 -.864728735276853D+01 -.391056620462241D+02 -.141491327442318D+02
 0.227653438118186D+03 0.111002319626400D+03 0.174139430964242D+03 -.294071447787667D+02
 0.000000000000000D+00 -.000000000000000D+00 -.000000000000000D+00 -.000000000000000D+00
 0.272124480050477D+03 0.000000000000000D+00 0.000000000000000D+00 0.272124480050477D+03
 0.466710066432677D+03 0.000000000000000D+00 0.000000000000000D+00 -.466710066432677D+03
 0.191057808886672D+03 -.107923155623549D+03 -.124729992979211D+03 -.313505394568773D+02
 0.763757211279930D+02 0.138655360089705D+02 -.547416285364962D+01 0.749068169798758D+02
 0.415379298080042D+02 -.735697049364850D+01 -.383546169382042D+02 -.141491327442318D+02
 0.234322391135847D+03 0.118097498791884D+03 0.178269268968835D+03 -.294071447787667D+02
 0.195540695524637D+03 -.166829086836569D+02 -.971049619776977D+01 -.194585586382200D+03
-.675681539587D-05 0.000000000000D+00 0.000000000000D+00 0.591040229518D-07 0.000000000000D+00  7 2 21 23 -11 11 23 2 2 0.38466736D+00 0.77978171D-02 0.61058893D+05 0.61058893D+05 0.61058893D+05 0.11397397D+01  1  2 13  4  7  2       -2 -.574272078715D-02 0.100000000000D+01
0.686580310179D-05 0.000000000000D+00 0.000000000000D+00 0.591040229518D-07 0.771038955186D-10  7 2 21 23 -11 11 23 2 2 0.38558706D+00 0.77958885D-02 0.61058893D+05 0.61058893D+05 0.61058893D+05 0.11397397D+01  1  2  1  4  7  2       -2 0.579258527070D-02 0.100000000000D+01
  </mgrwgt>
  </event>
  <event>
  8     66 0.29152272E-05 0.13707303E+03 0.75467711E-02 0.10206924E+00
        2 -1    0    0  501    0 0.00000000E+00 0.00000000E+00 0.14201687E+04 0.14201688E+04 0.32000000E+00 0.0000E+00 0.9000E+01
       -2 -1    0    0    0  501 0.00000000E+00 0.00000000E+00 -.61166772E+02 0.61167609E+02 0.32000000E+00 0.0000E+00 0.9000E+01
       25  2    1    2    0    0 0.66830967E+01 -.18830397E+03 0.63089854E+03 0.72373959E+03 0.30043798E+03 0.0000E+00 0.0000E+00
       23  2    3    3    0    0 -.48977241E+02 -.24475950E+01 0.37892659E+03 0.39291369E+03 0.91602624E+02 0.0000E+00 0.0000E+00
       23  1    1    2    0    0 -.66830967E+01 0.18830397E+03 0.72810342E+03 0.75759679E+03 0.91188000E+02 0.0000E+00 0.9000E+01
      -11  1    4    4    0    0 -.25672924E+01 -.40812272E+02 0.19965770E+03 0.20380243E+03 0.51099893E-03 0.0000E+00 0.9000E+01
       11  1    4    4    0    0 -.46409949E+02 0.38364677E+02 0.17926890E+03 0.18911126E+03 0.51099893E-03 0.0000E+00 0.9000E+01
       23  1    3    3    0    0 0.55660338E+02 -.18585638E+03 0.25197194E+03 0.33082590E+03 0.91188000E+02 0.0000E+00 0.9000E+01
#aMCatNLO 1  0  0  2  1 0.19182533D+02 0.00000000D+00  -5  7  0 0.00000000D+00 0.00000000D+00 0.00000000D+00 0.00000000D+00 0.00000000D+00
  <mgrwgt>
 0.1870414962D-03    9    2    0
 0.294733411023223D+03 0.000000000000000D+00 0.000000000000000D+00 0.294733411023223D+03
 0.294733411023223D+03 0.000000000000000D+00 0.000000000000000D+00 -.294733411023223D+03
 0.225223369661019D+03 -.668309672597728D+01 0.188303970670621D+03 0.831099617692898D+02
 0.518515096421455D+02 -.256729241385585D+01 -.408122721584119D+02 0.318801898221918D+02
 0.619383604147640D+02 -.464099486439808D+02 0.383646771395049D+02 0.145130529425689D+02
 0.250453582328518D+03 0.556603377838140D+02 -.185856375651715D+03 -.129503204534050D+03
 0.000000000000000D+00 -.000000000000000D+00 0.000000000000000D+00 -.000000000000000D+00
 0.301085457234808D+03 0.000000000000000D+00 0.000000000000000D+00 0.301085457234808D+03
 0.309736425732285D+03 0.000000000000000D+00 0.000000000000000D+00 -.309736425732285D+03
 0.224635484287817D+03 0.611195420491934D+00 0.187718433170766D+03 0.831099617692898D+02
 0.519019510238791D+02 -.884969065850207D+00 -.409473179431651D+02 0.318801898221918D+02
 0.603658122373878D+02 -.444268324771520D+02 0.382054856979050D+02 0.145130529425689D+02
 0.252875612573935D+03 0.638216314012187D+02 -.186511510291836D+03 -.129503204534050D+03
 0.210430228440735D+02 -.191210252787083D+02 0.153490936633039D+01 -.865096849747734D+01
0.179242487058D-05 0.000000000000D+00 0.000000000000D+00 0.201893997936D-06 0.000000000000D+00  7 2 -2 23 -11 11 23 21 0 0.21848756D+00 0.94103398D-02 0.68855994D+05 0.68855994D+05 0.68855994D+05 0.11352685D+01  1  2  2  2  7  2       -2 0.218800547091D-03 0.100000000000D+01
-.979447912936D-07 0.000000000000D+00 -.688338345932D-08 0.201893997936D-06 0.000000000000D+00  7 2 -2 23 -11 11 23 21 2 0.21848756D+00 0.94103398D-02 0.68855994D+05 0.68855994D+05 0.68855994D+05 0.11352685D+01  1  2  3  2  7  2       -2 -.154094077253D-04 0.100000000000D+01
0.113411290906D-06 0.000000000000D+00 0.000000000000D+00 0.201893997936D-06 0.000000000000D+00  7 2 -2 23 -11 11 23 21 2 0.21848756D+00 0.94103398D-02 0.68855994D+05 0.68855994D+05 0.68855994D+05 0.11352685D+01  1  2 15  2  7  2       -2 0.178427132178D-04 0.100000000000D+01
0.536616951766D-05 0.000000000000D+00 0.000000000000D+00 0.201893997936D-06 0.000000000000D+00  7 2 -2 23 -11 11 23 21 2 0.21848756D+00 0.99870071D-02 0.74154988D+05 0.74154988D+05 0.74154988D+05 0.11325369D+01  1  2 12  2  7  2       -2 0.766491379609D-03 0.100000000000D+01
-.514088960380D-05 0.000000000000D+00 0.000000000000D+00 0.201893997936D-06 0.000000000000D+00  7 2 -2 23 -11 11 23 21 2 0.21848756D+00 0.94103398D-02 0.68855994D+05 0.68855994D+05 0.68855994D+05 0.11352685D+01  1  2  4  2  7  2       -2 -.808803234246D-03 0.100000000000D+01
-.201776237217D-04 0.000000000000D+00 -.336184372339D-05 0.201893997936D-06 0.000000000000D+00  7 2 -2 23 -11 11 23 21 2 0.21848756D+00 0.10111543D-01 0.68855994D+05 0.68855994D+05 0.68855994D+05 0.11352685D+01  1  2  5  2  7  2       -2 -.284306347184D-02 0.100000000000D+01
0.203752553420D-04 0.000000000000D+00 0.335318026203D-05 0.201893997936D-06 0.000000000000D+00  7 2 -2 23 -11 11 23 21 2 0.21848756D+00 0.94103398D-02 0.68855994D+05 0.68855994D+05 0.68855994D+05 0.11352685D+01  1  2  6  2  7  2       -2 0.320558768798D-02 0.100000000000D+01
0.664360438790D-07 0.000000000000D+00 0.000000000000D+00 0.201893997936D-06 0.000000000000D+00  7 2 21 23 -11 11 23 2 2 0.21848756D+00 0.99870071D-02 0.74154988D+05 0.74154988D+05 0.74154988D+05 0.11325369D+01  1  2 12  4  7  2       -2 0.139218469540D-03 0.100000000000D+01
-.238947239453D-06 0.000000000000D+00 -.408015782251D-07 0.201893997936D-06 0.000000000000D+00  7 2 21 23 -11 11 23 2 2 0.21848756D+00 0.10111543D-01 0.68855994D+05 0.68855994D+05 0.68855994D+05 0.11352685D+01  1  2  5  4  7  2       -2 -.493623187468D-03 0.100000000000D+01
  </mgrwgt>
  </event>
  <event>
  8     66 0.29152272E-05 0.31259175E+03 0.75467711E-02 0.89900863E-01
        2 -1    0    0  501    0 0.00000000E+00 0.00000000E+00 0.91032711E+03 0.91032716E+03 0.32000000E+00 0.0000E+00 0.9000E+01
       -2 -1    0    0    0  501 0.00000000E+00 0.00000000E+00 -.42452444E+03 0.42452456E+03 0.32000000E+00 0.0000E+00 0.9000E+01
       25  2    1    2    0    0 -.57831010E+03 0.23145281E+02 0.31726109E+03 0.72517986E+03 0.30042130E+03 0.0000E+00 0.0000E+00
       23  2    3    3    0    0 -.48381812E+03 -.51146955E+01 0.15850047E+03 0.51721941E+03 0.91035114E+02 0.0000E+00 0.0000E+00
       23  1    1    2    0    0 0.57831010E+03 -.23145281E+02 0.16854157E+03 0.60967186E+03 0.91188000E+02 0.0000E+00 0.9000E+01
      -13  1    4    4    0    0 -.25784185E+02 -.18995804E+02 -.91132194E+00 0.32039139E+02 0.10565837E+00 0.0000E+00 0.9000E+01
       13  1    4    4    0    0 -.45803393E+03 0.13881108E+02 0.15941179E+03 0.48518027E+03 0.10565837E+00 0.0000E+00 0.9000E+01
       23  1    3    3    0    0 -.94491978E+02 0.28259976E+02 0.15876063E+03 0.20796045E+03 0.91188000E+02 0.0000E+00 0.9000E+01
#aMCatNLO 1  0  0  2  1 0.30750502D+03 0.00000000D+00  -5  7  0 0.00000000D+00 0.00000000D+00 0.00000000D+00 0.00000000D+00 0.00000000D+00
  <mgrwgt>
 0.5017067490D-03    9    2    0
 0.621656034217235D+03 0.000000000000000D+00 0.000000000000000D+00 0.621656034217235D+03
 0.621656034217235D+03 0.000000000000000D+00 0.000000000000000D+00 -.621656034217235D+03
 0.588704649949703D+03 0.578310095015676D+03 -.231452805320651D+02 -.572681719671038D+02
 0.347535534997473D+02 -.257836025794838D+02 -.189958480004240D+02 -.134971507225722D+02
 0.458615159936066D+03 -.458034514348969D+03 0.138811524989978D+02 -.184272133972267D+02
 0.161238705048953D+03 -.944919780872234D+02 0.282599760334912D+02 0.891925360869026D+02
 0.000000000000000D+00 -.000000000000000D+00 0.000000000000000D+00 -.000000000000000D+00
 0.699466706086157D+03 0.000000000000000D+00 0.000000000000000D+00 0.699466706086157D+03
 0.104052494251662D+04 0.000000000000000D+00 0.000000000000000D+00 -.104052494251662D+04
 0.739865154337964D+03 0.726706239836736D+03 -.877701129168619D+02 -.572681719671038D+02
 0.318299421936196D+02 -.183464818217206D+02 -.222346294591707D+02 -.134971507225722D+02
 0.367200189241143D+03 -.365794111355872D+03 -.262884933480894D+02 -.184272133972267D+02
 0.141879573021626D+03 -.606348305400612D+02 0.135155735565869D+02 0.891925360869026D+02
 0.459216789808424D+03 -.281930816119082D+03 0.122777662167535D+03 -.341058236430462D+03
0.596996662418D-04 0.000000000000D+00 0.000000000000D+00 0.146997320137D-05 0.000000000000D+00  7 2 -2 23 -13 13 23 21 0 0.14005034D+00 0.65311466D-01 0.36633102D+06 0.36633102D+06 0.36633102D+06 0.10781913D+01  1  2  2  2  7  2       -2 0.469826997356D-03 0.100000000000D+01
-.331376459681D-05 0.000000000000D+00 -.229262437652D-06 0.146997320137D-05 0.000000000000D+00  7 2 -2 23 -13 13 23 21 2 0.14005034D+00 0.65311466D-01 0.36633102D+06 0.36633102D+06 0.36633102D+06 0.10781913D+01  1  2  3  2  7  2       -2 -.303165214116D-04 0.100000000000D+01
0.374246888915D-05 0.000000000000D+00 0.000000000000D+00 0.146997320137D-05 0.000000000000D+00  7 2 -2 23 -13 13 23 21 2 0.14005034D+00 0.65311466D-01 0.36633102D+06 0.36633102D+06 0.36633102D+06 0.10781913D+01  1  2 15  2  7  2       -2 0.342385932662D-04 0.100000000000D+01
0.320716901829D-04 0.000000000000D+00 0.000000000000D+00 0.146997320137D-05 0.000000000000D+00  7 2 -2 23 -13 13 23 21 2 0.14005034D+00 0.11108294D+00 0.60144114D+06 0.60144114D+06 0.60144114D+06 0.10628864D+01  1  2 12  2  7  2       -2 0.819895130644D-04 0.100000000000D+01
-.502581419239D-04 0.000000000000D+00 0.000000000000D+00 0.146997320137D-05 0.000000000000D+00  7 2 -2 23 -13 13 23 21 2 0.14005034D+00 0.65311466D-01 0.36633102D+06 0.36633102D+06 0.36633102D+06 0.10781913D+01  1  2  4  2  7  2       -2 -.459794892254D-03 0.100000000000D+01
-.559948552660D-04 0.000000000000D+00 -.193161781947D-04 0.146997320137D-05 0.000000000000D+00  7 2 -2 23 -13 13 23 21 2 0.14005034D+00 0.11798210D+00 0.36633102D+06 0.36633102D+06 0.36633102D+06 0.10781913D+01  1  2  5  2  7  2       -2 -.129389214732D-03 0.100000000000D+01
0.596303035121D-04 0.000000000000D+00 0.163694758301D-04 0.146997320137D-05 0.000000000000D+00  7 2 -2 23 -13 13 23 21 2 0.14005034D+00 0.65311466D-01 0.36633102D+06 0.36633102D+06 0.36633102D+06 0.10781913D+01  1  2  6  2  7  2       -2 0.545537656762D-03 0.100000000000D+01
0.189828192700D-05 0.000000000000D+00 0.000000000000D+00 0.146997320137D-05 0.000000000000D+00  7 2 21 23 -13 13 23 2 2 0.14005034D+00 0.11108294D+00 0.60144114D+06 0.60144114D+06 0.60144114D+06 0.10628864D+01  1  2 12  4  7  2       -2 0.428966204037D-04 0.100000000000D+01
-.259641053213D-05 0.000000000000D+00 -.125182084525D-05 0.146997320137D-05 0.000000000000D+00  7 2 21 23 -13 13 23 2 2 0.14005034D+00 0.11798210D+00 0.36633102D+06 0.36633102D+06 0.36633102D+06 0.10781913D+01  1  2  5  4  7  2       -2 -.532820034493D-04 0.100000000000D+01
  </mgrwgt>
  </event>
  <event>
  7     66 0.29152272E-05 0.24562356E+03 0.75467711E-02 0.97574734E-01
        2 -1    0    0  501    0 0.00000000E+00 0.00000000E+00 0.15659495E+04 0.15659495E+04 0.32000000E+00 0.0000E+00 0.9000E+01
       -2 -1    0    0    0  501 0.00000000E+00 0.00000000E+00 -.49828494E+02 0.49829521E+02 0.32000000E+00 0.0000E+00 0.9000E+01
       25  2    1    2    0    0 0.23102601E+02 0.14250424E+03 0.62923200E+03 0.71260213E+03 0.30170798E+03 0.0000E+00 0.0000E+00
       23  1    1    2    0    0 -.23102601E+02 -.14250424E+03 0.88688902E+03 0.90317693E+03 0.91188000E+02 0.0000E+00 0.9000E+01
      -11  1    3    3    0    0 0.90180738E+01 -.41093167E+02 0.17313022E+03 0.17816859E+03 0.51099893E-03 0.0000E+00 0.9000E+01
       11  1    3    3    0    0 -.21770515E+02 -.33663315E+02 0.71488962E+02 0.81962466E+02 0.51099893E-03 0.0000E+00 0.9000E+01
       23  1    3    3    0    0 0.35855042E+02 0.21726072E+03 0.38461281E+03 0.45247107E+03 0.91188000E+02 0.0000E+00 0.9000E+01
#aMCatNLO 1  0  0  2  1 0.23310054D+03 0.00000000D+00  -5  7  0 0.00000000D+00 0.00000000D+00 0.00000000D+00 0.00000000D+00 0.00000000D+00
  <mgrwgt>
 0.1926283720D-04    3    2    0
 0.279338078513412D+03 0.000000000000000D+00 0.000000000000000D+00 0.279338078513412D+03
 0.279338078513412D+03 0.000000000000000D+00 0.000000000000000D+00 -.279338078513412D+03
 0.205312677536451D+03 -.231026005496657D+02 -.142504236615723D+03 0.114003756988966D+03
 0.454551626387222D+02 0.901807382814815D+01 -.410931671181006D+02 0.172103971815473D+02
 0.430433949906678D+02 -.217705153576019D+02 -.336633148730752D+02 -.156703460441451D+02
 0.264864921860983D+03 0.358550420791194D+02 0.217260718606898D+03 -.115543808126369D+03
 0.000000000000000D+00 -.000000000000000D+00 0.000000000000000D+00 0.000000000000000D+00
 0.712042312443747D+03 0.000000000000000D+00 0.000000000000000D+00 0.712042312443747D+03
 0.335860635432042D+03 0.000000000000000D+00 0.000000000000000D+00 -.335860635432042D+03
 0.243550900528317D+03 0.549771971772655D+02 -.187035935015406D+03 0.114003756988966D+03
 0.610158595078158D+02 0.275387029886227D+02 -.516561436620595D+02 0.172103971815473D+02
 0.457079346057215D+02 -.633222586047021D+01 -.424683229764215D+02 -.156703460441451D+02
 0.255080498341185D+03 0.126299522813022D+03 0.165676999703783D+03 -.115543808126369D+03
 0.442547754892749D+03 -.202483197118440D+03 0.115483401950104D+03 0.376181677011705D+03
0.136755492004D-06 0.000000000000D+00 0.000000000000D+00 0.116040023767D-10 0.000000000000D+00  7 2 -2 23 -11 11 23 21 0 0.24091539D+00 0.76660037D-02 0.60330933D+05 0.60330933D+05 0.60330933D+05 0.11401889D+01  1  2  2  2  7  2       -2 0.190519784437D-04 0.100000000000D+01
-.744470426629D-08 0.000000000000D+00 -.525177097844D-09 0.116040023767D-10 0.000000000000D+00  7 2 -2 23 -11 11 23 21 2 0.24091539D+00 0.76660037D-02 0.60330933D+05 0.60330933D+05 0.60330933D+05 0.11401889D+01  1  2  3  2  7  2       -2 -.134833055246D-05 0.100000000000D+01
0.860894480614D-08 0.000000000000D+00 0.000000000000D+00 0.116040023767D-10 0.000000000000D+00  7 2 -2 23 -11 11 23 21 2 0.24091539D+00 0.76660037D-02 0.60330933D+05 0.60330933D+05 0.60330933D+05 0.11401889D+01  1  2 15  2  7  2       -2 0.155918930979D-05 0.100000000000D+01
  </mgrwgt>
  </event>
  <event>
  8     66 0.29152272E-05 0.11017298E+03 0.75467711E-02 0.10218982E+00
        2 -1    0    0  501    0 0.00000000E+00 0.00000000E+00 0.12654241E+04 0.12654241E+04 0.32000000E+00 0.0000E+00 0.9000E+01
       -2 -1    0    0    0  501 0.00000000E+00 0.00000000E+00 -.42985385E+02 0.42986576E+02 0.32000000E+00 0.0000E+00 0.9000E+01
       25  2    1    2    0    0 -.17258501E+02 0.28053985E+02 0.11470584E+04 0.11856006E+04 0.29802836E+03 0.0000E+00 0.0000E+00
       23  2    3    3    0    0 -.10353010E+03 -.54093344E+02 0.57916174E+03 0.59822266E+03 0.93794728E+02 0.0000E+00 0.0000E+00
       23  1    1    2    0    0 0.17258501E+02 -.28053985E+02 0.75380297E+02 0.12281011E+03 0.91188000E+02 0.0000E+00 0.9000E+01
      -11  1    4    4    0    0 -.72192154E+02 -.26937336E+02 0.52170775E+03 0.52736733E+03 0.51099893E-03 0.0000E+00 0.9000E+01
       11  1    4    4    0    0 -.31337947E+02 -.27156008E+02 0.57453995E+02 0.70855326E+02 0.51099893E-03 0.0000E+00 0.9000E+01
       23  1    3    3    0    0 0.86271600E+02 0.82147329E+02 0.56789665E+03 0.58737793E+03 0.91188000E+02 0.0000E+00 0.9000E+01
#aMCatNLO 1  0  0  2  1 0.14192310D+03 0.00000000D+00  -5  7  0 0.00000000D+00 0.00000000D+00 0.00000000D+00 0.00000000D+00 0.00000000D+00
  <mgrwgt>
 0.3203660112D-03    9    2    0
 0.233228528665621D+03 0.000000000000000D+00 0.000000000000000D+00 0.233228528665621D+03
 0.233228528665621D+03 0.000000000000000D+00 0.000000000000000D+00 -.233228528665621D+03
 0.146933710168178D+03 0.172585009971249D+02 -.280539849959418D+02 -.110405533869303D+03
 0.112030286587244D+03 -.721921544074440D+02 -.269373355872522D+02 0.813231695538955D+02
 0.481799546631875D+02 -.313379469302008D+02 -.271560080686450D+02 -.245314561190812D+02
 0.159313105912631D+03 0.862716003405199D+02 0.821473286518390D+02 0.536138204344889D+02
 0.000000000000000D+00 0.000000000000000D+00 0.000000000000000D+00 -.000000000000000D+00
 0.286741557823792D+03 0.000000000000000D+00 0.000000000000000D+00 0.286741557823792D+03
 0.361008750441757D+03 0.000000000000000D+00 0.000000000000000D+00 -.361008750441757D+03
 0.151975077474778D+03 -.238646489357365D+02 -.449696503396794D+02 -.110405533869303D+03
 0.140532432388337D+03 -.106939124015745D+03 -.412302122409776D+02 0.813231695538955D+02
 0.623217685921786D+02 -.465405074474177D+02 -.334094547646546D+02 -.245314561190812D+02
 0.132740564609862D+03 0.460915608841857D+02 0.656196039505170D+02 0.536138204344889D+02
 0.160180465200393D+03 0.131252719514714D+03 0.539897133947946D+02 -.742671926179653D+02
0.141390640458D-05 0.000000000000D+00 0.000000000000D+00 0.308356804334D-08 0.000000000000D+00  7 2 -2 23 -11 11 23 21 0 0.19468072D+00 0.66132309D-02 0.33396855D+05 0.33396855D+05 0.33396855D+05 0.11630383D+01  1  2  2  2  7  2       -2 0.356148941097D-03 0.100000000000D+01
-.728685044262D-07 0.000000000000D+00 -.542977288369D-08 0.308356804334D-08 0.000000000000D+00  7 2 -2 23 -11 11 23 21 2 0.19468072D+00 0.66132309D-02 0.33396855D+05 0.33396855D+05 0.33396855D+05 0.11630383D+01  1  2  3  2  7  2       -2 -.248278356822D-04 0.100000000000D+01
0.867184193353D-07 0.000000000000D+00 0.000000000000D+00 0.308356804334D-08 0.000000000000D+00  7 2 -2 23 -11 11 23 21 2 0.19468072D+00 0.66132309D-02 0.33396855D+05 0.33396855D+05 0.33396855D+05 0.11630383D+01  1  2 15  2  7  2       -2 0.295467936776D-04 0.100000000000D+01
0.707248277968D-07 0.000000000000D+00 0.000000000000D+00 0.308356804334D-08 0.000000000000D+00  7 2 -2 23 -11 11 23 21 2 0.19468072D+00 0.10659292D-01 0.72817396D+05 0.72817396D+05 0.72817396D+05 0.11332057D+01  1  2 12  2  7  2       -2 0.111197261191D-04 0.100000000000D+01
-.675261439348D-06 0.000000000000D+00 0.000000000000D+00 0.308356804334D-08 0.000000000000D+00  7 2 -2 23 -11 11 23 21 2 0.19468072D+00 0.66132309D-02 0.33396855D+05 0.33396855D+05 0.33396855D+05 0.11630383D+01  1  2  4  2  7  2       -2 -.230075808343D-03 0.100000000000D+01
-.484578384889D-06 0.000000000000D+00 -.468100653808D-06 0.308356804334D-08 0.000000000000D+00  7 2 -2 23 -11 11 23 21 2 0.19468072D+00 0.12718561D-01 0.33396855D+05 0.33396855D+05 0.33396855D+05 0.11630383D+01  1  2  5  2  7  2       -2 -.613260267192D-04 0.100000000000D+01
0.716791515807D-06 0.000000000000D+00 0.383191827950D-06 0.308356804334D-08 0.000000000000D+00  7 2 -2 23 -11 11 23 21 2 0.19468072D+00 0.66132309D-02 0.33396855D+05 0.33396855D+05 0.33396855D+05 0.11630383D+01  1  2  6  2  7  2       -2 0.244225980936D-03 0.100000000000D+01
0.384538226019D-08 0.000000000000D+00 0.000000000000D+00 0.308356804334D-08 0.000000000000D+00  7 2 21 23 -11 11 23 2 2 0.19468072D+00 0.10659292D-01 0.72817396D+05 0.72817396D+05 0.72817396D+05 0.11332057D+01  1  2 12  4  7  2       -2 0.877301375818D-05 0.100000000000D+01
-.730053454000D-08 0.000000000000D+00 -.332181141522D-07 0.308356804334D-08 0.000000000000D+00  7 2 21 23 -11 11 23 2 2 0.19468072D+00 0.12718561D-01 0.33396855D+05 0.33396855D+05 0.33396855D+05 0.11630383D+01  1  2  5  4  7  2       -2 -.132187736465D-04 0.100000000000D+01
  </mgrwgt>
  </event>
  <event>
  8     66 0.29152272E-05 0.40193230E+03 0.75467711E-02 0.96650791E-01
        2 -1    0    0  501    0 0.00000000E+00 0.00000000E+00 0.16193098E+04 0.16193099E+04 0.32000000E+00 0.0000E+00 0.9000E+01
       -2 -1    0    0    0  501 0.00000000E+00 0.00000000E+00 -.26798142E+03 0.26798161E+03 0.32000000E+00 0.0000E+00 0.9000E+01
       25  2    1    2    0    0 -.15378902E+03 -.34588629E+03 0.14125825E+04 0.14931396E+04 0.30131095E+03 0.0000E+00 0.0000E+00
       23  2    3    3    0    0 -.10147931E+03 -.16645777E+03 0.35476282E+03 0.41507257E+03 0.91773289E+02 0.0000E+00 0.0000E+00
       23  1    1    2    0    0 0.15378902E+03 0.34588629E+03 -.61254053E+02 0.39415187E+03 0.91188000E+02 0.0000E+00 0.9000E+01
      -13  1    4    4    0    0 0.51114124E+00 -.56747500E+02 0.15728565E+03 0.16721043E+03 0.10565837E+00 0.0000E+00 0.9000E+01
       13  1    4    4    0    0 -.10199046E+03 -.10971027E+03 0.19747717E+03 0.24786214E+03 0.10565837E+00 0.0000E+00 0.9000E+01
       23  1    3    3    0    0 -.52309700E+02 -.17942852E+03 0.10578196E+04 0.10780670E+04 0.91188000E+02 0.0000E+00 0.9000E+01
#aMCatNLO 1  0  0  1  1 0.35720541D+02 0.00000000D+00  -5  7  0 0.00000000D+00 0.00000000D+00 0.00000000D+00 0.00000000D+00 0.00000000D+00
  <mgrwgt>
 0.5255357565D-03    4    2    0
 0.658745141358839D+03 0.000000000000000D+00 0.000000000000000D+00 0.658745141358839D+03
 0.658745141358839D+03 0.000000000000000D+00 0.000000000000000D+00 -.658745141358839D+03
 0.627445845791374D+03 0.153789015074978D+03 0.345886288233036D+03 -.492020987877036D+03
 0.782018045315627D+02 0.511277090258488D+00 -.567474302234142D+02 0.538051111955775D+02
 0.152510968633443D+03 -.101990591681753D+03 -.109710335924022D+03 0.286558362878335D+02
 0.459331663761298D+03 -.523097004834835D+02 -.179428522085599D+03 0.409560040393625D+03
 0.000000000000000D+00 -.000000000000000D+00 -.000000000000000D+00 -.000000000000000D+00
 0.662839753998733D+03 0.000000000000000D+00 0.000000000000000D+00 0.662839753998733D+03
 0.741786979706638D+03 0.000000000000000D+00 0.000000000000000D+00 -.741786979706638D+03
 0.637911511407035D+03 0.161893562039059D+03 0.361000923960616D+03 -.492020987877036D+03
 0.768811525806006D+02 0.150457523018234D+01 -.548949713974774D+02 0.538051111955775D+02
 0.148638832864126D+03 -.100061743127171D+03 -.106113115326083D+03 0.286558362878335D+02
 0.454542934647623D+03 -.464563820039634D+02 -.168512331827519D+03 0.409560040393625D+03
 0.866523022059853D+02 -.168800121381065D+02 -.314805054095369D+02 -.789472257079050D+02
0.779171179800D-04 0.000000000000D+00 0.000000000000D+00 0.540109370435D-06 0.000000000000D+00  7 2 -2 23 -13 13 23 21 0 0.24912461D+00 0.41227928D-01 0.16154957D+06 0.16154957D+06 0.16154957D+06 0.11050187D+01  1  2  2  1  7  1        2 0.618275878097D-03 0.100000000000D+01
-.304406619997D-05 0.000000000000D+00 -.299222249091D-06 0.540109370435D-06 0.000000000000D+00  7 2 -2 23 -13 13 23 21 2 0.24912461D+00 0.41227928D-01 0.16154957D+06 0.16154957D+06 0.16154957D+06 0.11050187D+01  1  2  3  1  7  1        2 -.294946151051D-04 0.100000000000D+01
0.476097280221D-05 0.000000000000D+00 0.000000000000D+00 0.540109370435D-06 0.000000000000D+00  7 2 -2 23 -13 13 23 21 2 0.24912461D+00 0.41227928D-01 0.16154957D+06 0.16154957D+06 0.16154957D+06 0.11050187D+01  1  2 15  1  7  1        2 0.461300941249D-04 0.100000000000D+01
-.112883849363D-04 0.000000000000D+00 0.000000000000D+00 0.540109370435D-06 0.000000000000D+00  7 2 -2 23 -13 13 23 21 2 0.24912461D+00 0.41227928D-01 0.16154957D+06 0.16154957D+06 0.16154957D+06 0.11050187D+01  1  2  4  1  7  1        2 -.109375600589D-03 0.100000000000D+01
  </mgrwgt>
  </event>
  <event>
  8     66 0.29152272E-05 0.18806952E+03 0.75467711E-02 0.10027653E+00
        2 -1    0    0  501    0 0.00000000E+00 0.00000000E+00 0.48321075E+03 0.48321085E+03 0.32000000E+00 0.0000E+00 0.9000E+01
       -2 -1    0    0    0  501 0.00000000E+00 0.00000000E+00 -.10358296E+03 0.10358345E+03 0.32000000E+00 0.0000E+00 0.9000E+01
       25  2    1    2    0    0 0.14369547E+02 -.73381662E+02 0.18774265E+03 0.36156884E+03 0.29982223E+03 0.0000E+00 0.0000E+00
       23  2    3    3    0    0 -.29097590E+02 0.73822008E+02 0.37062843E+02 0.12794956E+03 0.93279561E+02 0.0000E+00 0.0000E+00
       23  1    1    2    0    0 -.14369547E+02 0.73381662E+02 0.19188514E+03 0.22522547E+03 0.91188000E+02 0.0000E+00 0.9000E+01
      -13  1    4    4    0    0 0.15741284E-01 0.44197908E+01 -.28071134E+02 0.28417152E+02 0.10565837E+00 0.0000E+00 0.9000E+01
       13  1    4    4    0    0 -.29113331E+02 0.69402217E+02 0.65133977E+02 0.99532406E+02 0.10565837E+00 0.0000E+00 0.9000E+01
       23  1    3    3    0    0 0.43467137E+02 -.14720367E+03 0.15067980E+03 0.23361928E+03 0.91188000E+02 0.0000E+00 0.9000E+01
#aMCatNLO 1  0  0  2  1 0.18827376D+03 0.00000000D+00  -5  7  0 0.00000000D+00 0.00000000D+00 0.00000000D+00 0.00000000D+00 0.00000000D+00
  <mgrwgt>
 0.3476980191D-03    5    2    0
 0.223724326125930D+03 0.000000000000000D+00 0.000000000000000D+00 0.223724326125930D+03
 0.223724326125930D+03 0.000000000000000D+00 0.000000000000000D+00 -.223724326125930D+03
 0.132565136102765D+03 -.143695482592533D+02 0.733816676982174D+02 0.605550236941415D+02
 0.610831957405981D+02 0.157744886110418D-01 0.441971699285038D+01 -.609230880270595D+02
 0.752676011641354D+02 -.291133658293240D+02 0.694022949178039D+02 0.972201230956834D+00
 0.178532719244361D+03 0.434671395999662D+02 -.147203679608872D+03 -.604136898038917D+00
 0.000000000000000D+00 -.000000000000000D+00 -.000000000000000D+00 -.000000000000000D+00
 0.313481422342886D+03 0.000000000000000D+00 0.000000000000000D+00 0.313481422342886D+03
 0.367961801675787D+03 0.000000000000000D+00 0.000000000000000D+00 -.367961801675787D+03
 0.173898818581429D+03 -.790869729787904D+01 0.134892881103746D+03 0.605550236941415D+02
 0.681205205951271D+02 0.273963790596140D+01 0.303525461130119D+02 -.609230880270595D+02
 0.109422345409941D+03 -.252197457130238D+02 0.106471916137306D+03 0.972201230956834D+00
 0.134003785344965D+03 0.500560116199116D+02 -.844736282048739D+02 -.604136898038917D+00
 0.195997754087209D+03 -.196672065149701D+02 -.187243715149189D+03 -.544803793329010D+02
0.152722183519D-05 0.000000000000D+00 0.000000000000D+00 0.388979351692D-07 0.000000000000D+00  7 2 -2 23 -13 13 23 21 0 0.74340161D-01 0.15935886D-01 0.35370143D+05 0.35370143D+05 0.35370143D+05 0.11607582D+01  1  2  2  2  7  2       -2 0.337987494048D-03 0.100000000000D+01
-.817366246299D-07 0.000000000000D+00 -.586493397386D-08 0.388979351692D-07 0.000000000000D+00  7 2 -2 23 -13 13 23 21 2 0.74340161D-01 0.15935886D-01 0.35370143D+05 0.35370143D+05 0.35370143D+05 0.11607582D+01  1  2  3  2  7  2       -2 -.243724230414D-04 0.100000000000D+01
0.974468134741D-07 0.000000000000D+00 0.000000000000D+00 0.388979351692D-07 0.000000000000D+00  7 2 -2 23 -13 13 23 21 2 0.74340161D-01 0.15935886D-01 0.35370143D+05 0.35370143D+05 0.35370143D+05 0.11607582D+01  1  2 15  2  7  2       -2 0.290569248826D-04 0.100000000000D+01
-.140999665056D-06 0.000000000000D+00 -.476826174844D-06 0.388979351692D-07 0.000000000000D+00  7 2 -2 23 -13 13 23 21 2 0.74340161D-01 0.36145005D-01 0.35370143D+05 0.35370143D+05 0.35370143D+05 0.11607582D+01  1  2  5  2  7  2       -2 -.106287511606D-04 0.100000000000D+01
0.176112026491D-07 0.000000000000D+00 -.424370684610D-07 0.388979351692D-07 0.000000000000D+00  7 2 21 23 -13 13 23 2 2 0.74340161D-01 0.36145005D-01 0.35370143D+05 0.35370143D+05 0.35370143D+05 0.11607582D+01  1  2  5  4  7  2       -2 0.156547743383D-04 0.100000000000D+01
  </mgrwgt>
  </event>
  <event>
  7     66 0.29152272E-05 0.41366608E+03 0.75467711E-02 0.89342910E-01
        2 -1    0    0  501    0 0.00000000E+00 0.00000000E+00 0.12462736E+04 0.12462736E+04 0.32000000E+00 0.0000E+00 0.9000E+01
       -2 -1    0    0    0  501 0.00000000E+00 0.00000000E+00 -.26525324E+03 0.26525344E+03 0.32000000E+00 0.0000E+00 0.9000E+01
       23  2    1    2    0    0 0.33750587E+02 -.11254256E+03 0.43921239E+03 0.46353822E+03 0.90306347E+02 0.0000E+00 0.0000E+00
       23  1    1    2    0    0 0.22693904E+03 0.27566133E+03 -.52901065E+02 0.37229595E+03 0.91188000E+02 0.0000E+00 0.9000E+01
      -13  1    3    3    0    0 -.17981554E+02 -.49067197E+01 0.18722911E+02 0.26419136E+02 0.10565837E+00 0.0000E+00 0.9000E+01
       13  1    3    3    0    0 0.51732141E+02 -.10763584E+03 0.42048947E+03 0.43711909E+03 0.10565837E+00 0.0000E+00 0.9000E+01
       23  1    1    2    0    0 -.26068962E+03 -.16311877E+03 0.59470902E+03 0.67569290E+03 0.91188000E+02 0.0000E+00 0.9000E+01
#aMCatNLO 1  0  0  2  1 0.61468910D+03 0.00000000D+00  -5  7  0 0.00000000D+00 0.00000000D+00 0.00000000D+00 0.00000000D+00 0.00000000D+00
  <mgrwgt>
 0.6518054023D-03    5    2    0
 0.574959379636833D+03 0.000000000000000D+00 0.000000000000000D+00 0.574959379636833D+03
 0.574959379636833D+03 0.000000000000000D+00 0.000000000000000D+00 -.574959379636833D+03
 0.534500755406946D+03 0.226939048023198D+03 0.275661344043033D+03 -.387150226745780D+03
 0.187538333945780D+02 -.179816587168377D+02 -.490658451427811D+01 0.207162863153899D+01
 0.215849070186714D+03 0.517321912119472D+02 -.107635981230905D+03 0.179802939456895D+03
 0.380815100285429D+03 -.260689580518307D+03 -.163118778297850D+03 0.205275658657346D+03
 0.000000000000000D+00 -.000000000000000D+00 0.000000000000000D+00 -.000000000000000D+00
 0.712753388341916D+03 0.000000000000000D+00 0.000000000000000D+00 0.712753388341916D+03
 0.220549610867747D+04 0.000000000000000D+00 0.000000000000000D+00 -.220549610867747D+04
 0.519265608997535D+03 0.332130010208801D+03 0.335541292984008D+02 -.387150226745780D+03
 0.198403053724991D+02 -.141290451501408D+02 -.137737487719316D+02 0.207162863153899D+01
 0.308543467990137D+03 0.104079046755156D+03 -.228117352756380D+03 0.179802939456895D+03
 0.456250859624183D+03 -.177130476043124D+03 -.355438171815205D+03 0.205275658657346D+03
 0.161434925503503D+04 -.244949535770693D+03 0.563775144045115D+03 -.149274272033556D+04
0.530071494817D-04 0.000000000000D+00 0.000000000000D+00 0.245579261069D-08 0.000000000000D+00  7 2 -2 23 -13 13 23 21 0 0.19173442D+00 0.40808209D-01 0.17111963D+06 0.17111963D+06 0.17111963D+06 0.11030654D+01  1  2  2  2  7  2       -2 0.686442693420D-03 0.100000000000D+01
-.255671856825D-05 0.000000000000D+00 -.203561411113D-06 0.245579261069D-08 0.000000000000D+00  7 2 -2 23 -13 13 23 21 2 0.19173442D+00 0.40808209D-01 0.17111963D+06 0.17111963D+06 0.17111963D+06 0.11030654D+01  1  2  3  2  7  2       -2 -.402861080279D-04 0.100000000000D+01
0.333437995827D-05 0.000000000000D+00 0.000000000000D+00 0.245579261069D-08 0.000000000000D+00  7 2 -2 23 -13 13 23 21 2 0.19173442D+00 0.40808209D-01 0.17111963D+06 0.17111963D+06 0.17111963D+06 0.11030654D+01  1  2 15  2  7  2       -2 0.525396861715D-04 0.100000000000D+01
-.352077163299D-04 0.000000000000D+00 -.196438879737D-04 0.245579261069D-08 0.000000000000D+00  7 2 -2 23 -13 13 23 21 2 0.19173442D+00 0.17518385D+00 0.17111963D+06 0.17111963D+06 0.17111963D+06 0.11030654D+01  1  2  5  2  7  2       -2 -.189937169249D-04 0.100000000000D+01
-.618011340109D-05 0.000000000000D+00 -.344430499126D-05 0.245579261069D-08 0.000000000000D+00  7 2 21 23 -13 13 23 2 2 0.19173442D+00 0.17518385D+00 0.17111963D+06 0.17111963D+06 0.17111963D+06 0.11030654D+01  1  2  5  4  7  2       -2 -.278971523774D-04 0.100000000000D+01
  </mgrwgt>
  </event>
  <event>
  9     66 -.29152272E-05 0.37241657E+03 0.75467711E-02 0.97021321E-01
        2 -1    0    0  501    0 0.00000000E+00 0.00000000E+00 0.23882273E+03 0.23882294E+03 0.32000000E+00 0.0000E+00 0.9000E+01
       -2 -1    0    0    0  502 0.00000000E+00 0.00000000E+00 -.11826965E+04 0.11826965E+04 0.32000000E+00 0.0000E+00 0.9000E+01
       25  2    1    2    0    0 0.31323926E+03 0.82481701E+02 -.89850378E+03 0.10012413E+04 0.30042128E+03 0.0000E+00 0.0000E+00
       23  2    3    3    0    0 0.14132245E+03 0.15882507E+03 -.47733759E+03 0.53104989E+03 0.94685700E+02 0.0000E+00 0.0000E+00
       23  1    1    2    0    0 -.29135287E+03 -.18778736E+02 0.43307030E+02 0.30891728E+03 0.91188000E+02 0.0000E+00 0.9000E+01
      -11  1    4    4    0    0 0.44484671E+02 0.11875931E+03 -.28695849E+03 0.31373211E+03 0.51099893E-03 0.0000E+00 0.9000E+01
       11  1    4    4    0    0 0.96837778E+02 0.40065759E+02 -.19037909E+03 0.21731778E+03 0.51099893E-03 0.0000E+00 0.9000E+01
       23  1    3    3    0    0 0.17191681E+03 -.76343372E+02 -.42116620E+03 0.47019136E+03 0.91188000E+02 0.0000E+00 0.9000E+01
       21  1    1    2  501  502 -.21886386E+02 -.63702965E+02 -.88676972E+02 0.11136090E+03 0.75000000E+00 0.0000E+00 0.9000E+01
#aMCatNLO 2  0  0  2  1 0.67357863D+02 0.00000000D+00  -5  7  0 0.00000000D+00 0.00000000D+00 0.00000000D+00 0.00000000D+00 0.00000000D+00
  <mgrwgt>
 -.2404292045D-04    2    2    0
 0.495130495532981D+03 0.000000000000000D+00 0.000000000000000D+00 0.495130495532981D+03
 0.495130495532981D+03 0.000000000000000D+00 0.000000000000000D+00 -.495130495532981D+03
 0.453758729770671D+03 -.301274343574999D+03 -.476563740075392D+02 0.323333223500154D+03
 0.158638889846598D+03 0.408916144713147D+02 0.108301291086100D+03 -.108466601250221D+03
 0.118390436435554D+03 0.941752337829497D+02 0.323161038526370D+02 -.640545877600756D+02
 0.259472935013138D+03 0.166207495320734D+03 -.929610209311975D+02 -.150812034489857D+03
 0.000000000000000D+00 -.000000000000000D+00 -.000000000000000D+00 -.000000000000000D+00
 0.521016375159585D+03 0.000000000000000D+00 0.000000000000000D+00 0.521016375159585D+03
 0.542118941095520D+03 0.000000000000000D+00 0.000000000000000D+00 -.542118941095520D+03
 0.445082870751562D+03 -.291352872224847D+03 -.187787358409259D+02 0.323333223500154D+03
 0.166876194823946D+03 0.444846708949654D+02 0.118759314866295D+03 -.108466601250221D+03
 0.122824307043881D+03 0.968377776230154D+02 0.400657586067165D+02 -.640545877600756D+02
 0.257765826216695D+03 0.171916810007268D+03 -.763433724112980D+02 -.150812034489857D+03
 0.705861174190209D+02 -.218863863004017D+02 -.637029652207878D+02 -.211025659359352D+02
-.117470109485D-03 0.000000000000D+00 0.000000000000D+00 0.129850265837D-06 0.000000000000D+00  7 2 -2 23 -11 11 23 21 2 0.34916379D-01 0.18597079D+00 0.16560171D+06 0.16560171D+06 0.16560171D+06 0.11041766D+01  1  2 13  2  7  2       -2 -.419672713371D-03 0.100000000000D+01
0.109862906270D-03 0.000000000000D+00 0.000000000000D+00 0.129850265837D-06 0.186729644725D-09  7 2 -2 23 -11 11 23 21 2 0.36741839D-01 0.18195263D+00 0.16560171D+06 0.16560171D+06 0.16560171D+06 0.11041766D+01  1  2  1  2  7  2       -2 0.395629792921D-03 0.100000000000D+01
  </mgrwgt>
  </event>
  <event>
  8     66 0.29152272E-05 0.16403333E+03 0.75467711E-02 0.10822526E+00
        2 -1    0    0  501    0 0.00000000E+00 0.00000000E+00 0.36208974E+03 0.36208988E+03 0.32000000E+00 0.0000E+00 0.9000E+01
       -2 -1    0    0    0  501 0.00000000E+00 0.00000000E+00 -.14398974E+03 0.14399009E+03 0.32000000E+00 0.0000E+00 0.9000E+01
       25  2    1    2    0    0 0.74997413E+02 0.64592291E+02 0.18877029E+03 0.36834015E+03 0.30040550E+03 0.0000E+00 0.0000E+00
       23  2    3    3    0    0 0.81134376E+02 0.61827153E+02 -.18076563E+02 0.14218494E+03 0.97387937E+02 0.0000E+00 0.0000E+00
       23  1    1    2    0    0 -.74997413E+02 -.64592291E+02 0.29329712E+02 0.13773982E+03 0.91188000E+02 0.0000E+00 0.9000E+01
      -11  1    4    4    0    0 0.61879789E+02 0.45551484E+02 0.34231478E+02 0.84118013E+02 0.51099893E-03 0.0000E+00 0.9000E+01
       11  1    4    4    0    0 0.19254587E+02 0.16275670E+02 -.52308041E+02 0.58066924E+02 0.51099893E-03 0.0000E+00 0.9000E+01
       23  1    3    3    0    0 -.61369632E+01 0.27651372E+01 0.20684685E+03 0.22615521E+03 0.91188000E+02 0.0000E+00 0.9000E+01
#aMCatNLO 1  0  0  2  1 0.21341625D+02 0.00000000D+00  -5  7  0 0.00000000D+00 0.00000000D+00 0.00000000D+00 0.00000000D+00 0.00000000D+00
  <mgrwgt>
 0.3039845534D-03    4    2    0
 0.228336007332515D+03 0.000000000000000D+00 0.000000000000000D+00 0.228336007332515D+03
 0.228336007332515D+03 0.000000000000000D+00 0.000000000000000D+00 -.228336007332515D+03
 0.138634631987546D+03 -.749974131827278D+02 -.645922907036560D+02 -.332796310057045D+02
 0.768703902978677D+02 0.618797886791006D+02 0.455514834874881D+02 -.223852845982829D+01
 0.893308325154064D+02 0.192545877154375D+02 0.162756700430038D+02 -.856992476889697D+02
 0.151836159864210D+03 -.613696321181030D+01 0.276513717316415D+01 0.121217407154502D+03
 0.000000000000000D+00 0.000000000000000D+00 -.000000000000000D+00 0.000000000000000D+00
 0.280445908364287D+03 0.000000000000000D+00 0.000000000000000D+00 0.280445908364287D+03
 0.230780827650251D+03 0.000000000000000D+00 0.000000000000000D+00 -.230780827650251D+03
 0.137080301542601D+03 -.771042561055286D+02 -.585077565588333D+02 -.332796310057045D+02
 0.780196517706538D+02 0.606962148161756D+02 0.489696289524159D+02 -.223852845982829D+01
 0.898526449592773D+02 0.178853784507566D+02 0.202299280620515D+02 -.856992476889697D+02
 0.152217822816977D+03 -.846035561337279D+01 0.947506331247767D+01 0.121217407154502D+03
 0.540563149250281D+02 0.698301845196921D+01 -.201668637681118D+02 0.496650807140358D+02
0.188319434550D-05 0.000000000000D+00 0.000000000000D+00 0.357572466370D-08 0.000000000000D+00  7 2 -2 23 -11 11 23 21 0 0.55706152D-01 0.22152306D-01 0.26906932D+05 0.26906932D+05 0.26906932D+05 0.11717461D+01  1  2  2  2  7  2       -2 0.332592080201D-03 0.100000000000D+01
-.907063609375D-07 0.000000000000D+00 -.723196214318D-08 0.357572466370D-08 0.000000000000D+00  7 2 -2 23 -11 11 23 21 2 0.55706152D-01 0.22152306D-01 0.26906932D+05 0.26906932D+05 0.26906932D+05 0.11717461D+01  1  2  3  2  7  2       -2 -.219948754724D-04 0.100000000000D+01
0.124322112763D-06 0.000000000000D+00 0.000000000000D+00 0.357572466370D-08 0.000000000000D+00  7 2 -2 23 -11 11 23 21 2 0.55706152D-01 0.22152306D-01 0.26906932D+05 0.26906932D+05 0.26906932D+05 0.11717461D+01  1  2 15  2  7  2       -2 0.301461701300D-04 0.100000000000D+01
-.151592534858D-06 0.000000000000D+00 0.000000000000D+00 0.357572466370D-08 0.000000000000D+00  7 2 -2 23 -11 11 23 21 2 0.55706152D-01 0.22152306D-01 0.26906932D+05 0.26906932D+05 0.26906932D+05 0.11717461D+01  1  2  4  2  7  2       -2 -.367588214574D-04 0.100000000000D+01
  </mgrwgt>
  </event>
  <event>
  8     66 0.29152272E-05 0.35947437E+03 0.75467711E-02 0.92524290E-01
        2 -1    0    0  501    0 0.00000000E+00 0.00000000E+00 0.18123622E+04 0.18123623E+04 0.32000000E+00 0.0000E+00 0.9000E+01
       -2 -1    0    0    0  501 0.00000000E+00 0.00000000E+00 -.89426830E+02 0.89427402E+02 0.32000000E+00 0.0000E+00 0.9000E+01
       25  2    1    2    0    0 -.31478649E+03 -.27525966E+02 0.69185310E+03 0.81952622E+03 0.30514634E+03 0.0000E+00 0.0000E+00
       23  2    3    3    0    0 -.23005527E+03 -.82378574E+02 0.26583174E+03 0.37231526E+03 0.90777088E+02 0.0000E+00 0.0000E+00
       23  1    1    2    0    0 0.31478649E+03 0.27525966E+02 0.10310823E+04 0.10822635E+04 0.91188000E+02 0.0000E+00 0.9000E+01
      -11  1    4    4    0    0 -.22033994E+03 -.58073656E+02 0.20669335E+03 0.30764327E+03 0.51099893E-03 0.0000E+00 0.9000E+01
       11  1    4    4    0    0 -.97153252E+01 -.24304918E+02 0.59138393E+02 0.64671988E+02 0.51099893E-03 0.0000E+00 0.9000E+01
       23  1    3    3    0    0 -.84731220E+02 0.54852608E+02 0.42602136E+03 0.44721096E+03 0.91188000E+02 0.0000E+00 0.9000E+01
#aMCatNLO 1  0  0  2  1 0.39729217D+03 0.00000000D+00  -5  7  0 0.00000000D+00 0.00000000D+00 0.00000000D+00 0.00000000D+00 0.00000000D+00
  <mgrwgt>
 0.5571699123D-03    5    2    0
 0.402584626105007D+03 0.000000000000000D+00 0.000000000000000D+00 0.402584626105007D+03
 0.402584626105007D+03 0.000000000000000D+00 0.000000000000000D+00 -.402584626105007D+03
 0.349925488359745D+03 0.314786488858185D+03 0.275259656945402D+02 0.119517294584194D+03
 0.284354503364574D+03 -.220339943999663D+03 -.580736559040666D+02 -.170103624746431D+03
 0.262067738270480D+02 -.971532524184595D+01 -.243049179524109D+02 0.129553587127995D+01
 0.144682486658647D+03 -.847312196166754D+02 0.548526081619373D+02 0.492907942909566D+02
 0.000000000000000D+00 -.000000000000000D+00 0.000000000000000D+00 -.000000000000000D+00
 0.609803259574503D+03 0.000000000000000D+00 0.000000000000000D+00 0.609803259574503D+03
 0.694208092622975D+03 0.000000000000000D+00 0.000000000000000D+00 -.694208092622975D+03
 0.476960076707292D+03 0.435674323879604D+03 -.122797244415135D+03 0.119517294584194D+03
 0.271282813047878D+03 -.139107673083473D+03 -.159085438656706D+03 -.170103624746431D+03
 0.355648543255852D+02 -.684524961138955D+00 -.355346573866121D+02 0.129553587127995D+01
 0.114044468469530D+03 -.469062257015942D+02 0.781748252926705D+01 0.492907942909566D+02
 0.406159139647193D+03 -.248975900133397D+03 0.309599857929186D+03 -.844048330484715D+02
0.123034025745D-04 0.000000000000D+00 0.000000000000D+00 0.107760633209D-07 0.000000000000D+00  7 2 -2 23 -11 11 23 21 0 0.27882501D+00 0.13758020D-01 0.12922182D+06 0.12922182D+06 0.12922182D+06 0.11126986D+01  1  2  2  2  7  2       -2 0.506982397466D-03 0.100000000000D+01
-.672861166463D-06 0.000000000000D+00 -.472483054464D-07 0.107760633209D-07 0.000000000000D+00  7 2 -2 23 -11 11 23 21 2 0.27882501D+00 0.13758020D-01 0.12922182D+06 0.12922182D+06 0.12922182D+06 0.11126986D+01  1  2  3  2  7  2       -2 -.343279730923D-04 0.100000000000D+01
0.793658212143D-06 0.000000000000D+00 0.000000000000D+00 0.107760633209D-07 0.000000000000D+00  7 2 -2 23 -11 11 23 21 2 0.27882501D+00 0.13758020D-01 0.12922182D+06 0.12922182D+06 0.12922182D+06 0.11126986D+01  1  2 15  2  7  2       -2 0.404907863745D-04 0.100000000000D+01
0.116059062704D-05 0.000000000000D+00 -.391380896286D-05 0.107760633209D-07 0.000000000000D+00  7 2 -2 23 -11 11 23 21 2 0.27882501D+00 0.39032189D-01 0.12922182D+06 0.12922182D+06 0.12922182D+06 0.11126986D+01  1  2  5  2  7  2       -2 0.100427466442D-04 0.100000000000D+01
0.350763720252D-06 0.000000000000D+00 -.459456967484D-06 0.107760633209D-07 0.000000000000D+00  7 2 21 23 -11 11 23 2 2 0.27882501D+00 0.39032189D-01 0.12922182D+06 0.12922182D+06 0.12922182D+06 0.11126986D+01  1  2  5  4  7  2       -2 0.339819549298D-04 0.100000000000D+01
  </mgrwgt>
  </event>
  <event>
  8     66 0.29152272E-05 0.26758816E+03 0.75467711E-02 0.92464428E-01
        2 -1    0    0  501    0 0.00000000E+00 0.00000000E+00 0.39175047E+03 0.39175060E+03 0.32000000E+00 0.0000E+00 0.9000E+01
       -2 -1    0    0    0  501 0.00000000E+00 0.00000000E+00 -.35393044E+03 0.35393058E+03 0.32000000E+00 0.0000E+00 0.9000E+01
       25  2    1    2    0    0 0.35477920E+01 -.20986427E+03 0.24099885E+03 0.43965425E+03 0.30192683E+03 0.0000E+00 0.0000E+00
       23  2    3    3    0    0 0.58607846E+02 -.15113720E+03 0.25682376E+03 0.31699147E+03 0.90817490E+02 0.0000E+00 0.0000E+00
       23  1    1    2    0    0 -.35477920E+01 0.20986427E+03 -.20317882E+03 0.30602693E+03 0.91188000E+02 0.0000E+00 0.9000E+01
      -11  1    4    4    0    0 -.23760621E+02 -.32196359E+02 0.70857211E+02 0.81375162E+02 0.51099893E-03 0.0000E+00 0.9000E+01
       11  1    4    4    0    0 0.82368467E+02 -.11894084E+03 0.18596654E+03 0.23561630E+03 0.51099893E-03 0.0000E+00 0.9000E+01
       23  1    3    3    0    0 -.55060054E+02 -.58727078E+02 -.15824903E+02 0.12266278E+03 0.91188000E+02 0.0000E+00 0.9000E+01
#aMCatNLO 1  0  0  1  1 0.48803848D+03 0.00000000D+00  -5  7  0 0.00000000D+00 0.00000000D+00 0.00000000D+00 0.00000000D+00 0.00000000D+00
  <mgrwgt>
 0.4374340576D-03    5    2    0
 0.372360735821393D+03 0.000000000000000D+00 0.000000000000000D+00 0.372360735821393D+03
 0.372360735821393D+03 0.000000000000000D+00 0.000000000000000D+00 -.372360735821393D+03
 0.316739565646731D+03 -.354779202795490D+01 0.209864273537365D+03 -.218981964934193D+03
 0.778816068701190D+02 -.237606207774355D+02 -.321963585200441D+02 0.668159568291247D+02
 0.226475789393467D+03 0.823684669217081D+02 -.118940836951960D+03 0.174240627132505D+03
 0.123624509732469D+03 -.550600541163177D+02 -.587270780653610D+02 -.220746190274364D+02
 0.000000000000000D+00 -.000000000000000D+00 0.000000000000000D+00 0.000000000000000D+00
 0.705030016312173D+03 0.000000000000000D+00 0.000000000000000D+00 0.705030016312173D+03
 0.674359713736648D+03 0.000000000000000D+00 0.000000000000000D+00 -.674359713736648D+03
 0.337220117463472D+03 0.183526719794781D+03 0.154165490408864D+03 -.218981964934193D+03
 0.842123686870307D+02 0.226086771012079D+02 -.460021594343380D+02 0.668159568291247D+02
 0.344750747672673D+03 0.245775980139663D+03 -.167593106850271D+03 0.174240627132505D+03
 0.124205238962881D+03 0.158351867521029D+02 -.798351307204158D+02 -.220746190274364D+02
 0.489001257262764D+03 -.467746563787755D+03 0.139264906596160D+03 0.306703025755249D+02
0.118816559805D-04 0.000000000000D+00 0.000000000000D+00 0.638961125845D-07 0.000000000000D+00  7 2 -2 23 -11 11 23 21 0 0.60269324D-01 0.54450858D-01 0.71603425D+05 0.71603425D+05 0.71603425D+05 0.11338244D+01  1  2  2  1  7  1        2 0.382516801416D-03 0.100000000000D+01
-.572472072725D-06 0.000000000000D+00 -.456286874771D-07 0.638961125845D-07 0.000000000000D+00  7 2 -2 23 -11 11 23 21 2 0.60269324D-01 0.54450858D-01 0.71603425D+05 0.71603425D+05 0.71603425D+05 0.11338244D+01  1  2  3  1  7  1        2 -.236929680163D-04 0.100000000000D+01
0.778773235301D-06 0.000000000000D+00 0.000000000000D+00 0.638961125845D-07 0.000000000000D+00  7 2 -2 23 -11 11 23 21 2 0.60269324D-01 0.54450858D-01 0.71603425D+05 0.71603425D+05 0.71603425D+05 0.11338244D+01  1  2 15  1  7  1        2 0.322311781396D-04 0.100000000000D+01
0.394510840368D-05 0.000000000000D+00 -.389971141406D-05 0.638961125845D-07 0.000000000000D+00  7 2 -2 23 -11 11 23 21 2 0.18170398D+00 0.54450858D-01 0.71603425D+05 0.71603425D+05 0.71603425D+05 0.11338244D+01  1  2  5  1  7  1        2 0.421905793814D-04 0.100000000000D+01
0.688961564756D-06 0.000000000000D+00 -.490116592387D-06 0.638961125845D-07 0.000000000000D+00  7 21 -2 23 -11 11 23 -2 2 0.18170398D+00 0.54450858D-01 0.71603425D+05 0.71603425D+05 0.71603425D+05 0.11338244D+01  1  2  5  3  7  1        2 0.418846664580D-05 0.100000000000D+01
  </mgrwgt>
  </event>
  <event>
  8     66 0.29152272E-05 0.32551440E+03 0.75467711E-02 0.98139733E-01
        2 -1    0    0  501    0 0.00000000E+00 0.00000000E+00 0.23491577E+03 0.23491599E+03 0.32000000E+00 0.0000E+00 0.9000E+01
       -2 -1    0    0    0  501 0.00000000E+00 0.00000000E+00 -.49186348E+03 0.49186358E+03 0.32000000E+00 0.0000E+00 0.9000E+01
       25  2    1    2    0    0 -.26128582E+03 0.25284477E+02 -.11604297E+03 0.41520457E+03 0.30003214E+03 0.0000E+00 0.0000E+00
       23  2    3    3    0    0 -.27552058E+03 -.38786948E+01 -.37120728E+02 0.29031626E+03 0.83540096E+02 0.0000E+00 0.0000E+00
       23  1    1    2    0    0 0.26128582E+03 -.25284477E+02 -.14090474E+03 0.31157500E+03 0.91188000E+02 0.0000E+00 0.9000E+01
      -11  1    4    4    0    0 -.22125789E+03 0.52474534E+01 -.62128798E+02 0.22987513E+03 0.51099893E-03 0.0000E+00 0.9000E+01
       11  1    4    4    0    0 -.54262697E+02 -.91261481E+01 0.25008070E+02 0.60441132E+02 0.51099893E-03 0.0000E+00 0.9000E+01
       23  1    3    3    0    0 0.14234769E+02 0.29163172E+02 -.78922238E+02 0.12488831E+03 0.91188000E+02 0.0000E+00 0.9000E+01
#aMCatNLO 1  0  0  2  1 0.85136098D+02 0.00000000D+00  -5  7  0 0.00000000D+00 0.00000000D+00 0.00000000D+00 0.00000000D+00 0.00000000D+00
  <mgrwgt>
 0.4887703354D-03    4    2    0
 0.339921470181599D+03 0.000000000000000D+00 0.000000000000000D+00 0.339921470181599D+03
 0.339921470181599D+03 0.000000000000000D+00 0.000000000000000D+00 -.339921470181599D+03
 0.279831094880167D+03 0.261285816087879D+03 -.252844773174209D+02 -.328726000783216D+02
 0.222264127483103D+03 -.221257887918221D+03 0.524745337813621D+01 0.204634706938382D+02
 0.740658510222507D+02 -.542626967513522D+02 -.912614814876103D+01 0.495784575081547D+02
 0.103681866977676D+03 0.142347685816942D+02 0.291631720880457D+02 -.371693281236713D+02
 0.000000000000000D+00 -.000000000000000D+00 0.000000000000000D+00 0.000000000000000D+00
 0.489312580022027D+03 0.000000000000000D+00 0.000000000000000D+00 0.489312580022027D+03
 0.354925444004444D+03 0.000000000000000D+00 0.000000000000000D+00 -.354925444004444D+03
 0.285290561891820D+03 0.261401582428836D+03 -.605314647794173D+02 -.328726000783216D+02
 0.223252021819484D+03 -.221166623013003D+03 -.225396645643656D+02 0.204634706938382D+02
 0.757648883486725D+02 -.542320036143046D+02 -.184711840870305D+02 0.495784575081547D+02
 0.100845488078737D+03 0.142766664336643D+02 0.164066743801242D+02 -.371693281236713D+02
 0.159085063887758D+03 -.279622235192693D+00 0.851356390506891D+02 0.134387136017583D+03
0.190256798812D-04 0.000000000000D+00 0.000000000000D+00 0.113485849985D-07 0.000000000000D+00  7 2 -2 23 -11 11 23 21 0 0.36140913D-01 0.75671329D-01 0.10595962D+06 0.10595962D+06 0.10595962D+06 0.11196648D+01  1  2  2  2  7  2       -2 0.536324253732D-03 0.100000000000D+01
-.105457184450D-05 0.000000000000D+00 -.730636203206D-07 0.113485849985D-07 0.000000000000D+00  7 2 -2 23 -11 11 23 21 2 0.36140913D-01 0.75671329D-01 0.10595962D+06 0.10595962D+06 0.10595962D+06 0.11196648D+01  1  2  3  2  7  2       -2 -.372682909267D-04 0.100000000000D+01
0.121244502346D-05 0.000000000000D+00 0.000000000000D+00 0.113485849985D-07 0.000000000000D+00  7 2 -2 23 -11 11 23 21 2 0.36140913D-01 0.75671329D-01 0.10595962D+06 0.10595962D+06 0.10595962D+06 0.11196648D+01  1  2 15  2  7  2       -2 0.428474874452D-04 0.100000000000D+01
-.150349494270D-05 0.000000000000D+00 0.000000000000D+00 0.113485849985D-07 0.000000000000D+00  7 2 -2 23 -11 11 23 21 2 0.36140913D-01 0.75671329D-01 0.10595962D+06 0.10595962D+06 0.10595962D+06 0.11196648D+01  1  2  4  2  7  2       -2 -.531331148503D-04 0.100000000000D+01
  </mgrwgt>
  </event>
  <event>
  8     66 0.29152272E-05 0.22113115E+03 0.75467711E-02 0.99828892E-01
        2 -1    0    0  501    0 0.00000000E+00 0.00000000E+00 0.17260507E+04 0.17260507E+04 0.32000000E+00 0.0000E+00 0.9000E+01
       -2 -1    0    0    0  501 0.00000000E+00 0.00000000E+00 -.90183495E+02 0.90184063E+02 0.32000000E+00 0.0000E+00 0.9000E+01
       25  2    1    2    0    0 0.22618140E+03 0.91486096E+02 0.41240607E+03 0.56535504E+03 0.30003305E+03 0.0000E+00 0.0000E+00
       23  2    3    3    0    0 0.10419462E+03 0.16404681E+03 0.18776937E+03 0.28442315E+03 0.88720438E+02 0.0000E+00 0.0000E+00
       23  1    1    2    0    0 -.22618140E+03 -.91486096E+02 0.12234611E+04 0.12508797E+04 0.91188000E+02 0.0000E+00 0.9000E+01
      -11  1    4    4    0    0 0.48810502E+02 0.10338022E+03 0.51676891E+02 0.12546089E+03 0.51099893E-03 0.0000E+00 0.9000E+01
       11  1    4    4    0    0 0.55384118E+02 0.60666595E+02 0.13609248E+03 0.15896226E+03 0.51099893E-03 0.0000E+00 0.9000E+01
       23  1    3    3    0    0 0.12198678E+03 -.72560717E+02 0.22463669E+03 0.28093189E+03 0.91188000E+02 0.0000E+00 0.9000E+01
#aMCatNLO 1  0  0  1  2 0.22804847D+02 0.00000000D+00  -5  7  0 0.00000000D+00 0.00000000D+00 0.00000000D+00 0.00000000D+00 0.00000000D+00
  <mgrwgt>
 0.4286757364D-03    6    2    0
 0.394540019053751D+03 0.000000000000000D+00 0.000000000000000D+00 0.394540019053751D+03
 0.394540019053751D+03 0.000000000000000D+00 0.000000000000000D+00 -.394540019053751D+03
 0.342767971409219D+03 -.226181403472358D+03 -.914860960019218D+02 0.222815838399323D+03
 0.181641785235635D+03 0.488105020983197D+02 0.103380217760266D+03 -.141151704220453D+03
 0.837475989465012D+02 0.553841183733002D+02 0.606665952201448D+02 -.163041094731171D+02
 0.180922682516146D+03 0.121986783000738D+03 -.725607169784894D+02 -.653600247057528D+02
 0.000000000000000D+00 -.000000000000000D+00 0.000000000000000D+00 -.000000000000000D+00
 0.405594141097462D+03 0.000000000000000D+00 0.000000000000000D+00 0.405594141097462D+03
 0.406644382320351D+03 0.000000000000000D+00 0.000000000000000D+00 -.406644382320351D+03
 0.338937828183857D+03 -.217985815366072D+03 -.969478544764393D+02 0.222815838399323D+03
 0.181234599158754D+03 0.531730663918458D+02 0.100472888573906D+03 -.141151704220453D+03
 0.841422075101537D+02 0.574025194222336D+02 0.593214789342820D+02 -.163041094731171D+02
 0.185094870781707D+03 0.126387110984290D+03 -.754932128949684D+02 -.653600247057528D+02
 0.228290177833406D+02 -.189768814322970D+02 0.126466998632200D+02 -.105024122288937D+01
0.664397293838D-05 0.000000000000D+00 0.000000000000D+00 0.181176186314D-06 0.000000000000D+00  7 2 -2 23 -11 11 23 21 0 0.26554631D+00 0.13874430D-01 0.97856359D+05 0.97856359D+05 0.97856359D+05 0.11224951D+01  1  2  2  1  7  1        2 0.302387219798D-03 0.100000000000D+01
-.344934999785D-06 0.000000000000D+00 -.255146054816D-07 0.181176186314D-06 0.000000000000D+00  7 2 -2 23 -11 11 23 21 2 0.26554631D+00 0.13874430D-01 0.97856359D+05 0.97856359D+05 0.97856359D+05 0.11224951D+01  1  2  3  1  7  1        2 -.197807056015D-04 0.100000000000D+01
0.417712161294D-06 0.000000000000D+00 0.000000000000D+00 0.181176186314D-06 0.000000000000D+00  7 2 -2 23 -11 11 23 21 2 0.26554631D+00 0.13874430D-01 0.97856359D+05 0.97856359D+05 0.97856359D+05 0.11224951D+01  1  2 15  1  7  1        2 0.239541980196D-04 0.100000000000D+01
0.121891328310D-04 0.000000000000D+00 0.000000000000D+00 0.181176186314D-06 0.000000000000D+00  7 2 -2 23 -11 11 23 21 2 0.27694226D+00 0.13874430D-01 0.10484790D+06 0.10484790D+06 0.10484790D+06 0.11200388D+01  1  2 12  1  7  1        2 0.634371111448D-03 0.100000000000D+01
-.896703542589D-05 0.000000000000D+00 0.000000000000D+00 0.181176186314D-06 0.000000000000D+00  7 2 -2 23 -11 11 23 21 2 0.26554631D+00 0.13874430D-01 0.97856359D+05 0.97856359D+05 0.97856359D+05 0.11224951D+01  1  2  4  1  7  1        2 -.514225254000D-03 0.100000000000D+01
0.145044720394D-06 0.000000000000D+00 0.000000000000D+00 0.181176186314D-06 0.000000000000D+00  7 21 -2 23 -11 11 23 -2 2 0.27694226D+00 0.13874430D-01 0.10484790D+06 0.10484790D+06 0.10484790D+06 0.11200388D+01  1  2 12  3  7  1        2 0.196916670774D-05 0.100000000000D+01
  </mgrwgt>
  </event>
  <event>
  8     66 0.29152272E-05 0.39415920E+03 0.75467711E-02 0.89562976E-01
        2 -1    0    0  501    0 0.00000000E+00 0.00000000E+00 0.34711996E+03 0.34712011E+03 0.32000000E+00 0.0000E+00 0.9000E+01
       -2 -1    0    0    0  501 0.00000000E+00 0.00000000E+00 -.97177561E+03 0.97177566E+03 0.32000000E+00 0.0000E+00 0.9000E+01
       25  2    1    2    0    0 0.91639567E+02 -.34242259E+03 -.79020238E+03 0.91718441E+03 0.30192118E+03 0.0000E+00 0.0000E+00
       23  2    3    3    0    0 0.10615339E+03 -.55962469E+02 -.38016835E+03 0.40854582E+03 0.89338557E+02 0.0000E+00 0.0000E+00
       23  1    1    2    0    0 -.91639567E+02 0.34242259E+03 0.16554674E+03 0.40171136E+03 0.91188000E+02 0.0000E+00 0.9000E+01
      -11  1    4    4    0    0 0.17418636E+02 -.17263043E+02 -.10968024E+02 0.26864830E+02 0.51099893E-03 0.0000E+00 0.9000E+01
       11  1    4    4    0    0 0.88734755E+02 -.38699426E+02 -.36920032E+03 0.38168099E+03 0.51099893E-03 0.0000E+00 0.9000E+01
       23  1    3    3    0    0 -.14513824E+02 -.28646012E+03 -.41003404E+03 0.50863859E+03 0.91188000E+02 0.0000E+00 0.9000E+01
#aMCatNLO 1  0  0  2  2 0.63587704D+03 0.00000000D+00  -5  7  0 0.00000000D+00 0.00000000D+00 0.00000000D+00 0.00000000D+00 0.00000000D+00
  <mgrwgt>
 0.5421031263D-03    5    2    0
 0.580795010313553D+03 0.000000000000000D+00 0.000000000000000D+00 0.580795010313553D+03
 0.580795010313553D+03 0.000000000000000D+00 0.000000000000000D+00 -.580795010313553D+03
 0.545136496517808D+03 -.916395673689883D+02 0.342422587719771D+03 0.403989491946796D+03
 0.246047851443217D+02 0.174186362035168D+02 -.172630433856711D+02 0.199346378753253D+01
 0.234828447545439D+03 0.887347554976137D+02 -.386994258519878D+02 -.213946015111538D+03
 0.357020291419537D+03 -.145138243321422D+02 -.286460118482112D+03 -.192036940622791D+03
 0.000000000000000D+00 0.000000000000000D+00 -.000000000000000D+00 -.000000000000000D+00
 0.766791037439621D+03 0.000000000000000D+00 0.000000000000000D+00 0.766791037439621D+03
 0.162789649122161D+04 0.000000000000000D+00 0.000000000000000D+00 -.162789649122161D+04
 0.786446527902308D+03 -.339738828342298D+03 0.575806311895561D+03 0.403989491946796D+03
 0.146298909242846D+02 0.101084693129562D+02 -.103864651702725D+02 0.199346378753253D+01
 0.217815066635915D+03 0.439865381017943D+01 0.406344400251818D+02 -.213946015111538D+03
 0.305355844826707D+03 -.137927105273160D+03 -.170366862074282D+03 -.192036940622791D+03
 0.107044019837201D+04 0.463158810492323D+03 -.435687424676188D+03 -.861105453781985D+03
0.156168375947D-03 0.000000000000D+00 0.000000000000D+00 0.702432942918D-07 0.000000000000D+00  7 2 -2 23 -11 11 23 21 0 0.53403087D-01 0.14950395D+00 0.15536147D+06 0.15536147D+06 0.15536147D+06 0.11063503D+01  1  2  2  2  7  2       -2 0.535153885811D-03 0.100000000000D+01
-.709088699522D-05 0.000000000000D+00 -.599727683713D-06 0.702432942918D-07 0.000000000000D+00  7 2 -2 23 -11 11 23 21 2 0.53403087D-01 0.14950395D+00 0.15536147D+06 0.15536147D+06 0.15536147D+06 0.11063503D+01  1  2  3  2  7  2       -2 -.297420891134D-04 0.100000000000D+01
0.894626130959D-05 0.000000000000D+00 0.000000000000D+00 0.702432942918D-07 0.000000000000D+00  7 2 -2 23 -11 11 23 21 2 0.53403087D-01 0.14950395D+00 0.15536147D+06 0.15536147D+06 0.15536147D+06 0.11063503D+01  1  2 15  2  7  2       -2 0.375242901601D-04 0.100000000000D+01
-.212522612123D-04 0.000000000000D+00 -.436493918403D-04 0.702432942918D-07 0.000000000000D+00  7 2 -2 23 -11 11 23 21 2 0.53403087D-01 0.45401492D+00 0.15536147D+06 0.15536147D+06 0.15536147D+06 0.11063503D+01  1  2  5  2  7  2       -2 -.679760328204D-06 0.100000000000D+01
-.561333909336D-06 0.000000000000D+00 -.552950037368D-05 0.702432942918D-07 0.000000000000D+00  7 2 21 23 -11 11 23 2 2 0.53403087D-01 0.45401492D+00 0.15536147D+06 0.15536147D+06 0.15536147D+06 0.11063503D+01  1  2  5  4  7  2       -2 -.153200184646D-06 0.100000000000D+01
  </mgrwgt>
  </event>
  <event>
  8     66 0.29152272E-05 0.15811795E+03 0.75467711E-02 0.98433160E-01
        2 -1    0    0  501    0 0.00000000E+00 0.00000000E+00 0.33700805E+04 0.33700805E+04 0.32000000E+00 0.0000E+00 0.9000E+01
       -2 -1    0    0    0  501 0.00000000E+00 0.00000000E+00 -.42035744E+02 0.42036962E+02 0.32000000E+00 0.0000E+00 0.9000E+01
       25  2    1    2    0    0 0.13061169E+03 0.24396003E+03 0.12833081E+04 0.13467266E+04 0.30036170E+03 0.0000E+00 0.0000E+00
       23  2    3    3    0    0 0.12428958E+03 0.79706864E+02 0.31552679E+03 0.36085905E+03 0.94132948E+02 0.0000E+00 0.0000E+00
       23  1    1    2    0    0 -.13061169E+03 -.24396003E+03 0.20447367E+04 0.20653909E+04 0.91188000E+02 0.0000E+00 0.9000E+01
      -13  1    4    4    0    0 0.14026290E+02 0.51238611E+02 0.15643980E+03 0.16521366E+03 0.10565837E+00 0.0000E+00 0.9000E+01
       13  1    4    4    0    0 0.11026329E+03 0.28468253E+02 0.15908699E+03 0.19564538E+03 0.10565837E+00 0.0000E+00 0.9000E+01
       23  1    3    3    0    0 0.63221100E+01 0.16425317E+03 0.96778128E+03 0.98586760E+03 0.91188000E+02 0.0000E+00 0.9000E+01
#aMCatNLO 1  0  0  2  1 0.70309452D+02 0.00000000D+00  -5  7  0 0.00000000D+00 0.00000000D+00 0.00000000D+00 0.00000000D+00 0.00000000D+00
  <mgrwgt>
 0.5240588995D-03    9    2    0
 0.376385368557069D+03 0.000000000000000D+00 0.000000000000000D+00 0.376385368557069D+03
 0.376385368557069D+03 0.000000000000000D+00 0.000000000000000D+00 -.376385368557069D+03
 0.321985075027704D+03 -.130611688107735D+03 -.243960034875793D+03 0.137051908084660D+03
 0.572413968016553D+02 0.140261687695372D+02 0.512386379680574D+02 -.213177408894881D+02
 0.183477544979519D+03 0.110263409390083D+03 0.284682249994425D+02 -.143859480837265D+03
 0.190066720305259D+03 0.632210994811424D+01 0.164253171908293D+03 0.281253136420928D+02
 0.000000000000000D+00 -.000000000000000D+00 0.000000000000000D+00 -.000000000000000D+00
 0.385151406706666D+03 0.000000000000000D+00 0.000000000000000D+00 0.385151406706666D+03
 0.551407200405060D+03 0.000000000000000D+00 0.000000000000000D+00 -.551407200405060D+03
 0.328682914513911D+03 -.107380977520888D+03 -.263445074173672D+03 0.137051908084660D+03
 0.554187778891720D+02 0.180484596382643D+02 0.478648928838661D+02 -.213177408894881D+02
 0.190457942793504D+03 0.123613977166940D+03 0.172702749062437D+02 -.143859480837265D+03
 0.181487454392113D+03 0.195876580286495D+02 0.153126533113030D+03 0.281253136420928D+02
 0.180511517523025D+03 -.538691173129665D+02 0.451833732705320D+02 -.166255793698394D+03
0.288488519830D-04 0.000000000000D+00 0.000000000000D+00 0.989107149333D-07 0.000000000000D+00  7 2 -2 23 -13 13 23 21 0 0.51847402D+00 0.64671324D-02 0.10443821D+06 0.10443821D+06 0.10443821D+06 0.11201777D+01  1  2  2  2  7  2       -2 0.465823256642D-03 0.100000000000D+01
-.155743211360D-05 0.000000000000D+00 -.110787187692D-06 0.989107149333D-07 0.000000000000D+00  7 2 -2 23 -13 13 23 21 2 0.51847402D+00 0.64671324D-02 0.10443821D+06 0.10443821D+06 0.10443821D+06 0.11201777D+01  1  2  3  2  7  2       -2 -.315555383425D-04 0.100000000000D+01
0.187261750421D-05 0.000000000000D+00 0.000000000000D+00 0.989107149333D-07 0.000000000000D+00  7 2 -2 23 -13 13 23 21 2 0.51847402D+00 0.64671324D-02 0.10443821D+06 0.10443821D+06 0.10443821D+06 0.11201777D+01  1  2 15  2  7  2       -2 0.379415917645D-04 0.100000000000D+01
0.107015127563D-03 0.000000000000D+00 0.000000000000D+00 0.989107149333D-07 0.000000000000D+00  7 2 -2 23 -13 13 23 21 2 0.51847402D+00 0.95222108D-02 0.13115974D+06 0.13115974D+06 0.13115974D+06 0.11121814D+01  1  2 12  2  7  2       -2 0.117371703350D-02 0.100000000000D+01
-.104259346476D-03 0.000000000000D+00 0.000000000000D+00 0.989107149333D-07 0.000000000000D+00  7 2 -2 23 -13 13 23 21 2 0.51847402D+00 0.64671324D-02 0.10443821D+06 0.10443821D+06 0.10443821D+06 0.11201777D+01  1  2  4  2  7  2       -2 -.211242581719D-02 0.100000000000D+01
-.116679735548D-03 0.000000000000D+00 -.120611671850D-04 0.989107149333D-07 0.000000000000D+00  7 2 -2 23 -13 13 23 21 2 0.51847402D+00 0.97704840D-02 0.10443821D+06 0.10443821D+06 0.10443821D+06 0.11201777D+01  1  2  5  2  7  2       -2 -.126244399241D-02 0.100000000000D+01
0.112869229281D-03 0.000000000000D+00 0.111024904204D-04 0.989107149333D-07 0.000000000000D+00  7 2 -2 23 -13 13 23 21 2 0.51847402D+00 0.64671324D-02 0.10443821D+06 0.10443821D+06 0.10443821D+06 0.11201777D+01  1  2  6  2  7  2       -2 0.228687289878D-02 0.100000000000D+01
0.497124222397D-05 0.000000000000D+00 0.000000000000D+00 0.989107149333D-07 0.000000000000D+00  7 2 21 23 -13 13 23 2 2 0.51847402D+00 0.95222108D-02 0.13115974D+06 0.13115974D+06 0.13115974D+06 0.11121814D+01  1  2 12  4  7  2       -2 0.797438201381D-03 0.100000000000D+01
-.525335190524D-05 0.000000000000D+00 -.587407133683D-06 0.989107149333D-07 0.000000000000D+00  7 2 21 23 -13 13 23 2 2 0.51847402D+00 0.97704840D-02 0.10443821D+06 0.10443821D+06 0.10443821D+06 0.11201777D+01  1  2  5  4  7  2       -2 -.831308734675D-03 0.100000000000D+01
  </mgrwgt>
  </event>
  <event>
  8     66 0.29152272E-05 0.78476545E+02 0.75467711E-02 0.10655656E+00
        2 -1    0    0  501    0 0.00000000E+00 0.00000000E+00 0.22303293E+04 0.22303293E+04 0.32000000E+00 0.0000E+00 0.9000E+01
       -2 -1    0    0    0  501 0.00000000E+00 0.00000000E+00 -.42626601E+02 0.42627802E+02 0.32000000E+00 0.0000E+00 0.9000E+01
       25  2    1    2    0    0 -.44192402E+02 -.10060560E+03 0.20534965E+04 0.20769954E+04 0.29152592E+03 0.0000E+00 0.0000E+00
       23  2    3    3    0    0 0.34178439E+02 -.95599519E+02 0.47702189E+03 0.49593415E+03 0.89963167E+02 0.0000E+00 0.0000E+00
       23  1    1    2    0    0 0.44192402E+02 0.10060560E+03 0.13420615E+03 0.19596172E+03 0.91188000E+02 0.0000E+00 0.9000E+01
      -11  1    4    4    0    0 0.41356377E+02 -.19939270E+02 0.84938942E+02 0.96553344E+02 0.51099893E-03 0.0000E+00 0.9000E+01
       11  1    4    4    0    0 -.71779381E+01 -.75660249E+02 0.39208295E+03 0.39938081E+03 0.51099893E-03 0.0000E+00 0.9000E+01
       23  1    3    3    0    0 -.78370841E+02 -.50060799E+01 0.15764747E+04 0.15810612E+04 0.91188000E+02 0.0000E+00 0.9000E+01
#aMCatNLO 1  0  0  1  2 0.93512963D+01 0.00000000D+00  -5  7  0 0.00000000D+00 0.00000000D+00 0.00000000D+00 0.00000000D+00 0.00000000D+00
  <mgrwgt>
 0.1505668511D-02   11    2    0
 0.308338689456916D+03 0.000000000000000D+00 0.000000000000000D+00 0.308338689456916D+03
 0.308338689456916D+03 0.000000000000000D+00 0.000000000000000D+00 -.308338689456916D+03
 0.246173195419871D+03 0.441924020070007D+02 0.100605598854558D+03 -.200528142372081D+03
 0.545511475357845D+02 0.413563768914452D+02 -.199392697017120D+02 -.294601987713264D+02
 0.811032535083450D+02 -.717793814948645D+01 -.756602492181583D+02 0.283150423239520D+02
 0.234849782449830D+03 -.783708407489594D+02 -.500607993468752D+01 0.201673298819455D+03
 0.000000000000000D+00 -.000000000000000D+00 0.000000000000000D+00 0.000000000000000D+00
 0.313908774233704D+03 0.000000000000000D+00 0.000000000000000D+00 0.313908774233704D+03
 0.312324115279483D+03 0.000000000000000D+00 0.000000000000000D+00 -.312324115279483D+03
 0.246296770567727D+03 0.476910989524792D+02 0.993019186400682D+02 -.200528142372081D+03
 0.552506499029296D+02 0.421364512915895D+02 -.202299400790399D+02 -.294601987713264D+02
 0.814111850046098D+02 -.602337277719783D+01 -.760904619675457D+02 0.283150423239520D+02
 0.233789670895645D+03 -.750414449742091D+02 -.624667535217765D+01 0.201673298819455D+03
 0.948461314227558D+01 -.876273249266177D+01 0.326515875869499D+01 0.158465895422130D+01
0.529851895488D-05 0.000000000000D+00 0.000000000000D+00 0.107686788546D-08 0.000000000000D+00  7 2 -2 23 -11 11 23 21 0 0.34312768D+00 0.65580327D-02 0.37065312D+05 0.37065312D+05 0.37065312D+05 0.11589090D+01  1  2  2  1  7  1        2 0.416765470432D-03 0.100000000000D+01
-.214971548446D-06 0.000000000000D+00 -.203477079188D-07 0.107686788546D-08 0.000000000000D+00  7 2 -2 23 -11 11 23 21 2 0.34312768D+00 0.65580327D-02 0.37065312D+05 0.37065312D+05 0.37065312D+05 0.11589090D+01  1  2  3  1  7  1        2 -.227099864605D-04 0.100000000000D+01
0.332669888828D-06 0.000000000000D+00 0.000000000000D+00 0.107686788546D-08 0.000000000000D+00  7 2 -2 23 -11 11 23 21 2 0.34312768D+00 0.65580327D-02 0.37065312D+05 0.37065312D+05 0.37065312D+05 0.11589090D+01  1  2 15  1  7  1        2 0.351438538064D-04 0.100000000000D+01
0.494081959214D-05 0.000000000000D+00 0.000000000000D+00 0.107686788546D-08 0.000000000000D+00  7 2 -2 23 -11 11 23 21 2 0.35150943D+00 0.65580327D-02 0.38747291D+05 0.38747291D+05 0.38747291D+05 0.11571643D+01  1  2 12  1  7  1        2 0.485828468587D-03 0.100000000000D+01
-.420924005319D-05 0.000000000000D+00 0.000000000000D+00 0.107686788546D-08 0.000000000000D+00  7 2 -2 23 -11 11 23 21 2 0.34312768D+00 0.65580327D-02 0.37065312D+05 0.37065312D+05 0.37065312D+05 0.11589090D+01  1  2  4  1  7  1        2 -.444671796375D-03 0.100000000000D+01
-.146211083233D-03 0.000000000000D+00 -.207470022019D-04 0.107686788546D-08 0.000000000000D+00  7 2 -2 23 -11 11 23 21 2 0.35135212D+00 0.65580327D-02 0.37065312D+05 0.37065312D+05 0.37065312D+05 0.11589090D+01  1  2  5  1  7  1        2 -.144509304808D-01 0.100000000000D+01
0.146667176598D-03 0.000000000000D+00 0.207411836016D-04 0.107686788546D-08 0.000000000000D+00  7 2 -2 23 -11 11 23 21 2 0.34312768D+00 0.65580327D-02 0.37065312D+05 0.37065312D+05 0.37065312D+05 0.11589090D+01  1  2  6  1  7  1        2 0.154941880394D-01 0.100000000000D+01
0.765336600418D-09 0.000000000000D+00 0.000000000000D+00 0.107686788546D-08 0.879577898349D-10  7 2 -2 23 -11 11 23 21 2 0.34932622D+00 0.66427985D-02 0.38747291D+05 0.38747291D+05 0.38747291D+05 0.11571643D+01  1  2 11  1  7  1        2 0.751527362065D-07 0.100000000000D+01
0.135941708667D-06 0.000000000000D+00 0.000000000000D+00 0.107686788546D-08 0.000000000000D+00  7 21 -2 23 -11 11 23 -2 2 0.35150943D+00 0.65580327D-02 0.38747291D+05 0.38747291D+05 0.38747291D+05 0.11571643D+01  1  2 12  3  7  1        2 0.221442747418D-05 0.100000000000D+01
-.622646056700D-06 0.000000000000D+00 -.889531818639D-07 0.107686788546D-08 0.000000000000D+00  7 21 -2 23 -11 11 23 -2 2 0.35135212D+00 0.65580327D-02 0.37065312D+05 0.37065312D+05 0.37065312D+05 0.11589090D+01  1  2  5  3  7  1        2 -.102347051704D-04 0.100000000000D+01
0.405460587668D-11 0.000000000000D+00 0.000000000000D+00 0.107686788546D-08 0.289878583430D-12  7 21 -2 23 -11 11 23 -2 2 0.34932622D+00 0.66427985D-02 0.38747291D+05 0.38747291D+05 0.38747291D+05 0.11571643D+01  1  2 11  3  7  1        2 0.669348554367D-10 0.100000000000D+01
  </mgrwgt>
  </event>
  <event>
  8     66 0.29152272E-05 0.34258258E+03 0.75467711E-02 0.89800041E-01
        2 -1    0    0  501    0 0.00000000E+00 0.00000000E+00 0.86200196E+03 0.86200202E+03 0.32000000E+00 0.0000E+00 0.9000E+01
       -2 -1    0    0    0  501 0.00000000E+00 0.00000000E+00 -.70379034E+03 0.70379041E+03 0.32000000E+00 0.0000E+00 0.9000E+01
       25  2    1    2    0    0 0.11524155E+03 0.55300278E+03 0.57351204E+03 0.85876882E+03 0.29912396E+03 0.0000E+00 0.0000E+00
       23  2    3    3    0    0 0.48734151E+02 0.82704382E+02 0.23152608E+03 0.26642309E+03 0.90343266E+02 0.0000E+00 0.0000E+00
       23  1    1    2    0    0 -.11524155E+03 -.55300278E+03 -.41530042E+03 0.70702361E+03 0.91188000E+02 0.0000E+00 0.9000E+01
      -13  1    4    4    0    0 -.23625369E+01 0.52673173E+02 0.40707558E+02 0.66612019E+02 0.10565837E+00 0.0000E+00 0.9000E+01
       13  1    4    4    0    0 0.51096688E+02 0.30031210E+02 0.19081852E+03 0.19981107E+03 0.10565837E+00 0.0000E+00 0.9000E+01
       23  1    3    3    0    0 0.66507397E+02 0.47029840E+03 0.34198596E+03 0.59234573E+03 0.91188000E+02 0.0000E+00 0.9000E+01
#aMCatNLO 1  0  0  1  2 0.35242769D+03 0.00000000D+00  -5  7  0 0.00000000D+00 0.00000000D+00 0.00000000D+00 0.00000000D+00 0.00000000D+00
  <mgrwgt>
 0.5931650784D-03    9    2    0
 0.778889437073006D+03 0.000000000000000D+00 0.000000000000000D+00 0.778889437073006D+03
 0.778889437073006D+03 0.000000000000000D+00 0.000000000000000D+00 -.778889437073006D+03
 0.752839561621772D+03 -.115241547311063D+03 -.553002781883924D+03 -.489243766644865D+03
 0.628201704226843D+02 -.236261006224427D+01 0.526732036167921D+02 0.341515081127151D+02
 0.181459137647019D+03 0.510967606379485D+02 0.300311787518792D+02 0.171507049390632D+03
 0.560660004454537D+03 0.665073967353587D+02 0.470298399515253D+03 0.283585209141518D+03
 0.000000000000000D+00 0.000000000000000D+00 0.000000000000000D+00 0.000000000000000D+00
 0.108235511861331D+04 0.000000000000000D+00 0.000000000000000D+00 0.108235511861331D+04
 0.907993653342566D+03 0.000000000000000D+00 0.000000000000000D+00 -.907993653342566D+03
 0.898895950321522D+03 -.132894928375689D+03 -.736666921323061D+03 -.489243766644865D+03
 0.525969462946462D+02 -.359616248517081D+01 0.398394386071053D+02 0.341515081127151D+02
 0.178176002552913D+03 0.472530604036960D+02 -.995832202429686D+01 0.171507049390632D+03
 0.467478651996757D+03 0.555188798945157D+02 0.355974889367389D+03 0.283585209141518D+03
 0.393201220790034D+03 0.337191505626481D+02 0.350810915372865D+03 0.174361465270740D+03
0.225073385918D-03 0.000000000000D+00 0.000000000000D+00 0.115131883536D-05 0.000000000000D+00  7 2 -2 23 -13 13 23 21 0 0.13261570D+00 0.10827545D+00 0.34096382D+06 0.34096382D+06 0.34096382D+06 0.10804631D+01  1  2  2  1  7  1        2 0.599237832162D-03 0.100000000000D+01
-.112421636485D-04 0.000000000000D+00 -.864341065110D-06 0.115131883536D-05 0.000000000000D+00  7 2 -2 23 -13 13 23 21 2 0.13261570D+00 0.10827545D+00 0.34096382D+06 0.34096382D+06 0.34096382D+06 0.10804631D+01  1  2  3  1  7  1        2 -.349417665435D-04 0.100000000000D+01
0.143823383353D-04 0.000000000000D+00 0.000000000000D+00 0.115131883536D-05 0.000000000000D+00  7 2 -2 23 -13 13 23 21 2 0.13261570D+00 0.10827545D+00 0.34096382D+06 0.34096382D+06 0.34096382D+06 0.10804631D+01  1  2 15  1  7  1        2 0.447017428473D-04 0.100000000000D+01
0.560854522531D-04 0.000000000000D+00 0.000000000000D+00 0.115131883536D-05 0.000000000000D+00  7 2 -2 23 -13 13 23 21 2 0.19186827D+00 0.10827545D+00 0.61344230D+06 0.61344230D+06 0.61344230D+06 0.10622903D+01  1  2 12  1  7  1        2 0.948363035583D-04 0.100000000000D+01
-.139742164171D-03 0.000000000000D+00 0.000000000000D+00 0.115131883536D-05 0.000000000000D+00  7 2 -2 23 -13 13 23 21 2 0.13261570D+00 0.10827545D+00 0.34096382D+06 0.34096382D+06 0.34096382D+06 0.10804631D+01  1  2  4  1  7  1        2 -.434332591967D-03 0.100000000000D+01
-.167770118125D-03 0.000000000000D+00 -.862341518579D-04 0.115131883536D-05 0.000000000000D+00  7 2 -2 23 -13 13 23 21 2 0.20227065D+00 0.10827545D+00 0.34096382D+06 0.34096382D+06 0.34096382D+06 0.10804631D+01  1  2  5  1  7  1        2 -.276945335755D-03 0.100000000000D+01
0.193799297563D-03 0.000000000000D+00 0.790821938189D-04 0.115131883536D-05 0.000000000000D+00  7 2 -2 23 -13 13 23 21 2 0.13261570D+00 0.10827545D+00 0.34096382D+06 0.34096382D+06 0.34096382D+06 0.10804631D+01  1  2  6  1  7  1        2 0.602347557237D-03 0.100000000000D+01
0.251895713217D-05 0.000000000000D+00 0.000000000000D+00 0.115131883536D-05 0.000000000000D+00  7 21 -2 23 -13 13 23 -2 2 0.19186827D+00 0.10827545D+00 0.61344230D+06 0.61344230D+06 0.61344230D+06 0.10622903D+01  1  2 12  3  7  1        2 0.199890843717D-05 0.100000000000D+01
-.514752615522D-05 0.000000000000D+00 -.427139475878D-05 0.115131883536D-05 0.000000000000D+00  7 21 -2 23 -13 13 23 -2 2 0.20227065D+00 0.10827545D+00 0.34096382D+06 0.34096382D+06 0.34096382D+06 0.10804631D+01  1  2  5  3  7  1        2 -.373757153049D-05 0.100000000000D+01
  </mgrwgt>
  </event>
  <event>
  8     66 0.29152272E-05 0.72067883E+02 0.75467711E-02 0.10844314E+00
        2 -1    0    0  501    0 0.00000000E+00 0.00000000E+00 0.90109884E+03 0.90109890E+03 0.32000000E+00 0.0000E+00 0.9000E+01
       -2 -1    0    0    0  501 0.00000000E+00 0.00000000E+00 -.76365218E+02 0.76365889E+02 0.32000000E+00 0.0000E+00 0.9000E+01
       25  2    1    2    0    0 0.44835826E+02 -.51578683E+02 0.26455649E+03 0.40581429E+03 0.30004082E+03 0.0000E+00 0.0000E+00
       23  2    3    3    0    0 0.10618079E+03 -.44476307E+02 0.23807198E+03 0.29254325E+03 0.12510308E+03 0.0000E+00 0.0000E+00
       23  1    1    2    0    0 -.44835826E+02 0.51578683E+02 0.56017714E+03 0.57165050E+03 0.91188000E+02 0.0000E+00 0.9000E+01
      -11  1    4    4    0    0 0.43586684E+02 -.14623014E+02 0.21438760E+03 0.21926166E+03 0.51099893E-03 0.0000E+00 0.9000E+01
       11  1    4    4    0    0 0.62594110E+02 -.29853293E+02 0.23684381E+02 0.73281591E+02 0.51099893E-03 0.0000E+00 0.9000E+01
       23  1    3    3    0    0 -.61344968E+02 -.71023762E+01 0.26484505E+02 0.11327104E+03 0.91188000E+02 0.0000E+00 0.9000E+01
#aMCatNLO 1  0  0  1  2 0.68217889D+01 0.00000000D+00  -5  7  0 0.00000000D+00 0.00000000D+00 0.00000000D+00 0.00000000D+00 0.00000000D+00
  <mgrwgt>
 0.4410866251D-03   11    2    0
 0.262322255015845D+03 0.000000000000000D+00 0.000000000000000D+00 0.262322255015845D+03
 0.262322255015845D+03 0.000000000000000D+00 0.000000000000000D+00 -.262322255015845D+03
 0.184451200192506D+03 -.448358264115723D+02 0.515786832179585D+02 0.145039243020462D+03
 0.714920048893165D+02 0.435866878968016D+02 -.146230154307550D+02 0.547491992726174D+02
 0.992993641023307D+02 0.625941112648821D+02 -.298532918232974D+02 -.710712453345222D+02
 0.169401940847538D+03 -.613449727501114D+02 -.710237596390609D+01 -.128717196958557D+03
 0.000000000000000D+00 -.000000000000000D+00 -.000000000000000D+00 0.000000000000000D+00
 0.279831694309805D+03 0.000000000000000D+00 0.000000000000000D+00 0.279831694309805D+03
 0.263009725114530D+03 0.000000000000000D+00 0.000000000000000D+00 -.263009725114530D+03
 0.184634691467689D+03 -.433549657582939D+02 0.534666520133565D+02 0.145039243020462D+03
 0.716982161153567D+02 0.441612012255725D+02 -.138905608038741D+02 0.547491992726174D+02
 0.995046368951100D+02 0.633917603472331D+02 -.288363584786087D+02 -.710712453345222D+02
 0.168851314475811D+03 -.599878199898188D+02 -.537212399431787D+01 -.128717196958557D+03
 0.181525604703673D+02 -.421017582469278D+01 -.536760873655588D+01 0.168219691952745D+02
0.127458580108D-05 0.000000000000D+00 0.000000000000D+00 0.496643652555D-09 0.000000000000D+00  7 2 -2 23 -11 11 23 21 0 0.13863065D+00 0.11748551D-01 0.28799748D+05 0.28799748D+05 0.28799748D+05 0.11689848D+01  1  2  2  1  7  1        2 0.218974263955D-03 0.100000000000D+01
-.544805602301D-07 0.000000000000D+00 -.489474508228D-08 0.496643652555D-09 0.000000000000D+00  7 2 -2 23 -11 11 23 21 2 0.13863065D+00 0.11748551D-01 0.28799748D+05 0.28799748D+05 0.28799748D+05 0.11689848D+01  1  2  3  1  7  1        2 -.127903744602D-04 0.100000000000D+01
0.765017578294D-07 0.000000000000D+00 0.000000000000D+00 0.496643652555D-09 0.000000000000D+00  7 2 -2 23 -11 11 23 21 2 0.13863065D+00 0.11748551D-01 0.28799748D+05 0.28799748D+05 0.28799748D+05 0.11689848D+01  1  2 15  1  7  1        2 0.179602802425D-04 0.100000000000D+01
0.230078810584D-04 0.000000000000D+00 0.000000000000D+00 0.496643652555D-09 0.000000000000D+00  7 2 -2 23 -11 11 23 21 2 0.14805873D+00 0.11748551D-01 0.29979726D+05 0.29979726D+05 0.29979726D+05 0.11673632D+01  1  2 12  1  7  1        2 0.494067079532D-02 0.100000000000D+01
-.251798289041D-04 0.000000000000D+00 0.000000000000D+00 0.496643652555D-09 0.000000000000D+00  7 2 -2 23 -11 11 23 21 2 0.13863065D+00 0.11748551D-01 0.28799748D+05 0.28799748D+05 0.28799748D+05 0.11689848D+01  1  2  4  1  7  1        2 -.591145610778D-02 0.100000000000D+01
-.398412761294D-04 0.000000000000D+00 -.241100895373D-05 0.496643652555D-09 0.000000000000D+00  7 2 -2 23 -11 11 23 21 2 0.14805575D+00 0.11748551D-01 0.28799748D+05 0.28799748D+05 0.28799748D+05 0.11689848D+01  1  2  5  1  7  1        2 -.857816882480D-02 0.100000000000D+01
0.399186840052D-04 0.000000000000D+00 0.240580279642D-05 0.496643652555D-09 0.000000000000D+00  7 2 -2 23 -11 11 23 21 2 0.13863065D+00 0.11748551D-01 0.28799748D+05 0.28799748D+05 0.28799748D+05 0.11689848D+01  1  2  6  1  7  1        2 0.937168990606D-02 0.100000000000D+01
0.191996187159D-05 0.000000000000D+00 0.000000000000D+00 0.496643652555D-09 0.777174023597D-10  7 2 -2 23 -11 11 23 21 2 0.14788394D+00 0.11779341D-01 0.29979726D+05 0.29979726D+05 0.29979726D+05 0.11673632D+01  1  2 11  1  7  1        2 0.411280104581D-03 0.100000000000D+01
0.332461706363D-06 0.000000000000D+00 0.000000000000D+00 0.496643652555D-09 0.000000000000D+00  7 21 -2 23 -11 11 23 -2 2 0.14805873D+00 0.11748551D-01 0.29979726D+05 0.29979726D+05 0.29979726D+05 0.11673632D+01  1  2 12  3  7  1        2 0.588195328060D-04 0.100000000000D+01
-.448281025486D-06 0.000000000000D+00 -.270121215814D-07 0.496643652555D-09 0.000000000000D+00  7 21 -2 23 -11 11 23 -2 2 0.14805575D+00 0.11748551D-01 0.28799748D+05 0.28799748D+05 0.28799748D+05 0.11689848D+01  1  2  5  3  7  1        2 -.796748562034D-04 0.100000000000D+01
0.213895455915D-07 0.000000000000D+00 0.000000000000D+00 0.496643652555D-09 0.858825140360D-12  7 21 -2 23 -11 11 23 -2 2 0.14788394D+00 0.11779341D-01 0.29979726D+05 0.29979726D+05 0.29979726D+05 0.11673632D+01  1  2 11  3  7  1        2 0.378190541176D-05 0.100000000000D+01
  </mgrwgt>
  </event>
  <event>
  8     66 0.29152272E-05 0.42635267E+03 0.75467711E-02 0.93137608E-01
        2 -1    0    0  501    0 0.00000000E+00 0.00000000E+00 0.21048445E+04 0.21048446E+04 0.32000000E+00 0.0000E+00 0.9000E+01
       -2 -1    0    0    0  501 0.00000000E+00 0.00000000E+00 -.76505540E+03 0.76505546E+03 0.32000000E+00 0.0000E+00 0.9000E+01
       25  2    1    2    0    0 -.38213774E+03 -.11113591E+03 0.20175716E+04 0.20786448E+04 0.30296641E+03 0.0000E+00 0.0000E+00
       23  2    3    3    0    0 -.27472840E+03 -.62177483E+02 0.17265134E+04 0.17515915E+04 0.88785162E+02 0.0000E+00 0.0000E+00
       23  1    1    2    0    0 0.38213774E+03 0.11113591E+03 -.67778248E+03 0.79125519E+03 0.91188000E+02 0.0000E+00 0.9000E+01
      -11  1    4    4    0    0 -.28002280E+03 -.67188851E+02 0.16896902E+04 0.17140537E+04 0.51099893E-03 0.0000E+00 0.9000E+01
       11  1    4    4    0    0 0.52943944E+01 0.50113681E+01 0.36823152E+02 0.37537834E+02 0.51099893E-03 0.0000E+00 0.9000E+01
       23  1    3    3    0    0 -.10740933E+03 -.48958425E+02 0.29105827E+03 0.32705330E+03 0.91188000E+02 0.0000E+00 0.9000E+01
#aMCatNLO 1  0  0  1  1 0.27903861D+03 0.00000000D+00  -5  7  0 0.00000000D+00 0.00000000D+00 0.00000000D+00 0.00000000D+00 0.00000000D+00
  <mgrwgt>
 0.5692928598D-03    4    2    0
 0.126898495338422D+04 0.000000000000000D+00 0.000000000000000D+00 0.126898495338422D+04
 0.126898495338422D+04 0.000000000000000D+00 0.000000000000000D+00 -.126898495338422D+04
 0.125254003982732D+04 0.382137738149842D+03 0.111135907821658D+03 -.118412873417589D+04
 0.104624336908674D+04 -.280022798311959D+03 -.671888507810373D+02 0.100583203275409D+04
 0.230083779323991D+02 0.529439442431431D+01 0.501136814378708D+01 0.218229473739763D+02
 0.216178119921986D+03 -.107409334262198D+03 -.489584251844078D+02 0.156473754047824D+03
 0.000000000000000D+00 0.000000000000000D+00 -.000000000000000D+00 -.000000000000000D+00
 0.137602317944653D+04 0.000000000000000D+00 0.000000000000000D+00 0.137602317944653D+04
 0.147247978039458D+04 0.000000000000000D+00 0.000000000000000D+00 -.147247978039458D+04
 0.121915883856051D+04 0.247085462133132D+03 0.121741273188922D+03 -.118412873417589D+04
 0.108266235513268D+04 -.396345043709572D+03 -.580543145172460D+02 0.100583203275409D+04
 0.226098487268905D+02 0.280183944844215D+01 0.520710313616769D+01 0.218229473739763D+02
 0.228832318912485D+03 -.131724461457218D+03 -.470490104343536D+02 0.156473754047824D+03
 0.295239598508550D+03 0.278182203585216D+03 -.218450513734898D+02 -.964566009480577D+02
0.208437664112D-02 0.000000000000D+00 0.000000000000D+00 0.146785352582D-06 0.000000000000D+00  7 2 -2 23 -11 11 23 21 0 0.32382225D+00 0.11770084D+00 0.18177660D+06 0.18177660D+06 0.18177660D+06 0.11010264D+01  1  2  2  1  7  1        2 0.920251444924D-03 0.100000000000D+01
0.516957393797D-04 0.000000000000D+00 -.800455513086D-05 0.146785352582D-06 0.000000000000D+00  7 2 -2 23 -11 11 23 21 2 0.32382225D+00 0.11770084D+00 0.18177660D+06 0.18177660D+06 0.18177660D+06 0.11010264D+01  1  2  3  1  7  1        2 0.276681741734D-04 0.100000000000D+01
0.125805402838D-03 0.000000000000D+00 0.000000000000D+00 0.146785352582D-06 0.000000000000D+00  7 2 -2 23 -11 11 23 21 2 0.32382225D+00 0.11770084D+00 0.18177660D+06 0.18177660D+06 0.18177660D+06 0.11010264D+01  1  2 15  1  7  1        2 0.673325469263D-04 0.100000000000D+01
-.833238793512D-03 0.000000000000D+00 0.000000000000D+00 0.146785352582D-06 0.000000000000D+00  7 2 -2 23 -11 11 23 21 2 0.32382225D+00 0.11770084D+00 0.18177660D+06 0.18177660D+06 0.18177660D+06 0.11010264D+01  1  2  4  1  7  1        2 -.445959306194D-03 0.100000000000D+01
  </mgrwgt>
  </event>
  <event>
  8     66 0.29152272E-05 0.39463810E+03 0.75467711E-02 0.90723798E-01
        2 -1    0    0  501    0 0.00000000E+00 0.00000000E+00 0.98314793E+03 0.98314799E+03 0.32000000E+00 0.0000E+00 0.9000E+01
       -2 -1    0    0    0  501 0.00000000E+00 0.00000000E+00 -.21903263E+03 0.21903287E+03 0.32000000E+00 0.0000E+00 0.9000E+01
       25  2    1    2    0    0 -.66167085E+02 -.36799191E+03 0.20044032E+03 0.51965550E+03 0.30011562E+03 0.0000E+00 0.0000E+00
       23  2    3    3    0    0 -.64295694E+02 -.16440633E+03 -.28003644E+02 0.20035551E+03 0.90524841E+02 0.0000E+00 0.0000E+00
       23  1    1    2    0    0 0.66167085E+02 0.36799191E+03 0.56367498E+03 0.68252536E+03 0.91188000E+02 0.0000E+00 0.9000E+01
      -11  1    4    4    0    0 -.28363465E+02 -.26451407E+02 0.27319255E+02 0.47439485E+02 0.51099893E-03 0.0000E+00 0.9000E+01
       11  1    4    4    0    0 -.35932229E+02 -.13795493E+03 -.55322899E+02 0.15291602E+03 0.51099893E-03 0.0000E+00 0.9000E+01
       23  1    3    3    0    0 -.18713910E+01 -.20358557E+03 0.22844396E+03 0.31929999E+03 0.91188000E+02 0.0000E+00 0.9000E+01
#aMCatNLO 1  0  0  2  1 0.49706512D+03 0.00000000D+00  -5  7  0 0.00000000D+00 0.00000000D+00 0.00000000D+00 0.00000000D+00 0.00000000D+00
  <mgrwgt>
 0.7524938139D-03    3    2    0
 0.464049192408036D+03 0.000000000000000D+00 0.000000000000000D+00 0.464049192408036D+03
 0.464049192408036D+03 0.000000000000000D+00 0.000000000000000D+00 -.464049192408036D+03
 0.420005297331407D+03 0.661670853419575D+02 0.367991906001148D+03 0.168205446931530D+03
 0.389568395428529D+02 -.283634648421226D+02 -.264514065598777D+02 -.367046322980040D+01
 0.243622650821128D+03 -.359322294778854D+02 -.137954927478323D+03 -.197558368241673D+03
 0.225513597120685D+03 -.187139102194957D+01 -.203585571962948D+03 0.330233845399432D+02
 0.000000000000000D+00 -.000000000000000D+00 0.000000000000000D+00 0.000000000000000D+00
 0.102257328050992D+04 0.000000000000000D+00 0.000000000000000D+00 0.102257328050992D+04
 0.650905234611886D+03 0.000000000000000D+00 0.000000000000000D+00 -.650905234611886D+03
 0.468846606036308D+03 0.284025984108370D+03 0.320215640813502D+03 0.168205446931530D+03
 0.323887323454316D+02 -.108765610457189D+02 -.302862692063819D+02 -.367046322980040D+01
 0.273392106584041D+03 0.907888421286594D+02 -.165744747202090D+03 -.197558368241673D+03
 0.278197489531314D+03 0.121588931466710D+03 -.230660312268575D+03 0.330233845399432D+02
 0.620653580624710D+03 -.485527196658021D+03 0.106475687863545D+03 0.371668045898033D+03
0.281954584308D-04 0.000000000000D+00 0.000000000000D+00 0.111766569092D-05 0.000000000000D+00  7 2 -2 23 -11 11 23 21 0 0.15125355D+00 0.33697350D-01 0.15573923D+06 0.15573923D+06 0.15573923D+06 0.11062674D+01  1  2  2  2  7  2       -2 0.744235730552D-03 0.100000000000D+01
-.151641860979D-05 0.000000000000D+00 -.108277984409D-06 0.111766569092D-05 0.000000000000D+00  7 2 -2 23 -11 11 23 21 2 0.15125355D+00 0.33697350D-01 0.15573923D+06 0.15573923D+06 0.15573923D+06 0.11062674D+01  1  2  3  2  7  2       -2 -.489858511726D-04 0.100000000000D+01
0.177205796130D-05 0.000000000000D+00 0.000000000000D+00 0.111766569092D-05 0.000000000000D+00  7 2 -2 23 -11 11 23 21 2 0.15125355D+00 0.33697350D-01 0.15573923D+06 0.15573923D+06 0.15573923D+06 0.11062674D+01  1  2 15  2  7  2       -2 0.572439344919D-04 0.100000000000D+01
  </mgrwgt>
  </event>
  <event>
  8     66 0.29152272E-05 0.21981270E+03 0.75467711E-02 0.10046069E+00
        2 -1    0    0  501    0 0.00000000E+00 0.00000000E+00 0.79921856E+03 0.79921863E+03 0.32000000E+00 0.0000E+00 0.9000E+01
       -2 -1    0    0    0  501 0.00000000E+00 0.00000000E+00 -.72559048E+02 0.72559754E+02 0.32000000E+00 0.0000E+00 0.9000E+01
       25  2    1    2    0    0 -.11175500E+03 -.46284241E+02 0.55515496E+03 0.64295427E+03 0.30093479E+03 0.0000E+00 0.0000E+00
       23  2    3    3    0    0 -.35199274E+02 -.11812416E+03 0.42931726E+03 0.45541192E+03 0.88850461E+02 0.0000E+00 0.0000E+00
       23  1    1    2    0    0 0.11175500E+03 0.46284241E+02 0.17150455E+03 0.22882411E+03 0.91188000E+02 0.0000E+00 0.9000E+01
      -13  1    4    4    0    0 -.61860011E+02 -.65500596E+02 0.21475537E+03 0.23288810E+03 0.10565837E+00 0.0000E+00 0.9000E+01
       13  1    4    4    0    0 0.26660737E+02 -.52623561E+02 0.21456189E+03 0.22252382E+03 0.10565837E+00 0.0000E+00 0.9000E+01
       23  1    3    3    0    0 -.76555726E+02 0.71839916E+02 0.12583770E+03 0.18754234E+03 0.91188000E+02 0.0000E+00 0.9000E+01
#aMCatNLO 1  0  0  1  1 0.15676314D+03 0.00000000D+00  -5  7  0 0.00000000D+00 0.00000000D+00 0.00000000D+00 0.00000000D+00 0.00000000D+00
  <mgrwgt>
 0.3377378572D-03    4    2    0
 0.240812943229915D+03 0.000000000000000D+00 0.000000000000000D+00 0.240812943229915D+03
 0.240812943229915D+03 0.000000000000000D+00 0.000000000000000D+00 -.240812943229915D+03
 0.155428741934404D+03 0.111755017326468D+03 0.462842479560467D+02 -.348055594527017D+02
 0.975296309090915D+02 -.618601410725751D+02 -.655006126652965D+02 0.373499878475953D+02
 0.790613619751557D+02 0.266608555859810D+02 -.526235368422505D+02 0.526370697037968D+02
 0.149606151641180D+03 -.765557318398737D+02 0.718399015515003D+02 -.551814980986903D+02
 0.000000000000000D+00 -.000000000000000D+00 -.000000000000000D+00 -.000000000000000D+00
 0.304188946132543D+03 0.000000000000000D+00 0.000000000000000D+00 0.304188946132543D+03
 0.373851734809251D+03 0.000000000000000D+00 0.000000000000000D+00 -.373851734809251D+03
 0.182246581917117D+03 0.117365880445397D+03 0.995609783747301D+02 -.348055594527017D+02
 0.792546485346040D+02 -.589226673412303D+02 -.376084697312029D+02 0.373499878475953D+02
 0.670187012538169D+02 0.290881435199455D+02 -.295757521850088D+02 0.526370697037968D+02
 0.177976046116902D+03 -.711125775967554D+02 0.123524188815533D+03 -.551814980986903D+02
 0.171544703119355D+03 -.164187790273571D+02 -.155900945274051D+03 -.696627886767078D+02
0.197382999541D-05 0.000000000000D+00 0.000000000000D+00 0.901190323740D-08 0.000000000000D+00  7 2 -2 23 -13 13 23 21 0 0.12295676D+00 0.11162990D-01 0.48317624D+05 0.48317624D+05 0.48317624D+05 0.11486052D+01  1  2  2  1  7  1        2 0.428726122997D-03 0.100000000000D+01
-.108547195441D-06 0.000000000000D+00 -.758002690374D-08 0.901190323740D-08 0.000000000000D+00  7 2 -2 23 -13 13 23 21 2 0.12295676D+00 0.11162990D-01 0.48317624D+05 0.48317624D+05 0.48317624D+05 0.11486052D+01  1  2  3  1  7  1        2 -.311050090069D-04 0.100000000000D+01
0.128273109203D-06 0.000000000000D+00 0.000000000000D+00 0.901190323740D-08 0.000000000000D+00  7 2 -2 23 -13 13 23 21 2 0.12295676D+00 0.11162990D-01 0.48317624D+05 0.48317624D+05 0.48317624D+05 0.11486052D+01  1  2 15  1  7  1        2 0.367576168217D-04 0.100000000000D+01
-.337247797991D-06 0.000000000000D+00 0.000000000000D+00 0.901190323740D-08 0.000000000000D+00  7 2 -2 23 -13 13 23 21 2 0.12295676D+00 0.11162990D-01 0.48317624D+05 0.48317624D+05 0.48317624D+05 0.11486052D+01  1  2  4  1  7  1        2 -.966408735983D-04 0.100000000000D+01
  </mgrwgt>
  </event>
  <event>
  9     66 0.29152272E-05 0.46205338E+03 0.75467711E-02 0.93757715E-01
        2 -1    0    0  501    0 0.00000000E+00 0.00000000E+00 0.17686495E+04 0.17686495E+04 0.32000000E+00 0.0000E+00 0.9000E+01
       -2 -1    0    0    0  502 0.00000000E+00 0.00000000E+00 -.23475360E+03 0.23475382E+03 0.32000000E+00 0.0000E+00 0.9000E+01
       25  2    1    2    0    0 -.48993427E+02 0.46160334E+03 0.11489218E+04 0.12760295E+04 0.30455215E+03 0.0000E+00 0.0000E+00
       23  2    3    3    0    0 0.98847935E+02 0.15351387E+03 0.29796754E+03 0.35450111E+03 0.59573153E+02 0.0000E+00 0.0000E+00
       23  1    1    2    0    0 -.65939513E+02 -.37455381E+03 0.93387192E+02 0.40208829E+03 0.91188000E+02 0.0000E+00 0.9000E+01
      -13  1    4    4    0    0 0.10631489E+03 0.13853038E+03 0.26244885E+03 0.31523472E+03 0.10565837E+00 0.0000E+00 0.9000E+01
       13  1    4    4    0    0 -.74669587E+01 0.14983487E+02 0.35518694E+02 0.39266387E+02 0.10565837E+00 0.0000E+00 0.9000E+01
       23  1    3    3    0    0 -.14784136E+03 0.30808947E+03 0.85095426E+03 0.92152840E+03 0.91188000E+02 0.0000E+00 0.9000E+01
       21  1    1    2  501  502 0.11493294E+03 -.87049534E+02 0.29158687E+03 0.32528552E+03 0.75000000E+00 0.0000E+00 0.9000E+01
#aMCatNLO 2  0  0  2  2 0.14417767D+03 0.00000000D+00  -5  7  0 0.00000000D+00 0.00000000D+00 0.00000000D+00 0.00000000D+00 0.00000000D+00
  <mgrwgt>
 0.8515560815D-03    1    2    0
 0.559455209312231D+03 0.000000000000000D+00 0.000000000000000D+00 0.559455209312231D+03
 0.559455209312231D+03 0.000000000000000D+00 0.000000000000000D+00 -.559455209312231D+03
 0.521723520847746D+03 -.139228467687991D+02 -.413950926445753D+03 -.303860108757834D+03
 0.181532935877640D+03 0.124801902767677D+03 0.124529085356638D+03 0.432573551452446D+02
 0.175218213430452D+02 -.558421494969205D+01 0.135568490280598D+02 0.959388404159773D+01
 0.398132140556030D+03 -.105294841049185D+03 0.275864992061055D+03 0.251008869570992D+03
 0.000000000000000D+00 0.000000000000000D+00 -.000000000000000D+00 0.000000000000000D+00
 0.683228606942832D+03 0.000000000000000D+00 0.000000000000000D+00 0.683228606942832D+03
 0.607696954307054D+03 0.000000000000000D+00 0.000000000000000D+00 -.607696954307054D+03
 0.495262346701937D+03 -.659395129797486D+02 -.374553808751667D+03 -.303860108757834D+03
 0.179902486760412D+03 0.106315248885774D+03 0.138530768505679D+03 0.432573551452446D+02
 0.192949913772996D+02 -.746731669115422D+01 0.149830992348196D+02 0.959388404159773D+01
 0.433701390058235D+03 -.147841358641697D+03 0.308089474773345D+03 0.251008869570992D+03
 0.162764346352001D+03 0.114932939426825D+03 -.870495337621763D+02 0.755316526357778D+02
0.879361236314D-04 0.000000000000D+00 0.000000000000D+00 0.446908884899D-10 0.137214353424D-13  7 2 -2 23 -13 13 23 21 2 0.27209956D+00 0.36115909D-01 0.29177215D+06 0.29177215D+06 0.29177215D+06 0.10854465D+01  1  2  1  2  7  2       -2 0.851556081485D-03 0.100000000000D+01
  </mgrwgt>
  </event>
  <event>
  8     66 0.29152272E-05 0.24747718E+03 0.75467711E-02 0.94724929E-01
        2 -1    0    0  501    0 0.00000000E+00 0.00000000E+00 0.13854990E+04 0.13854990E+04 0.32000000E+00 0.0000E+00 0.9000E+01
       -2 -1    0    0    0  501 0.00000000E+00 0.00000000E+00 -.14739005E+03 0.14739040E+03 0.32000000E+00 0.0000E+00 0.9000E+01
       25  2    1    2    0    0 0.71038987E+02 -.39004076E+03 0.67357580E+03 0.83705090E+03 0.29961894E+03 0.0000E+00 0.0000E+00
       23  2    3    3    0    0 0.10140447E+03 -.10730769E+03 0.13300354E+03 0.21948011E+03 0.93186761E+02 0.0000E+00 0.0000E+00
       23  1    1    2    0    0 -.71038987E+02 0.39004076E+03 0.56453313E+03 0.69583851E+03 0.91188000E+02 0.0000E+00 0.9000E+01
      -13  1    4    4    0    0 0.84407924E+01 -.95327806E+01 0.68977973E+02 0.70143373E+02 0.10565837E+00 0.0000E+00 0.9000E+01
       13  1    4    4    0    0 0.92963673E+02 -.97774910E+02 0.64025566E+02 0.14933674E+03 0.10565837E+00 0.0000E+00 0.9000E+01
       23  1    3    3    0    0 -.30365479E+02 -.28273307E+03 0.54057226E+03 0.61757079E+03 0.91188000E+02 0.0000E+00 0.9000E+01
#aMCatNLO 1  0  0  1  2 0.12420303D+03 0.00000000D+00  -5  7  0 0.00000000D+00 0.00000000D+00 0.00000000D+00 0.00000000D+00 0.00000000D+00
  <mgrwgt>
 0.6241990820D-03    9    2    0
 0.451894964298304D+03 0.000000000000000D+00 0.000000000000000D+00 0.451894964298304D+03
 0.451894964298304D+03 0.000000000000000D+00 0.000000000000000D+00 -.451894964298304D+03
 0.406831251080010D+03 -.710389868609825D+02 0.390040764256452D+03 0.425206718365613D+01
 0.244742997991520D+02 0.844068375811458D+01 -.953266703449577D+01 0.209015422293119D+02
 0.165576359507209D+03 0.929637819421447D+02 -.977750228657166D+02 -.959859936567966D+02
 0.306908018210236D+03 -.303654788392768D+02 -.282733074356239D+03 0.708323842438285D+02
 0.000000000000000D+00 -.000000000000000D+00 0.000000000000000D+00 0.000000000000000D+00
 0.572728946177245D+03 0.000000000000000D+00 0.000000000000000D+00 0.572728946177245D+03
 0.489221343583833D+03 0.000000000000000D+00 0.000000000000000D+00 -.489221343583833D+03
 0.356387596515848D+03 -.662880907368997D+02 0.338060167067143D+03 0.425206718365613D+01
 0.261144871639854D+02 0.875558959758946D+01 -.129781209376717D+02 0.209015422293119D+02
 0.181676276270644D+03 0.951253653550692D+02 -.121425381396763D+03 -.959859936567966D+02
 0.348105930541749D+03 -.262881381916388D+02 -.327344153250198D+03 0.708323842438285D+02
 0.149665999268851D+03 -.113047260241201D+02 0.123687488517489D+03 0.835076025934117D+02
0.141171719318D-04 0.000000000000D+00 0.000000000000D+00 0.224289197843D-06 0.000000000000D+00  7 2 -2 23 -13 13 23 21 0 0.21315372D+00 0.22675422D-01 0.18193615D+06 0.18193615D+06 0.18193615D+06 0.11009968D+01  1  2  2  1  7  1        2 0.433284457713D-03 0.100000000000D+01
-.781107720278D-06 0.000000000000D+00 -.542136573549D-07 0.224289197843D-06 0.000000000000D+00  7 2 -2 23 -13 13 23 21 2 0.21315372D+00 0.22675422D-01 0.18193615D+06 0.18193615D+06 0.18193615D+06 0.11009968D+01  1  2  3  1  7  1        2 -.290608613499D-04 0.100000000000D+01
0.877221055786D-06 0.000000000000D+00 0.000000000000D+00 0.224289197843D-06 0.000000000000D+00  7 2 -2 23 -13 13 23 21 2 0.21315372D+00 0.22675422D-01 0.18193615D+06 0.18193615D+06 0.18193615D+06 0.11009968D+01  1  2 15  1  7  1        2 0.326367270654D-04 0.100000000000D+01
0.137424378566D-04 0.000000000000D+00 0.000000000000D+00 0.224289197843D-06 0.000000000000D+00  7 2 -2 23 -13 13 23 21 2 0.27718141D+00 0.22675422D-01 0.24566576D+06 0.24566576D+06 0.24566576D+06 0.10910310D+01  1  2 12  1  7  1        2 0.295254757685D-03 0.100000000000D+01
-.145383059585D-04 0.000000000000D+00 0.000000000000D+00 0.224289197843D-06 0.000000000000D+00  7 2 -2 23 -13 13 23 21 2 0.21315372D+00 0.22675422D-01 0.18193615D+06 0.18193615D+06 0.18193615D+06 0.11009968D+01  1  2  4  1  7  1        2 -.540892994338D-03 0.100000000000D+01
-.252291475015D-04 0.000000000000D+00 -.672739378069D-05 0.224289197843D-06 0.000000000000D+00  7 2 -2 23 -13 13 23 21 2 0.28008709D+00 0.22675422D-01 0.18193615D+06 0.18193615D+06 0.18193615D+06 0.11009968D+01  1  2  5  1  7  1        2 -.544728375993D-03 0.100000000000D+01
0.263219829199D-04 0.000000000000D+00 0.648410641078D-05 0.224289197843D-06 0.000000000000D+00  7 2 -2 23 -13 13 23 21 2 0.21315372D+00 0.22675422D-01 0.18193615D+06 0.18193615D+06 0.18193615D+06 0.11009968D+01  1  2  6  1  7  1        2 0.979300903361D-03 0.100000000000D+01
0.482285163686D-06 0.000000000000D+00 0.000000000000D+00 0.224289197843D-06 0.000000000000D+00  7 21 -2 23 -13 13 23 -2 2 0.27718141D+00 0.22675422D-01 0.24566576D+06 0.24566576D+06 0.24566576D+06 0.10910310D+01  1  2 12  3  7  1        2 0.257941289629D-05 0.100000000000D+01
-.780881032466D-06 0.000000000000D+00 -.242908368485D-06 0.224289197843D-06 0.000000000000D+00  7 21 -2 23 -13 13 23 -2 2 0.28008709D+00 0.22675422D-01 0.18193615D+06 0.18193615D+06 0.18193615D+06 0.11009968D+01  1  2  5  3  7  1        2 -.417494507259D-05 0.100000000000D+01
  </mgrwgt>
  </event>
  <event>
  8     66 0.29152272E-05 0.68133579E+03 0.75467711E-02 0.91046631E-01
        2 -1    0    0  501    0 0.00000000E+00 0.00000000E+00 0.55167500E+03 0.55167509E+03 0.32000000E+00 0.0000E+00 0.9000E+01
       -2 -1    0    0    0  501 0.00000000E+00 0.00000000E+00 -.10987253E+04 0.10987253E+04 0.32000000E+00 0.0000E+00 0.9000E+01
       25  2    1    2    0    0 -.34995804E+03 -.55457477E+03 -.66133196E+03 0.97853781E+03 0.30025403E+03 0.0000E+00 0.0000E+00
       23  2    3    3    0    0 -.29951227E+03 -.33912635E+03 -.53892936E+03 0.70972478E+03 0.92466902E+02 0.0000E+00 0.0000E+00
       23  1    1    2    0    0 0.34995804E+03 0.55457477E+03 0.11428167E+03 0.67186260E+03 0.91188000E+02 0.0000E+00 0.9000E+01
      -11  1    4    4    0    0 -.26059557E+03 -.33141301E+03 -.48246833E+03 0.64071859E+03 0.51099893E-03 0.0000E+00 0.9000E+01
       11  1    4    4    0    0 -.38916708E+02 -.77133443E+01 -.56461033E+02 0.69006189E+02 0.51099893E-03 0.0000E+00 0.9000E+01
       23  1    3    3    0    0 -.50445765E+02 -.21544842E+03 -.12240260E+03 0.26881303E+03 0.91188000E+02 0.0000E+00 0.9000E+01
#aMCatNLO 1  0  0  1  1 0.25384300D+02 0.00000000D+00  -5  7  0 0.00000000D+00 0.00000000D+00 0.00000000D+00 0.00000000D+00 0.00000000D+00
  <mgrwgt>
 0.2149248950D-03    4    2    0
 0.778549535371072D+03 0.000000000000000D+00 0.000000000000000D+00 0.778549535371072D+03
 0.778549535371072D+03 0.000000000000000D+00 0.000000000000000D+00 -.778549535371072D+03
 0.752270786090174D+03 0.349958039691754D+03 0.554574771231796D+03 0.357172616292227D+03
 0.509606491861299D+03 -.260595566110500D+03 -.331413005053812D+03 -.286276348223059D+03
 0.533047769901027D+02 -.389167081950987D+02 -.771334424531941D+01 -.356004690106089D+02
 0.241917015800569D+03 -.504457653861543D+02 -.215448421932665D+03 -.352957990585587D+02
 0.000000000000000D+00 0.000000000000000D+00 -.000000000000000D+00 -.000000000000000D+00
 0.784466113966907D+03 0.000000000000000D+00 0.000000000000000D+00 0.784466113966907D+03
 0.806364505964451D+03 0.000000000000000D+00 0.000000000000000D+00 -.806364505964451D+03
 0.756013393969666D+03 0.342419141749376D+03 0.564285259467336D+03 0.357172616292227D+03
 0.508011836746754D+03 -.265681955548971D+03 -.324861473890881D+03 -.286276348223059D+03
 0.536015973261541D+02 -.394510612407747D+02 -.702507004353001D+01 -.356004690106089D+02
 0.239679140225423D+03 -.528529405841180D+02 -.212347856489363D+03 -.352957990585587D+02
 0.335246516633609D+02 0.155668156244872D+02 -.200508590435624D+02 -.218983919975440D+02
0.241633631804D-03 0.000000000000D+00 0.000000000000D+00 0.166600263370D-05 0.000000000000D+00  7 2 -2 23 -11 11 23 21 0 0.84873087D-01 0.16903467D+00 0.46421845D+06 0.46421845D+06 0.46421845D+06 0.10707970D+01  1  2  2  1  7  1        2 0.333847731699D-03 0.100000000000D+01
-.131337348079D-04 0.000000000000D+00 -.927936769725D-06 0.166600263370D-05 0.000000000000D+00  7 2 -2 23 -11 11 23 21 2 0.84873087D-01 0.16903467D+00 0.46421845D+06 0.46421845D+06 0.46421845D+06 0.10707970D+01  1  2  3  1  7  1        2 -.208062378999D-04 0.100000000000D+01
0.155361466433D-04 0.000000000000D+00 0.000000000000D+00 0.166600263370D-05 0.000000000000D+00  7 2 -2 23 -11 11 23 21 2 0.84873087D-01 0.16903467D+00 0.46421845D+06 0.46421845D+06 0.46421845D+06 0.10707970D+01  1  2 15  1  7  1        2 0.246120976125D-04 0.100000000000D+01
-.774712929909D-04 0.000000000000D+00 0.000000000000D+00 0.166600263370D-05 0.000000000000D+00  7 2 -2 23 -11 11 23 21 2 0.84873087D-01 0.16903467D+00 0.46421845D+06 0.46421845D+06 0.46421845D+06 0.10707970D+01  1  2  4  1  7  1        2 -.122728696442D-03 0.100000000000D+01
  </mgrwgt>
  </event>
  <event>
  8     66 0.29152272E-05 0.10557598E+03 0.75467711E-02 0.10222254E+00
        2 -1    0    0  501    0 0.00000000E+00 0.00000000E+00 0.86631182E+03 0.86631188E+03 0.32000000E+00 0.0000E+00 0.9000E+01
       -2 -1    0    0    0  501 0.00000000E+00 0.00000000E+00 -.94411499E+02 0.94412041E+02 0.32000000E+00 0.0000E+00 0.9000E+01
       25  2    1    2    0    0 -.10457208E+03 0.15559559E+03 0.39670827E+03 0.53150413E+03 0.29995646E+03 0.0000E+00 0.0000E+00
       23  2    3    3    0    0 -.86867443E+02 0.89201672E+02 0.40293579E+02 0.15724714E+03 0.87179126E+02 0.0000E+00 0.0000E+00
       23  1    1    2    0    0 0.10457208E+03 -.15559559E+03 0.37519205E+03 0.42921979E+03 0.91188000E+02 0.0000E+00 0.9000E+01
      -13  1    4    4    0    0 -.23673841E+02 0.31323235E+02 -.27536798E+02 0.47957087E+02 0.10565837E+00 0.0000E+00 0.9000E+01
       13  1    4    4    0    0 -.63193603E+02 0.57878436E+02 0.67830376E+02 0.10929005E+03 0.10565837E+00 0.0000E+00 0.9000E+01
       23  1    3    3    0    0 -.17704633E+02 0.66393917E+02 0.35641469E+03 0.37425698E+03 0.91188000E+02 0.0000E+00 0.9000E+01
#aMCatNLO 1  0  0  2  1 0.73979089D+02 0.00000000D+00  -5  7  0 0.00000000D+00 0.00000000D+00 0.00000000D+00 0.00000000D+00 0.00000000D+00
  <mgrwgt>
 0.4610497885D-03    9    2    0
 0.285989661188669D+03 0.000000000000000D+00 0.000000000000000D+00 0.285989661188669D+03
 0.285989661188669D+03 0.000000000000000D+00 0.000000000000000D+00 -.285989661188669D+03
 0.214607163542083D+03 0.104572076463527D+03 -.155595588987701D+03 0.509477851457278D+02
 0.117712655377909D+03 -.236737832425827D+02 0.313231966384474D+02 -.110971521461368D+03
 0.920300019120968D+02 -.631936601698901D+02 0.578784748446561D+02 -.335583777308959D+02
 0.147629501545248D+03 -.177046330510539D+02 0.663939175045971D+02 0.935821140465357D+02
 0.000000000000000D+00 0.000000000000000D+00 -.000000000000000D+00 -.000000000000000D+00
 0.316009113776510D+03 0.000000000000000D+00 0.000000000000000D+00 0.316009113776510D+03
 0.337878376194188D+03 0.000000000000000D+00 0.000000000000000D+00 -.337878376194188D+03
 0.192247960674104D+03 0.880395820135837D+02 -.135267816671114D+03 0.509477851457278D+02
 0.123768172752606D+03 -.334863189910917D+02 0.433883446503216D+02 -.110971521461368D+03
 0.103761361711830D+03 -.711496116617027D+02 0.676608323090451D+02 -.335583777308959D+02
 0.156966166192649D+03 -.300818304528438D+02 0.816124830672725D+02 0.935821140465357D+02
 0.771438286395075D+02 0.466781790920544D+02 -.573938433555247D+02 -.218692624176784D+02
0.270105224760D-05 0.000000000000D+00 0.000000000000D+00 0.252420146921D-07 0.000000000000D+00  7 2 -2 23 -13 13 23 21 0 0.13327879D+00 0.14524892D-01 0.50088119D+05 0.50088119D+05 0.50088119D+05 0.11472281D+01  1  2  2  2  7  2       -2 0.351362619637D-03 0.100000000000D+01
-.139090300307D-06 0.000000000000D+00 -.103727518342D-07 0.252420146921D-07 0.000000000000D+00  7 2 -2 23 -13 13 23 21 2 0.13327879D+00 0.14524892D-01 0.50088119D+05 0.50088119D+05 0.50088119D+05 0.11472281D+01  1  2  3  2  7  2       -2 -.238132675242D-04 0.100000000000D+01
0.176450181395D-06 0.000000000000D+00 0.000000000000D+00 0.252420146921D-07 0.000000000000D+00  7 2 -2 23 -13 13 23 21 2 0.13327879D+00 0.14524892D-01 0.50088119D+05 0.50088119D+05 0.50088119D+05 0.11472281D+01  1  2 15  2  7  2       -2 0.302095499469D-04 0.100000000000D+01
0.211842260458D-05 0.000000000000D+00 0.000000000000D+00 0.252420146921D-07 0.000000000000D+00  7 2 -2 23 -13 13 23 21 2 0.13327879D+00 0.17810745D-01 0.72459138D+05 0.72459138D+05 0.72459138D+05 0.11333871D+01  1  2 12  2  7  2       -2 0.255211803531D-03 0.100000000000D+01
-.218651958069D-05 0.000000000000D+00 0.000000000000D+00 0.252420146921D-07 0.000000000000D+00  7 2 -2 23 -13 13 23 21 2 0.13327879D+00 0.14524892D-01 0.50088119D+05 0.50088119D+05 0.50088119D+05 0.11472281D+01  1  2  4  2  7  2       -2 -.374347999874D-03 0.100000000000D+01
-.428545990800D-05 0.000000000000D+00 -.154859409137D-05 0.252420146921D-07 0.000000000000D+00  7 2 -2 23 -13 13 23 21 2 0.13327879D+00 0.18939258D-01 0.50088119D+05 0.50088119D+05 0.50088119D+05 0.11472281D+01  1  2  5  2  7  2       -2 -.479500756607D-03 0.100000000000D+01
0.458692550239D-05 0.000000000000D+00 0.149562135585D-05 0.252420146921D-07 0.000000000000D+00  7 2 -2 23 -13 13 23 21 2 0.13327879D+00 0.14524892D-01 0.50088119D+05 0.50088119D+05 0.50088119D+05 0.11472281D+01  1  2  6  2  7  2       -2 0.785314891554D-03 0.100000000000D+01
0.615342519880D-07 0.000000000000D+00 0.000000000000D+00 0.252420146921D-07 0.000000000000D+00  7 2 21 23 -13 13 23 2 2 0.13327879D+00 0.17810745D-01 0.72459138D+05 0.72459138D+05 0.72459138D+05 0.11333871D+01  1  2 12  4  7  2       -2 0.979991180797D-04 0.100000000000D+01
-.122936341907D-06 0.000000000000D+00 -.547578387900D-07 0.252420146921D-07 0.000000000000D+00  7 2 21 23 -13 13 23 2 2 0.13327879D+00 0.18939258D-01 0.50088119D+05 0.50088119D+05 0.50088119D+05 0.11472281D+01  1  2  5  4  7  2       -2 -.181386170287D-03 0.100000000000D+01
  </mgrwgt>
  </event>
  <event>
  8     66 0.29152272E-05 0.26438845E+03 0.75467711E-02 0.97984057E-01
        2 -1    0    0  501    0 0.00000000E+00 0.00000000E+00 0.95473426E+03 0.95473431E+03 0.32000000E+00 0.0000E+00 0.9000E+01
       -2 -1    0    0    0  501 0.00000000E+00 0.00000000E+00 -.84589497E+02 0.84590102E+02 0.32000000E+00 0.0000E+00 0.9000E+01
       25  2    1    2    0    0 -.11548760E+03 -.14156819E+03 0.65437209E+03 0.74225197E+03 0.29892511E+03 0.0000E+00 0.0000E+00
       23  2    3    3    0    0 -.16735032E+03 -.11233255E+03 0.54703996E+03 0.58934710E+03 0.86328152E+02 0.0000E+00 0.0000E+00
       23  1    1    2    0    0 0.11548760E+03 0.14156819E+03 0.21577267E+03 0.29707244E+03 0.91188000E+02 0.0000E+00 0.9000E+01
      -13  1    4    4    0    0 -.23445719E+02 0.11241418E+02 0.37377486E+02 0.45531954E+02 0.10565837E+00 0.0000E+00 0.9000E+01
       13  1    4    4    0    0 -.14390460E+03 -.12357396E+03 0.50966247E+03 0.54381514E+03 0.10565837E+00 0.0000E+00 0.9000E+01
       23  1    3    3    0    0 0.51862720E+02 -.29235646E+02 0.10733213E+03 0.15290488E+03 0.91188000E+02 0.0000E+00 0.9000E+01
#aMCatNLO 1  0  0  2  1 0.18895111D+03 0.00000000D+00  -5  7  0 0.00000000D+00 0.00000000D+00 0.00000000D+00 0.00000000D+00 0.00000000D+00
  <mgrwgt>
 0.8099501405D-03    3    2    0
 0.284184505814810D+03 0.000000000000000D+00 0.000000000000000D+00 0.284184505814810D+03
 0.284184505814810D+03 0.000000000000000D+00 0.000000000000000D+00 -.284184505814810D+03
 0.212891939839286D+03 0.115487598574636D+03 0.141568191689305D+03 -.602394254771611D+02
 0.260367595867963D+02 -.234455381094520D+02 0.112416193255430D+02 -.135852400731264D+01
 0.214157313521140D+03 -.143904780569456D+03 -.123574164564322D+03 0.994192884508757D+02
 0.115282998682398D+03 0.518627201042727D+02 -.292356464505264D+02 -.378213389664020D+02
 0.000000000000000D+00 0.000000000000000D+00 -.000000000000000D+00 0.000000000000000D+00
 0.454868698394205D+03 0.000000000000000D+00 0.000000000000000D+00 0.454868698394205D+03
 0.356916535713230D+03 0.000000000000000D+00 0.000000000000000D+00 -.356916535713230D+03
 0.206241840977079D+03 0.525230817247761D+02 0.166832200518751D+03 -.602394254771611D+02
 0.360632828376833D+02 -.327745384109721D+02 0.149848060881686D+02 -.135852400731264D+01
 0.254782989307932D+03 -.214351499374963D+03 -.953079820388247D+02 0.994192884508757D+02
 0.101865854419610D+03 0.192414587174234D+02 -.161466262064700D+02 -.378213389664020D+02
 0.212831266565129D+03 0.175361497343735D+03 -.703623983616253D+02 0.979521626809753D+02
0.588340395989D-05 0.000000000000D+00 0.000000000000D+00 0.433738510737D-08 0.000000000000D+00  7 2 -2 23 -13 13 23 21 0 0.14688224D+00 0.13013819D-01 0.69901253D+05 0.69901253D+05 0.69901253D+05 0.11347117D+01  1  2  2  2  7  2       -2 0.800391708800D-03 0.100000000000D+01
-.324783901223D-06 0.000000000000D+00 -.225938203418D-07 0.433738510737D-08 0.000000000000D+00  7 2 -2 23 -13 13 23 21 2 0.14688224D+00 0.13013819D-01 0.69901253D+05 0.69901253D+05 0.69901253D+05 0.11347117D+01  1  2  3  2  7  2       -2 -.568904677732D-04 0.100000000000D+01
0.379352352739D-06 0.000000000000D+00 0.000000000000D+00 0.433738510737D-08 0.000000000000D+00  7 2 -2 23 -13 13 23 21 2 0.14688224D+00 0.13013819D-01 0.69901253D+05 0.69901253D+05 0.69901253D+05 0.11347117D+01  1  2 15  2  7  2       -2 0.664488994588D-04 0.100000000000D+01
  </mgrwgt>
  </event>
  <event>
  8     66 -.29152272E-05 0.20687009E+03 0.75467711E-02 0.10265810E+00
        2 -1    0    0  501    0 0.00000000E+00 0.00000000E+00 0.17066304E+04 0.17066304E+04 0.32000000E+00 0.0000E+00 0.9000E+01
       -2 -1    0    0    0  501 0.00000000E+00 0.00000000E+00 -.58184671E+02 0.58185551E+02 0.32000000E+00 0.0000E+00 0.9000E+01
       25  2    1    2    0    0 0.17774260E+03 -.10462960E+03 0.12993286E+04 0.13491986E+04 0.29923613E+03 0.0000E+00 0.0000E+00
       23  2    3    3    0    0 0.10325889E+03 -.13161322E+03 0.40795942E+03 0.44968194E+03 0.88309262E+02 0.0000E+00 0.0000E+00
       23  1    1    2    0    0 -.17774260E+03 0.10462960E+03 0.34911710E+03 0.41561735E+03 0.91188000E+02 0.0000E+00 0.9000E+01
      -13  1    4    4    0    0 0.30005518E+02 -.12584733E+02 0.17511084E+03 0.17810818E+03 0.10565837E+00 0.0000E+00 0.9000E+01
       13  1    4    4    0    0 0.73253372E+02 -.11902849E+03 0.23284858E+03 0.27157377E+03 0.10565837E+00 0.0000E+00 0.9000E+01
       23  1    3    3    0    0 0.74483707E+02 0.26983619E+02 0.89136920E+03 0.89951667E+03 0.91188000E+02 0.0000E+00 0.9000E+01
#aMCatNLO 1  0  0  2  2 0.23778322D+01 0.00000000D+00  -5  7  0 0.00000000D+00 0.00000000D+00 0.00000000D+00 0.00000000D+00 0.00000000D+00
  <mgrwgt>
 -.2468662586D-03   10    2    0
 0.315119867579411D+03 0.000000000000000D+00 0.000000000000000D+00 0.315119867579411D+03
 0.315119867579411D+03 0.000000000000000D+00 0.000000000000000D+00 -.315119867579411D+03
 0.250678509339476D+03 -.177742597179120D+03 0.104629604825805D+03 -.109474557056324D+03
 0.407263231721119D+02 0.300054554628494D+02 -.125845811426303D+02 0.244935575009188D+02
 0.151433762595211D+03 0.732534342250808D+02 -.119028642284105D+03 -.582949495580614D+02
 0.187401140052024D+03 0.744837074911903D+02 0.269836186009302D+02 0.143275949113467D+03
 0.000000000000000D+00 -.000000000000000D+00 -.000000000000000D+00 -.000000000000000D+00
 0.316000448597633D+03 0.000000000000000D+00 0.000000000000000D+00 0.316000448597633D+03
 0.316731423852606D+03 0.000000000000000D+00 0.000000000000000D+00 -.316731423852606D+03
 0.250970363870620D+03 -.177601127068854D+03 0.105565303099768D+03 -.109474557056324D+03
 0.406965899545313D+02 0.300284175566831D+02 -.124327074250915D+02 0.244935575009188D+02
 0.151032120141272D+03 0.733387326959190D+02 -.118464469175138D+03 -.582949495580614D+02
 0.187545146839245D+03 0.745894461769189D+02 0.276829854533419D+02 0.143275949113467D+03
 0.248765164457053D+01 -.355469360666874D+00 -.235111195288078D+01 -.730975254972866D+00
0.388784203168D-05 0.000000000000D+00 0.000000000000D+00 0.297546125373D-07 0.000000000000D+00  7 2 -2 23 -13 13 23 21 0 0.26255859D+00 0.89515579D-02 0.67238029D+05 0.67238029D+05 0.67238029D+05 0.11361489D+01  1  2  2  2  7  2       -2 0.360397159699D-03 0.100000000000D+01
-.206009842630D-06 0.000000000000D+00 -.149303370940D-07 0.297546125373D-07 0.000000000000D+00  7 2 -2 23 -13 13 23 21 2 0.26255859D+00 0.89515579D-02 0.67238029D+05 0.67238029D+05 0.67238029D+05 0.11361489D+01  1  2  3  2  7  2       -2 -.246508098898D-04 0.100000000000D+01
0.239593134234D-06 0.000000000000D+00 0.000000000000D+00 0.297546125373D-07 0.000000000000D+00  7 2 -2 23 -13 13 23 21 2 0.26255859D+00 0.89515579D-02 0.67238029D+05 0.67238029D+05 0.67238029D+05 0.11361489D+01  1  2 15  2  7  2       -2 0.286693331128D-04 0.100000000000D+01
-.965302083394D-04 0.000000000000D+00 0.000000000000D+00 0.297546125373D-07 0.000000000000D+00  7 2 -2 23 -13 13 23 21 2 0.26255859D+00 0.89515579D-02 0.67238029D+05 0.67238029D+05 0.67238029D+05 0.11361489D+01  1  2  4  2  7  2       -2 -.115506510952D-01 0.100000000000D+01
-.619124846011D-03 0.000000000000D+00 -.622125578980D-04 0.297546125373D-07 0.000000000000D+00  7 2 -2 23 -13 13 23 21 2 0.26255859D+00 0.90247600D-02 0.67238029D+05 0.67238029D+05 0.67238029D+05 0.11361489D+01  1  2  5  2  7  2       -2 -.731691593154D-01 0.100000000000D+01
0.619613039396D-03 0.000000000000D+00 0.622104946706D-04 0.297546125373D-07 0.000000000000D+00  7 2 -2 23 -13 13 23 21 2 0.26255859D+00 0.89515579D-02 0.67238029D+05 0.67238029D+05 0.67238029D+05 0.11361489D+01  1  2  6  2  7  2       -2 0.741419101359D-01 0.100000000000D+01
0.965315547998D-04 0.000000000000D+00 0.000000000000D+00 0.297546125373D-07 0.362076039785D-07  7 2 -2 23 -13 13 23 21 2 0.26329229D+00 0.89973371D-02 0.67875604D+05 0.67875604D+05 0.67875604D+05 0.11357992D+01  1  2 11  2  7  2       -2 0.113864431163D-01 0.100000000000D+01
0.471495833899D-09 0.000000000000D+00 0.000000000000D+00 0.297546125373D-07 0.000000000000D+00  7 2 21 23 -13 13 23 2 2 0.26255859D+00 0.90097948D-02 0.67875604D+05 0.67875604D+05 0.67875604D+05 0.11357992D+01  1  2 12  4  7  2       -2 0.835038333635D-06 0.100000000000D+01
-.932464868505D-06 0.000000000000D+00 -.938523457501D-07 0.297546125373D-07 0.000000000000D+00  7 2 21 23 -13 13 23 2 2 0.26255859D+00 0.90247600D-02 0.67238029D+05 0.67238029D+05 0.67238029D+05 0.11361489D+01  1  2  5  4  7  2       -2 -.164831998981D-02 0.100000000000D+01
0.128992962627D-06 0.000000000000D+00 0.000000000000D+00 0.297546125373D-07 0.344461486742D-10  7 2 21 23 -13 13 23 2 2 0.26329229D+00 0.89973371D-02 0.67875604D+05 0.67875604D+05 0.67875604D+05 0.11357992D+01  1  2 11  4  7  2       -2 0.227660168365D-03 0.100000000000D+01
  </mgrwgt>
  </event>
  <event>
  9     66 0.29152272E-05 0.52448478E+03 0.75467711E-02 0.93233407E-01
        2 -1    0    0  501    0 0.00000000E+00 0.00000000E+00 0.10283381E+04 0.10283381E+04 0.32000000E+00 0.0000E+00 0.9000E+01
       21 -1    0    0  502  501 0.00000000E+00 0.00000000E+00 -.67001594E+03 0.67001636E+03 0.75000000E+00 0.0000E+00 0.9000E+01
       25  2    1    2    0    0 0.11315019E+03 0.46347000E+03 -.42112892E+03 0.70338496E+03 0.29965551E+03 0.0000E+00 0.0000E+00
       23  2    3    3    0    0 0.70188907E+02 0.34356827E+02 -.63009825E+02 0.13545158E+03 0.90939640E+02 0.0000E+00 0.0000E+00
       23  1    1    2    0    0 -.19349394E+03 -.46948652E+03 0.56114663E+03 0.76227179E+03 0.91188000E+02 0.0000E+00 0.9000E+01
      -13  1    4    4    0    0 0.39429943E+02 -.10738651E+02 0.12082740E+02 0.42615053E+02 0.10565837E+00 0.0000E+00 0.9000E+01
       13  1    4    4    0    0 0.30758964E+02 0.45095478E+02 -.75092565E+02 0.92836526E+02 0.10565837E+00 0.0000E+00 0.9000E+01
       23  1    3    3    0    0 0.42961285E+02 0.42911317E+03 -.35811909E+03 0.56793338E+03 0.91188000E+02 0.0000E+00 0.9000E+01
        2  1    1    2  502    0 0.80343745E+02 0.60165200E+01 0.21830444E+03 0.23269776E+03 0.32000000E+00 0.0000E+00 0.9000E+01
#aMCatNLO 2  0  0  2  2 0.80568702D+02 0.00000000D+00  -5  7  0 0.00000000D+00 0.00000000D+00 0.00000000D+00 0.00000000D+00 0.00000000D+00
  <mgrwgt>
 0.6844993602D-04    1    2    0
 0.728363479894037D+03 0.000000000000000D+00 0.000000000000000D+00 0.728363479894037D+03
 0.728363479894037D+03 0.000000000000000D+00 0.000000000000000D+00 -.728363479894037D+03
 0.700397300259674D+03 -.154576474057033D+03 -.466572196632601D+03 0.490568675992022D+03
 0.438451882028704D+02 0.417858707099042D+02 -.105623039036862D+02 0.804855724999615D+01
 0.102506164727933D+03 0.363521087933748D+02 0.455143954893951D+02 -.843473638991737D+02
 0.609978306597597D+03 0.764384945537539D+02 0.431620105046892D+03 -.414269869342844D+03
 0.000000000000000D+00 0.000000000000000D+00 0.000000000000000D+00 0.000000000000000D+00
 0.934372065964522D+03 0.000000000000000D+00 0.000000000000000D+00 0.934372065964522D+03
 0.737396932933534D+03 0.000000000000000D+00 0.000000000000000D+00 -.737396932933534D+03
 0.711920201626480D+03 -.193493936284358D+03 -.469486520463055D+03 0.490568675992022D+03
 0.416511803352579D+02 0.394299545021730D+02 -.107387260636575D+02 0.804855724999615D+01
 0.100469895330128D+03 0.307589520564432D+02 0.450955534315370D+02 -.843473638991737D+02
 0.604912029424794D+03 0.429612851448562D+02 0.429113173104938D+03 -.414269869342844D+03
 0.212815692181396D+03 0.803437445808859D+02 0.601651999023828D+01 0.196975133030988D+03
0.271070885013D-05 0.000000000000D+00 0.000000000000D+00 0.329598645364D-05 0.837645542672D-11  7 2 21 23 -13 13 23 2 2 0.15820587D+00 0.10307940D+00 0.32077194D+06 0.32077194D+06 0.32077194D+06 0.10824073D+01  1  2  1  4  7  2       -2 0.684499360237D-04 0.100000000000D+01
  </mgrwgt>
  </event>
  <event>
  8     66 0.29152272E-05 0.18124824E+03 0.75467711E-02 0.10164595E+00
        2 -1    0    0  501    0 0.00000000E+00 0.00000000E+00 0.50880033E+03 0.50880043E+03 0.32000000E+00 0.0000E+00 0.9000E+01
       -2 -1    0    0    0  501 0.00000000E+00 0.00000000E+00 -.15699486E+03 0.15699518E+03 0.32000000E+00 0.0000E+00 0.9000E+01
       25  2    1    2    0    0 -.89706068E+02 0.16131981E+03 0.27132928E+03 0.44474600E+03 0.30018022E+03 0.0000E+00 0.0000E+00
       23  2    3    3    0    0 -.12061187E+03 0.19003780E+03 0.23252367E+03 0.33703798E+03 0.94158125E+02 0.0000E+00 0.0000E+00
       23  1    1    2    0    0 0.89706068E+02 -.16131981E+03 0.80476190E+02 0.22104961E+03 0.91188000E+02 0.0000E+00 0.9000E+01
      -13  1    4    4    0    0 -.31064907E+02 0.30198800E+02 0.30995415E+01 0.43435173E+02 0.10565837E+00 0.0000E+00 0.9000E+01
       13  1    4    4    0    0 -.89546964E+02 0.15983900E+03 0.22942413E+03 0.29360280E+03 0.10565837E+00 0.0000E+00 0.9000E+01
       23  1    3    3    0    0 0.30905803E+02 -.28717982E+02 0.38805608E+02 0.10770802E+03 0.91188000E+02 0.0000E+00 0.9000E+01
#aMCatNLO 1  0  0  2  1 0.27883344D+02 0.00000000D+00  -5  7  0 0.00000000D+00 0.00000000D+00 0.00000000D+00 0.00000000D+00 0.00000000D+00
  <mgrwgt>
 0.3615193444D-03    9    2    0
 0.282629042638706D+03 0.000000000000000D+00 0.000000000000000D+00 0.282629042638706D+03
 0.282629042638706D+03 0.000000000000000D+00 0.000000000000000D+00 -.282629042638706D+03
 0.210278983785902D+03 0.897060688371724D+02 -.161319815498420D+03 -.427871244578062D+02
 0.492313192992942D+02 -.310648329615221D+02 0.301986377346907D+02 -.233824984120753D+02
 0.203034518638023D+03 -.895470406801285D+02 0.159839161839190D+03 0.874973462829026D+02
 0.102713263554194D+03 0.309058048044782D+02 -.287179840754602D+02 -.213277234130211D+02
 0.000000000000000D+00 0.000000000000000D+00 -.000000000000000D+00 -.000000000000000D+00
 0.291081884940392D+03 0.000000000000000D+00 0.000000000000000D+00 0.291081884940392D+03
 0.306941823437780D+03 0.000000000000000D+00 0.000000000000000D+00 -.306941823437780D+03
 0.202116091168710D+03 0.817537970779028D+02 -.154987875684828D+03 -.427871244578062D+02
 0.514178709754712D+02 -.330056653381053D+02 0.317440117069108D+02 -.233824984120753D+02
 0.211648331587137D+03 -.975434279290835D+02 0.166206228297595D+03 0.874973462829026D+02
 0.100763095742001D+03 0.269821417833129D+02 -.255937953089134D+02 -.213277234130211D+02
 0.320783189048531D+02 0.218131544059732D+02 -.173685690107642D+02 -.158599384973886D+02
0.281208555061D-05 0.000000000000D+00 0.000000000000D+00 0.457378525306D-07 0.000000000000D+00  7 2 -2 23 -13 13 23 21 0 0.78277006D-01 0.24153088D-01 0.70993525D+05 0.70993525D+05 0.70993525D+05 0.11341397D+01  1  2  2  2  7  2       -2 0.299275236621D-03 0.100000000000D+01
-.155566585067D-06 0.000000000000D+00 -.107991489535D-07 0.457378525306D-07 0.000000000000D+00  7 2 -2 23 -13 13 23 21 2 0.78277006D-01 0.24153088D-01 0.70993525D+05 0.70993525D+05 0.70993525D+05 0.11341397D+01  1  2  3  2  7  2       -2 -.212956869086D-04 0.100000000000D+01
0.175220591722D-06 0.000000000000D+00 0.000000000000D+00 0.457378525306D-07 0.000000000000D+00  7 2 -2 23 -13 13 23 21 2 0.78277006D-01 0.24153088D-01 0.70993525D+05 0.70993525D+05 0.70993525D+05 0.11341397D+01  1  2 15  2  7  2       -2 0.239861462514D-04 0.100000000000D+01
0.750382412208D-05 0.000000000000D+00 0.000000000000D+00 0.457378525306D-07 0.000000000000D+00  7 2 -2 23 -13 13 23 21 2 0.78277006D-01 0.26570021D-01 0.79075615D+05 0.79075615D+05 0.79075615D+05 0.11301861D+01  1  2 12  2  7  2       -2 0.867158106164D-03 0.100000000000D+01
-.737630581505D-05 0.000000000000D+00 0.000000000000D+00 0.457378525306D-07 0.000000000000D+00  7 2 -2 23 -13 13 23 21 2 0.78277006D-01 0.24153088D-01 0.70993525D+05 0.70993525D+05 0.70993525D+05 0.11341397D+01  1  2  4  2  7  2       -2 -.100975089935D-02 0.100000000000D+01
-.192224044073D-04 0.000000000000D+00 -.348913687435D-05 0.457378525306D-07 0.000000000000D+00  7 2 -2 23 -13 13 23 21 2 0.78277006D-01 0.26945073D-01 0.70993525D+05 0.70993525D+05 0.70993525D+05 0.11341397D+01  1  2  5  2  7  2       -2 -.218404698802D-02 0.100000000000D+01
0.195080156836D-04 0.000000000000D+00 0.346836531775D-05 0.457378525306D-07 0.000000000000D+00  7 2 -2 23 -13 13 23 21 2 0.78277006D-01 0.24153088D-01 0.70993525D+05 0.70993525D+05 0.70993525D+05 0.11341397D+01  1  2  6  2  7  2       -2 0.267047447257D-02 0.100000000000D+01
0.116974842893D-06 0.000000000000D+00 0.000000000000D+00 0.457378525306D-07 0.000000000000D+00  7 2 21 23 -13 13 23 2 2 0.78277006D-01 0.26570021D-01 0.79075615D+05 0.79075615D+05 0.79075615D+05 0.11301861D+01  1  2 12  4  7  2       -2 0.165239893762D-03 0.100000000000D+01
-.323615500579D-06 0.000000000000D+00 -.612093673950D-07 0.457378525306D-07 0.000000000000D+00  7 2 21 23 -13 13 23 2 2 0.78277006D-01 0.26945073D-01 0.70993525D+05 0.70993525D+05 0.70993525D+05 0.11341397D+01  1  2  5  4  7  2       -2 -.449520936704D-03 0.100000000000D+01
  </mgrwgt>
  </event>
  <event>
  7     66 0.29152272E-05 0.10738197E+03 0.75467711E-02 0.10599296E+00
        2 -1    0    0  501    0 0.00000000E+00 0.00000000E+00 0.12270529E+04 0.12270529E+04 0.32000000E+00 0.0000E+00 0.9000E+01
       -2 -1    0    0    0  501 0.00000000E+00 0.00000000E+00 -.34006743E+02 0.34008249E+02 0.32000000E+00 0.0000E+00 0.9000E+01
       23  2    1    2    0    0 0.56118989E+02 0.12252172E+03 0.39047071E+03 0.42233657E+03 0.87976640E+02 0.0000E+00 0.0000E+00
       23  1    1    2    0    0 -.63511663E+02 -.46602272E+02 0.48138652E+03 0.49623960E+03 0.91188000E+02 0.0000E+00 0.9000E+01
      -13  1    3    3    0    0 -.52312450E+01 0.14649596E+02 0.34871551E+01 0.15942020E+02 0.10565837E+00 0.0000E+00 0.9000E+01
       13  1    3    3    0    0 0.61350234E+02 0.10787213E+03 0.38698356E+03 0.40639455E+03 0.10565837E+00 0.0000E+00 0.9000E+01
       23  1    1    2    0    0 0.73926743E+01 -.75919450E+02 0.32118891E+03 0.34248501E+03 0.91188000E+02 0.0000E+00 0.9000E+01
#aMCatNLO 1  0  0  1  2 0.30057464D+02 0.00000000D+00  -5  7  0 0.00000000D+00 0.00000000D+00 0.00000000D+00 0.00000000D+00 0.00000000D+00
  <mgrwgt>
 0.7331856004D-02    9    2    0
 0.204276890708130D+03 0.000000000000000D+00 0.000000000000000D+00 0.204276890708130D+03
 0.204276890708130D+03 0.000000000000000D+00 0.000000000000000D+00 -.204276890708130D+03
 0.125987824814474D+03 -.635133347673521D+02 -.466034982723619D+02 0.367675252497490D+02
 0.390242097260090D+02 -.523110171408785D+01 0.146492567474167D+02 -.357899957578186D+02
 0.124338686268011D+03 0.613507041492962D+02 0.107871613399214D+03 0.774047969384906D+01
 0.119203060607766D+03 0.739373233214377D+01 -.759173718742686D+02 -.871800918577951D+01
 0.000000000000000D+00 -.000000000000000D+00 0.000000000000000D+00 0.000000000000000D+00
 0.361318279653300D+03 0.000000000000000D+00 0.000000000000000D+00 0.361318279653300D+03
 0.206272290968564D+03 0.000000000000000D+00 0.000000000000000D+00 -.206272290968564D+03
 0.121978706382190D+03 -.544401657260830D+02 -.474127715852830D+02 0.367675252497490D+02
 0.386505970583590D+02 -.238895745856516D+01 0.143957541964331D+02 -.357899957578186D+02
 0.128465418616711D+03 0.706008814489360D+02 0.107046551990754D+03 0.774047969384906D+01
 0.120563237069552D+03 0.161668523928515D+02 -.766998825829185D+02 -.871800918577951D+01
 0.157932611495052D+03 -.299386106571392D+02 0.267034798101486D+01 0.155045988684737D+03
0.179068792516D-04 0.000000000000D+00 0.000000000000D+00 0.167912892296D-10 0.000000000000D+00  7 2 -2 23 -13 13 23 21 0 0.18877749D+00 0.52319257D-02 0.35917836D+05 0.35917836D+05 0.35917836D+05 0.11601502D+01  1  2  2  1  7  1        2 0.669996453714D-02 0.100000000000D+01
-.988026138588D-06 0.000000000000D+00 -.687671313156D-07 0.167912892296D-10 0.000000000000D+00  7 2 -2 23 -13 13 23 21 2 0.18877749D+00 0.52319257D-02 0.35917836D+05 0.35917836D+05 0.35917836D+05 0.11601502D+01  1  2  3  1  7  1        2 -.497564593262D-03 0.100000000000D+01
0.116989412053D-05 0.000000000000D+00 0.000000000000D+00 0.167912892296D-10 0.000000000000D+00  7 2 -2 23 -13 13 23 21 2 0.18877749D+00 0.52319257D-02 0.35917836D+05 0.35917836D+05 0.35917836D+05 0.11601502D+01  1  2 15  1  7  1        2 0.589152320477D-03 0.100000000000D+01
0.170579719407D-03 0.000000000000D+00 0.000000000000D+00 0.167912892296D-10 0.000000000000D+00  7 2 -2 23 -13 13 23 21 2 0.33417889D+00 0.52319257D-02 0.41909288D+05 0.41909288D+05 0.41909288D+05 0.11541000D+01  1  2 12  1  7  1        2 0.267888028222D-01 0.100000000000D+01
-.148220259694D-03 0.000000000000D+00 0.000000000000D+00 0.167912892296D-10 0.000000000000D+00  7 2 -2 23 -13 13 23 21 2 0.18877749D+00 0.52319257D-02 0.35917836D+05 0.35917836D+05 0.35917836D+05 0.11601502D+01  1  2  4  1  7  1        2 -.746429171734D-01 0.100000000000D+01
-.171339916087D-03 0.000000000000D+00 -.543089769789D-05 0.167912892296D-10 0.000000000000D+00  7 2 -2 23 -13 13 23 21 2 0.33471373D+00 0.52319257D-02 0.35917836D+05 0.35917836D+05 0.35917836D+05 0.11601502D+01  1  2  5  1  7  1        2 -.271267381257D-01 0.100000000000D+01
0.149960852300D-03 0.000000000000D+00 0.464763937843D-05 0.167912892296D-10 0.000000000000D+00  7 2 -2 23 -13 13 23 21 2 0.18877749D+00 0.52319257D-02 0.35917836D+05 0.35917836D+05 0.35917836D+05 0.11601502D+01  1  2  6  1  7  1        2 0.755194701496D-01 0.100000000000D+01
0.107273565208D-04 0.000000000000D+00 0.000000000000D+00 0.167912892296D-10 0.000000000000D+00  7 21 -2 23 -13 13 23 -2 2 0.33417889D+00 0.52319257D-02 0.41909288D+05 0.41909288D+05 0.41909288D+05 0.11541000D+01  1  2 12  3  7  1        2 0.312127564898D-03 0.100000000000D+01
-.105189777109D-04 0.000000000000D+00 -.342352722676D-06 0.167912892296D-10 0.000000000000D+00  7 21 -2 23 -13 13 23 -2 2 0.33471373D+00 0.52319257D-02 0.35917836D+05 0.35917836D+05 0.35917836D+05 0.11601502D+01  1  2  5  3  7  1        2 -.310441497704D-03 0.100000000000D+01
  </mgrwgt>
  </event>
  <event>
  8     66 0.29152272E-05 0.18524307E+03 0.75467711E-02 0.89394858E-01
        2 -1    0    0  501    0 0.00000000E+00 0.00000000E+00 0.12181250E+04 0.12181250E+04 0.32000000E+00 0.0000E+00 0.9000E+01
       -2 -1    0    0    0  501 0.00000000E+00 0.00000000E+00 -.69595862E+03 0.69595870E+03 0.32000000E+00 0.0000E+00 0.9000E+01
       25  2    1    2    0    0 -.24197634E+03 -.60437840E+03 -.36906943E+03 0.80663517E+03 0.30103532E+03 0.0000E+00 0.0000E+00
       23  2    3    3    0    0 -.31384788E+02 -.39299626E+03 -.22186908E+03 0.46165053E+03 0.92001421E+02 0.0000E+00 0.0000E+00
       23  1    1    2    0    0 0.24197634E+03 0.60437840E+03 0.89123577E+03 0.11074485E+04 0.91188000E+02 0.0000E+00 0.9000E+01
      -11  1    4    4    0    0 0.12044358E+02 -.15980403E+03 -.47159078E+02 0.16705201E+03 0.51099893E-03 0.0000E+00 0.9000E+01
       11  1    4    4    0    0 -.43429146E+02 -.23319223E+03 -.17471001E+03 0.29459853E+03 0.51099893E-03 0.0000E+00 0.9000E+01
       23  1    3    3    0    0 -.21059155E+03 -.21138214E+03 -.14720034E+03 0.34498464E+03 0.91188000E+02 0.0000E+00 0.9000E+01
#aMCatNLO 1  0  0  1  2 0.25121934D+03 0.00000000D+00  -5  7  0 0.00000000D+00 0.00000000D+00 0.00000000D+00 0.00000000D+00 0.00000000D+00
  <mgrwgt>
 0.3840353920D-03    6    2    0
 0.920741376303126D+03 0.000000000000000D+00 0.000000000000000D+00 0.920741376303126D+03
 0.920741376303126D+03 0.000000000000000D+00 0.000000000000000D+00 -.920741376303126D+03
 0.898393348628984D+03 0.241976336150138D+03 0.604378399316787D+03 0.612347581606584D+03
 0.187010388195563D+03 0.120443582115716D+02 -.159804027956901D+03 -.963871950887490D+02
 0.355753495962904D+03 -.434291461180842D+02 -.233192230591290D+03 -.265133631871064D+03
 0.400325519818801D+03 -.210591548243625D+03 -.211382140768596D+03 -.250826754646772D+03
 0.000000000000000D+00 -.000000000000000D+00 0.000000000000000D+00 -.000000000000000D+00
 0.104845846308469D+04 0.000000000000000D+00 0.000000000000000D+00 0.104845846308469D+04
 0.106164651959229D+04 0.000000000000000D+00 0.000000000000000D+00 -.106164651959229D+04
 0.824757291982479D+03 0.243692735973729D+03 0.487394736398002D+03 0.612347581606584D+03
 0.210565190282767D+03 0.124403762013409D+02 -.186795195392469D+03 -.963871950887490D+02
 0.390770989251251D+03 -.426855463047367D+02 -.283873329898965D+03 -.265133631871064D+03
 0.432446247033317D+03 -.209762039041104D+03 -.267918516269196D+03 -.250826754646772D+03
 0.251565264127166D+03 -.368552682922905D+01 0.251192305162627D+03 -.131880565075959D+02
0.270545542134D-03 0.000000000000D+00 0.000000000000D+00 0.864983826826D-06 0.000000000000D+00  7 2 -2 23 -11 11 23 21 0 0.18740385D+00 0.10707057D+00 0.46706112D+06 0.46706112D+06 0.46706112D+06 0.10706084D+01  1  2  2  1  7  1        2 0.439501144044D-03 0.100000000000D+01
-.134066660536D-04 0.000000000000D+00 -.103896611807D-05 0.864983826826D-06 0.000000000000D+00  7 2 -2 23 -11 11 23 21 2 0.18740385D+00 0.10707057D+00 0.46706112D+06 0.46706112D+06 0.46706112D+06 0.10706084D+01  1  2  3  1  7  1        2 -.249632840764D-04 0.100000000000D+01
0.173960467031D-04 0.000000000000D+00 0.000000000000D+00 0.864983826826D-06 0.000000000000D+00  7 2 -2 23 -11 11 23 21 2 0.18740385D+00 0.10707057D+00 0.46706112D+06 0.46706112D+06 0.46706112D+06 0.10706084D+01  1  2 15  1  7  1        2 0.323915322362D-04 0.100000000000D+01
0.155958801383D-03 0.000000000000D+00 0.000000000000D+00 0.864983826826D-06 0.000000000000D+00  7 2 -2 23 -11 11 23 21 2 0.22580486D+00 0.10707057D+00 0.66444025D+06 0.66444025D+06 0.66444025D+06 0.10598910D+01  1  2 12  1  7  1        2 0.201318942868D-03 0.100000000000D+01
-.142925062666D-03 0.000000000000D+00 0.000000000000D+00 0.864983826826D-06 0.000000000000D+00  7 2 -2 23 -11 11 23 21 2 0.18740385D+00 0.10707057D+00 0.46706112D+06 0.46706112D+06 0.46706112D+06 0.10706084D+01  1  2  4  1  7  1        2 -.266127233027D-03 0.100000000000D+01
0.422694561112D-05 0.000000000000D+00 0.000000000000D+00 0.864983826826D-06 0.000000000000D+00  7 21 -2 23 -11 11 23 -2 2 0.22580486D+00 0.10707057D+00 0.66444025D+06 0.66444025D+06 0.66444025D+06 0.10598910D+01  1  2 12  3  7  1        2 0.191428994081D-05 0.100000000000D+01
  </mgrwgt>
  </event>
  <event>
  8     66 0.29152272E-05 0.20035897E+03 0.75467711E-02 0.10245963E+00
        2 -1    0    0  501    0 0.00000000E+00 0.00000000E+00 0.26441297E+04 0.26441297E+04 0.32000000E+00 0.0000E+00 0.9000E+01
       -2 -1    0    0    0  501 0.00000000E+00 0.00000000E+00 -.23802619E+02 0.23804770E+02 0.32000000E+00 0.0000E+00 0.9000E+01
       25  2    1    2    0    0 -.13164431E+03 -.34141925E+02 0.15048208E+04 0.15404747E+04 0.30013496E+03 0.0000E+00 0.0000E+00
       23  2    3    3    0    0 -.13344888E+03 -.41624214E+02 0.41685174E+03 0.44866382E+03 0.89401716E+02 0.0000E+00 0.0000E+00
       23  1    1    2    0    0 0.13164431E+03 0.34141925E+02 0.11155063E+04 0.11274597E+04 0.91188000E+02 0.0000E+00 0.9000E+01
      -13  1    4    4    0    0 -.12822415E+03 -.28520717E+02 0.41390926E+03 0.43425310E+03 0.10565837E+00 0.0000E+00 0.9000E+01
       13  1    4    4    0    0 -.52247304E+01 -.13103497E+02 0.29424772E+01 0.14410717E+02 0.10565837E+00 0.0000E+00 0.9000E+01
       23  1    3    3    0    0 0.18045714E+01 0.74822893E+01 0.10879690E+04 0.10918109E+04 0.91188000E+02 0.0000E+00 0.9000E+01
#aMCatNLO 1  0  0  2  1 0.12347221D+03 0.00000000D+00  -5  7  0 0.00000000D+00 0.00000000D+00 0.00000000D+00 0.00000000D+00 0.00000000D+00
  <mgrwgt>
 0.4241524202D-03    4    2    0
 0.250878670243549D+03 0.000000000000000D+00 0.000000000000000D+00 0.250878670243549D+03
 0.250878670243549D+03 0.000000000000000D+00 0.000000000000000D+00 -.250878670243549D+03
 0.169399305680398D+03 0.131644315487589D+03 0.341419251710292D+02 0.434163168223772D+02
 0.147444240299059D+03 -.128224325940530D+03 -.285207390135100D+02 -.669693488141148D+02
 0.612577689575713D+02 -.522455956013467D+01 -.131034750518126D+02 -.596113846226400D+02
 0.123656025550070D+03 0.180457001307593D+01 0.748228889429330D+01 0.831644166143776D+02
 0.000000000000000D+00 -.000000000000000D+00 -.000000000000000D+00 0.000000000000000D+00
 0.346798732361911D+03 0.000000000000000D+00 0.000000000000000D+00 0.346798732361911D+03
 0.301460404795639D+03 0.000000000000000D+00 0.000000000000000D+00 -.301460404795639D+03
 0.197681561636945D+03 0.153500378728565D+03 0.729068284249679D+02 0.434163168223772D+02
 0.130232511680682D+03 -.111691400386087D+03 0.802806245134423D+00 -.669693488141148D+02
 0.596450051760469D+02 0.197401414049178D+01 -.335758835290861D+00 -.596113846226400D+02
 0.129166976947646D+03 0.168576986921756D+02 0.341811994199719D+02 0.831644166143776D+02
 0.131533081716228D+03 -.606406911751449D+02 -.107555075254783D+03 0.453383275662721D+02
0.485216329899D-05 0.000000000000D+00 0.000000000000D+00 0.597073605420D-07 0.000000000000D+00  7 2 -2 23 -13 13 23 21 0 0.40678935D+00 0.36621084D-02 0.40143716D+05 0.40143716D+05 0.40143716D+05 0.11557782D+01  1  2  2  2  7  2       -2 0.530588327918D-03 0.100000000000D+01
-.252993031180D-06 0.000000000000D+00 -.186335846721D-07 0.597073605420D-07 0.000000000000D+00  7 2 -2 23 -13 13 23 21 2 0.40678935D+00 0.36621084D-02 0.40143716D+05 0.40143716D+05 0.40143716D+05 0.11557782D+01  1  2  3  2  7  2       -2 -.369555641975D-04 0.100000000000D+01
0.308490457175D-06 0.000000000000D+00 0.000000000000D+00 0.597073605420D-07 0.000000000000D+00  7 2 -2 23 -13 13 23 21 2 0.40678935D+00 0.36621084D-02 0.40143716D+05 0.40143716D+05 0.40143716D+05 0.11557782D+01  1  2 15  2  7  2       -2 0.450622645267D-04 0.100000000000D+01
-.784143936871D-06 0.000000000000D+00 0.000000000000D+00 0.597073605420D-07 0.000000000000D+00  7 2 -2 23 -13 13 23 21 2 0.40678935D+00 0.36621084D-02 0.40143716D+05 0.40143716D+05 0.40143716D+05 0.11557782D+01  1  2  4  2  7  2       -2 -.114542608008D-03 0.100000000000D+01
  </mgrwgt>
  </event>
  <event>
  8     66 0.29152272E-05 0.31584731E+03 0.75467711E-02 0.99407347E-01
        2 -1    0    0  501    0 0.00000000E+00 0.00000000E+00 0.10279201E+04 0.10279202E+04 0.32000000E+00 0.0000E+00 0.9000E+01
       -2 -1    0    0    0  501 0.00000000E+00 0.00000000E+00 -.10335978E+03 0.10336027E+03 0.32000000E+00 0.0000E+00 0.9000E+01
       25  2    1    2    0    0 -.73174437E+02 0.23537941E+03 0.55910338E+03 0.68113379E+03 0.30097954E+03 0.0000E+00 0.0000E+00
       23  2    3    3    0    0 -.20327895E+02 0.25782500E+03 0.45402203E+03 0.53062165E+03 0.92392522E+02 0.0000E+00 0.0000E+00
       23  1    1    2    0    0 0.73174437E+02 -.23537941E+03 0.36545694E+03 0.45014663E+03 0.91188000E+02 0.0000E+00 0.9000E+01
      -13  1    4    4    0    0 -.46930144E+01 0.22176971E+03 0.30903613E+03 0.38040396E+03 0.10565837E+00 0.0000E+00 0.9000E+01
       13  1    4    4    0    0 -.15634880E+02 0.36055290E+02 0.14498590E+03 0.15021769E+03 0.10565837E+00 0.0000E+00 0.9000E+01
       23  1    3    3    0    0 -.52846542E+02 -.22445595E+02 0.10508135E+03 0.15051214E+03 0.91188000E+02 0.0000E+00 0.9000E+01
#aMCatNLO 1  0  0  1  2 0.36106501D+02 0.00000000D+00  -5  7  0 0.00000000D+00 0.00000000D+00 0.00000000D+00 0.00000000D+00 0.00000000D+00
  <mgrwgt>
 0.2160285698D-03    4    2    0
 0.325953831165444D+03 0.000000000000000D+00 0.000000000000000D+00 0.325953831165444D+03
 0.325953831165444D+03 0.000000000000000D+00 0.000000000000000D+00 -.325953831165444D+03
 0.262851772443445D+03 0.731744373415949D+02 -.235379407346055D+03 -.422365361048858D+01
 0.221842991075386D+03 -.469300063430621D+01 0.221769953766376D+03 -.322118623789986D+01
 0.550537841406356D+02 -.156348946276757D+02 0.360550472848536D+02 0.385551913945729D+02
 0.112159114671422D+03 -.528465420796129D+02 -.224455937051747D+02 -.311103515461844D+02
 0.000000000000000D+00 0.000000000000000D+00 -.000000000000000D+00 -.000000000000000D+00
 0.335643583571966D+03 0.000000000000000D+00 0.000000000000000D+00 0.335643583571966D+03
 0.361917293261075D+03 0.000000000000000D+00 0.000000000000000D+00 -.361917293261075D+03
 0.251148175479528D+03 0.631525838596329D+02 -.225286632103919D+03 -.422365361048858D+01
 0.231082052985084D+03 -.135240296027477D+02 0.230663477374130D+03 -.322118623789986D+01
 0.571653403216141D+02 -.178229174626571D+02 0.382585541249682D+02 0.385551913945729D+02
 0.113511223670681D+03 -.572466107473791D+02 -.180143870233306D+02 -.311103515461844D+02
 0.446540843761342D+02 0.254409739531510D+02 -.256210123718491D+02 -.262737096891087D+02
0.496716367533D-05 0.000000000000D+00 0.000000000000D+00 0.554140450673D-07 0.000000000000D+00  7 2 -2 23 -13 13 23 21 0 0.15814160D+00 0.15901546D-01 0.99759525D+05 0.99759525D+05 0.99759525D+05 0.11218079D+01  1  2  2  1  7  1        2 0.442832787646D-03 0.100000000000D+01
-.275620685336D-06 0.000000000000D+00 -.190752163975D-07 0.554140450673D-07 0.000000000000D+00  7 2 -2 23 -13 13 23 21 2 0.15814160D+00 0.15901546D-01 0.99759525D+05 0.99759525D+05 0.99759525D+05 0.11218079D+01  1  2  3  1  7  1        2 -.309228891360D-04 0.100000000000D+01
0.322621955336D-06 0.000000000000D+00 0.000000000000D+00 0.554140450673D-07 0.000000000000D+00  7 2 -2 23 -13 13 23 21 2 0.15814160D+00 0.15901546D-01 0.99759525D+05 0.99759525D+05 0.99759525D+05 0.11218079D+01  1  2 15  1  7  1        2 0.361961329046D-04 0.100000000000D+01
-.206854374918D-05 0.000000000000D+00 0.000000000000D+00 0.554140450673D-07 0.000000000000D+00  7 2 -2 23 -13 13 23 21 2 0.15814160D+00 0.15901546D-01 0.99759525D+05 0.99759525D+05 0.99759525D+05 0.11218079D+01  1  2  4  1  7  1        2 -.232077461642D-03 0.100000000000D+01
  </mgrwgt>
  </event>
  <event>
  8     66 0.29152272E-05 0.22281950E+03 0.75467711E-02 0.10281110E+00
        2 -1    0    0  501    0 0.00000000E+00 0.00000000E+00 0.25139765E+03 0.25139786E+03 0.32000000E+00 0.0000E+00 0.9000E+01
       -2 -1    0    0    0  501 0.00000000E+00 0.00000000E+00 -.26339854E+03 0.26339873E+03 0.32000000E+00 0.0000E+00 0.9000E+01
       25  2    1    2    0    0 0.14623677E+03 0.47762814E+01 -.54349914E+02 0.33726716E+03 0.29897696E+03 0.0000E+00 0.0000E+00
       23  2    3    3    0    0 0.66200514E+02 0.81614680E+02 -.11605357E+03 0.18095807E+03 0.90740992E+02 0.0000E+00 0.0000E+00
       23  1    1    2    0    0 -.14623677E+03 -.47762814E+01 0.42349029E+02 0.17752942E+03 0.91188000E+02 0.0000E+00 0.9000E+01
      -13  1    4    4    0    0 0.64604004E+02 0.19497444E+02 -.92514711E+02 0.11451118E+03 0.10565837E+00 0.0000E+00 0.9000E+01
       13  1    4    4    0    0 0.15965099E+01 0.62117235E+02 -.23538856E+02 0.66446886E+02 0.10565837E+00 0.0000E+00 0.9000E+01
       23  1    3    3    0    0 0.80036253E+02 -.76838398E+02 0.61703654E+02 0.15630910E+03 0.91188000E+02 0.0000E+00 0.9000E+01
#aMCatNLO 1  0  0  1  2 0.61118875D+02 0.00000000D+00  -5  7  0 0.00000000D+00 0.00000000D+00 0.00000000D+00 0.00000000D+00 0.00000000D+00
  <mgrwgt>
 0.2586155435D-03    4    2    0
 0.257328343434757D+03 0.000000000000000D+00 0.000000000000000D+00 0.257328343434757D+03
 0.257328343434757D+03 0.000000000000000D+00 0.000000000000000D+00 -.257328343434757D+03
 0.178565188790838D+03 -.146236768672600D+03 -.477628148953791D+01 0.465002142708696D+02
 0.112385092316699D+03 0.646040895571934D+02 0.194973867683036D+02 -.898697529579687D+02
 0.659160001710129D+02 0.159642514381069D+01 0.621172921752602D+02 -.219957386354389D+02
 0.157790405590964D+03 0.800362539715956D+02 -.768383974540260D+02 0.653652773225379D+02
 0.000000000000000D+00 -.000000000000000D+00 0.000000000000000D+00 -.000000000000000D+00
 0.274815272744670D+03 0.000000000000000D+00 0.000000000000000D+00 0.274815272744670D+03
 0.318700063047091D+03 0.000000000000000D+00 0.000000000000000D+00 -.318700063047091D+03
 0.163479988025089D+03 -.126989826561841D+03 -.110349065804816D+02 0.465002142708696D+02
 0.119754900147473D+03 0.776666476617749D+02 0.152497689683028D+02 -.898697529579687D+02
 0.642782887148136D+02 0.892248062181390D+01 0.597350418225329D+02 -.219957386354389D+02
 0.170759938599124D+03 0.985238394828497D+02 -.828500987354999D+02 0.653652773225379D+02
 0.752422203052610D+02 -.581231412045975D+02 0.189001945251457D+02 -.438847903024215D+02
0.396104367621D-05 0.000000000000D+00 0.000000000000D+00 0.158075990145D-06 0.000000000000D+00  7 2 -2 23 -13 13 23 21 0 0.38676593D-01 0.40522882D-01 0.49648530D+05 0.49648530D+05 0.49648530D+05 0.11475650D+01  1  2  2  1  7  1        2 0.364546590464D-03 0.100000000000D+01
-.214510596136D-06 0.000000000000D+00 -.152114506834D-07 0.158075990145D-06 0.000000000000D+00  7 2 -2 23 -13 13 23 21 2 0.38676593D-01 0.40522882D-01 0.49648530D+05 0.49648530D+05 0.49648530D+05 0.11475650D+01  1  2  3  1  7  1        2 -.259984057148D-04 0.100000000000D+01
0.247850075643D-06 0.000000000000D+00 0.000000000000D+00 0.158075990145D-06 0.000000000000D+00  7 2 -2 23 -13 13 23 21 2 0.38676593D-01 0.40522882D-01 0.49648530D+05 0.49648530D+05 0.49648530D+05 0.11475650D+01  1  2 15  1  7  1        2 0.300391073406D-04 0.100000000000D+01
-.907367382916D-06 0.000000000000D+00 0.000000000000D+00 0.158075990145D-06 0.000000000000D+00  7 2 -2 23 -13 13 23 21 2 0.38676593D-01 0.40522882D-01 0.49648530D+05 0.49648530D+05 0.49648530D+05 0.11475650D+01  1  2  4  1  7  1        2 -.109971748615D-03 0.100000000000D+01
  </mgrwgt>
  </event>
  <event>
  8     66 0.29152272E-05 0.30165862E+03 0.75467711E-02 0.94202637E-01
        2 -1    0    0  501    0 0.00000000E+00 0.00000000E+00 0.15550980E+04 0.15550980E+04 0.32000000E+00 0.0000E+00 0.9000E+01
       -2 -1    0    0    0  501 0.00000000E+00 0.00000000E+00 -.18495010E+03 0.18495038E+03 0.32000000E+00 0.0000E+00 0.9000E+01
       25  2    1    2    0    0 0.30698257E+03 -.18775748E+03 0.19306920E+03 0.50581963E+03 0.29847381E+03 0.0000E+00 0.0000E+00
       23  2    3    3    0    0 0.18217852E+03 0.18032174E+02 0.45389273E+02 0.20908736E+03 0.90239475E+02 0.0000E+00 0.0000E+00
       23  1    1    2    0    0 -.30698257E+03 0.18775748E+03 0.11770787E+04 0.12342287E+04 0.91188000E+02 0.0000E+00 0.9000E+01
      -11  1    4    4    0    0 0.13708433E+03 -.25970661E+02 0.43145751E+02 0.14604159E+03 0.51099893E-03 0.0000E+00 0.9000E+01
       11  1    4    4    0    0 0.45094188E+02 0.44002835E+02 0.22435212E+01 0.63045766E+02 0.51099893E-03 0.0000E+00 0.9000E+01
       23  1    3    3    0    0 0.12480404E+03 -.20578965E+03 0.14767993E+03 0.29673227E+03 0.91188000E+02 0.0000E+00 0.9000E+01
#aMCatNLO 1  0  0  2  1 0.18132624D+03 0.00000000D+00  -5  7  0 0.00000000D+00 0.00000000D+00 0.00000000D+00 0.00000000D+00 0.00000000D+00
  <mgrwgt>
 0.4305821000D-03    9    2    0
 0.536298232421800D+03 0.000000000000000D+00 0.000000000000000D+00 0.536298232421800D+03
 0.536298232421800D+03 0.000000000000000D+00 0.000000000000000D+00 -.536298232421800D+03
 0.498645971437946D+03 -.306982565037232D+03 0.187757478249496D+03 0.332928502252128D+03
 0.181804971921995D+03 0.137084334451655D+03 -.259706607559732D+02 -.116560961918655D+03
 0.994117823471625D+02 0.450941877217558D+02 0.440028347751789D+02 -.768958206595324D+02
 0.292733739136495D+03 0.124804042863821D+03 -.205789652268702D+03 -.139471719673940D+03
 0.000000000000000D+00 -.000000000000000D+00 -.000000000000000D+00 -.000000000000000D+00
 0.585922363794548D+03 0.000000000000000D+00 0.000000000000000D+00 0.585922363794548D+03
 0.739548999168185D+03 0.000000000000000D+00 0.000000000000000D+00 -.739548999168185D+03
 0.524696048106971D+03 -.287258024525471D+03 0.271352411614401D+03 0.332928502252128D+03
 0.185433480229207D+03 0.144162720356452D+03 0.402837509937315D+01 -.116560961918655D+03
 0.109813029348356D+03 0.491269189059878D+02 0.610940260464506D+02 -.768958206595324D+02
 0.267872859499295D+03 0.135609528571199D+03 -.159994727051299D+03 -.139471719673940D+03
 0.237655945778904D+03 -.416411433081672D+02 -.176480085708925D+03 -.153626635373637D+03
0.238644234877D-04 0.000000000000D+00 0.000000000000D+00 0.120574340593D-06 0.000000000000D+00  7 2 -2 23 -11 11 23 21 0 0.23924586D+00 0.28453886D-01 0.17269181D+06 0.17269181D+06 0.17269181D+06 0.11027560D+01  1  2  2  2  7  2       -2 0.400781886344D-03 0.100000000000D+01
-.122093413666D-05 0.000000000000D+00 -.916456698397D-07 0.120574340593D-06 0.000000000000D+00  7 2 -2 23 -11 11 23 21 2 0.23924586D+00 0.28453886D-01 0.17269181D+06 0.17269181D+06 0.17269181D+06 0.11027560D+01  1  2  3  2  7  2       -2 -.249349352793D-04 0.100000000000D+01
0.141380800225D-05 0.000000000000D+00 0.000000000000D+00 0.120574340593D-06 0.000000000000D+00  7 2 -2 23 -11 11 23 21 2 0.23924586D+00 0.28453886D-01 0.17269181D+06 0.17269181D+06 0.17269181D+06 0.11027560D+01  1  2 15  2  7  2       -2 0.288739662320D-04 0.100000000000D+01
0.179456910821D-04 0.000000000000D+00 0.000000000000D+00 0.120574340593D-06 0.000000000000D+00  7 2 -2 23 -11 11 23 21 2 0.23924586D+00 0.40168960D-01 0.26945606D+06 0.26945606D+06 0.26945606D+06 0.10880190D+01  1  2 12  2  7  2       -2 0.187888819618D-03 0.100000000000D+01
-.238764379942D-04 0.000000000000D+00 0.000000000000D+00 0.120574340593D-06 0.000000000000D+00  7 2 -2 23 -11 11 23 21 2 0.23924586D+00 0.28453886D-01 0.17269181D+06 0.17269181D+06 0.17269181D+06 0.11027560D+01  1  2  4  2  7  2       -2 -.487624531257D-03 0.100000000000D+01
-.283655130865D-04 0.000000000000D+00 -.989750800160D-05 0.120574340593D-06 0.000000000000D+00  7 2 -2 23 -11 11 23 21 2 0.23924586D+00 0.42603340D-01 0.17269181D+06 0.17269181D+06 0.17269181D+06 0.11027560D+01  1  2  5  2  7  2       -2 -.277906855824D-03 0.100000000000D+01
0.305895693558D-04 0.000000000000D+00 0.914253598413D-05 0.120574340593D-06 0.000000000000D+00  7 2 -2 23 -11 11 23 21 2 0.23924586D+00 0.28453886D-01 0.17269181D+06 0.17269181D+06 0.17269181D+06 0.11027560D+01  1  2  6  2  7  2       -2 0.624725699122D-03 0.100000000000D+01
0.766921669060D-06 0.000000000000D+00 0.000000000000D+00 0.120574340593D-06 0.000000000000D+00  7 2 21 23 -11 11 23 2 2 0.23924586D+00 0.40168960D-01 0.26945606D+06 0.26945606D+06 0.26945606D+06 0.10880190D+01  1  2 12  4  7  2       -2 0.876312381454D-04 0.100000000000D+01
-.101723175695D-05 0.000000000000D+00 -.474271827788D-06 0.120574340593D-06 0.000000000000D+00  7 2 21 23 -11 11 23 2 2 0.23924586D+00 0.42603340D-01 0.17269181D+06 0.17269181D+06 0.17269181D+06 0.11027560D+01  1  2  5  4  7  2       -2 -.108853187091D-03 0.100000000000D+01
  </mgrwgt>
  </event>
  <event>
  9     66 0.29152272E-05 0.39380928E+03 0.75467711E-02 0.96474002E-01
        2 -1    0    0  502    0 0.00000000E+00 0.00000000E+00 0.96059780E+03 0.96059786E+03 0.32000000E+00 0.0000E+00 0.9000E+01
       -2 -1    0    0    0  501 0.00000000E+00 0.00000000E+00 -.45548633E+03 0.45548644E+03 0.32000000E+00 0.0000E+00 0.9000E+01
       25  2    1    2    0    0 -.72319367E+02 0.36736574E+03 0.79560860E+03 0.93022300E+03 0.30353600E+03 0.0000E+00 0.0000E+00
       23  2    3    3    0    0 0.37480503E+02 0.42779488E+02 0.92921825E+02 0.14314219E+03 0.92845826E+02 0.0000E+00 0.0000E+00
       23  1    1    2    0    0 0.74229705E+02 -.30285532E+03 -.24454834E+03 0.40663317E+03 0.91188000E+02 0.0000E+00 0.9000E+01
      -11  1    4    4    0    0 0.40131022E+02 -.20438660E+02 0.31496297E+02 0.54956842E+02 0.51099893E-03 0.0000E+00 0.9000E+01
       11  1    4    4    0    0 -.26505199E+01 0.63218148E+02 0.61425528E+02 0.88185345E+02 0.51099893E-03 0.0000E+00 0.9000E+01
       23  1    3    3    0    0 -.10979987E+03 0.32458625E+03 0.70268678E+03 0.78708081E+03 0.91188000E+02 0.0000E+00 0.9000E+01
       21  1    1    2  502  501 -.19103374E+01 -.64510417E+02 -.45948786E+02 0.79228131E+02 0.75000000E+00 0.0000E+00 0.9000E+01
#aMCatNLO 2  0  0  1  1 0.64538696D+02 0.00000000D+00  -5  7  0 0.00000000D+00 0.00000000D+00 0.00000000D+00 0.00000000D+00 0.00000000D+00
  <mgrwgt>
 0.1126608660D-03    1    2    0
 0.608143028241866D+03 0.000000000000000D+00 0.000000000000000D+00 0.608143028241866D+03
 0.608143028241866D+03 0.000000000000000D+00 0.000000000000000D+00 -.608143028241866D+03
 0.573686146161272D+03 0.733424177523725D+02 -.332818228367969D+03 -.452386405164451D+03
 0.471557481669185D+02 0.400578622252845D+02 -.229092138675388D+02 0.970567767305996D+01
 0.657483400328278D+02 -.275626558389058D+01 0.596472080231215D+02 0.275219510963500D+02
 0.529695822122714D+03 -.110644014393766D+03 0.296080234212387D+03 0.415158776395041D+03
 0.000000000000000D+00 -.000000000000000D+00 -.000000000000000D+00 -.000000000000000D+00
 0.619732432840070D+03 0.000000000000000D+00 0.000000000000000D+00 0.619732432840070D+03
 0.706010282730653D+03 0.000000000000000D+00 0.000000000000000D+00 -.706010282730653D+03
 0.556956106922922D+03 0.742297048969065D+02 -.302855320290135D+03 -.452386405164451D+03
 0.460699247786417D+02 0.401310223614102D+02 -.204386602849689D+02 0.970567767305996D+01
 0.690001254620590D+02 -.265051986206464D+01 0.632181482336426D+02 0.275219510963500D+02
 0.545970975226263D+03 -.109799869998414D+03 0.324586249517783D+03 0.415158776395041D+03
 0.107745583180837D+03 -.191033739783823D+01 -.645104171763214D+02 -.862778498905830D+02
0.144236224459D-04 0.000000000000D+00 0.000000000000D+00 0.305709707178D-07 0.481534279000D-10  7 2 -2 23 -11 11 23 21 2 0.14778398D+00 0.70074688D-01 0.18160745D+06 0.18160745D+06 0.18160745D+06 0.11010577D+01  1  2  1  1  7  1        2 0.112660866008D-03 0.100000000000D+01
  </mgrwgt>
  </event>
  <event>
  8     66 0.29152272E-05 0.22341917E+03 0.75467711E-02 0.89211048E-01
        2 -1    0    0  501    0 0.00000000E+00 0.00000000E+00 0.55984329E+03 0.55984338E+03 0.32000000E+00 0.0000E+00 0.9000E+01
       -2 -1    0    0    0  501 0.00000000E+00 0.00000000E+00 -.16107368E+03 0.16107399E+03 0.32000000E+00 0.0000E+00 0.9000E+01
       25  2    1    2    0    0 -.89177981E+02 0.82809838E+02 0.45528900E+03 0.55868336E+03 0.30004807E+03 0.0000E+00 0.0000E+00
       23  2    3    3    0    0 -.90175510E+02 0.15240731E+03 0.21938824E+03 0.29636824E+03 0.91341783E+02 0.0000E+00 0.0000E+00
       23  1    1    2    0    0 0.89177981E+02 -.82809838E+02 -.56519389E+02 0.16223401E+03 0.91188000E+02 0.0000E+00 0.9000E+01
      -11  1    4    4    0    0 -.62341301E+02 0.73499346E+02 0.17935887E+03 0.20361285E+03 0.51099893E-03 0.0000E+00 0.9000E+01
       11  1    4    4    0    0 -.27834209E+02 0.78907967E+02 0.40029373E+02 0.92755383E+02 0.51099893E-03 0.0000E+00 0.9000E+01
       23  1    3    3    0    0 0.99752941E+00 -.69597475E+02 0.23590076E+03 0.26231512E+03 0.91188000E+02 0.0000E+00 0.9000E+01
#aMCatNLO 1  0  0  1  2 0.79175421D+03 0.00000000D+00  -5  7  0 0.00000000D+00 0.00000000D+00 0.00000000D+00 0.00000000D+00 0.00000000D+00
  <mgrwgt>
 0.5547850338D-03    3    2    0
 0.300293462622664D+03 0.000000000000000D+00 0.000000000000000D+00 0.300293462622664D+03
 0.300293462622664D+03 0.000000000000000D+00 0.000000000000000D+00 -.300293462622664D+03
 0.232265348181888D+03 0.891779807671127D+02 -.828098381387573D+02 -.175561268723449D+03
 0.125319375971147D+03 -.623413013517616D+02 0.734993462085197D+02 0.801021488256510D+02
 0.847612021459168D+02 -.278342088241690D+02 0.789079670412222D+02 -.135370213036290D+02
 0.158240998946376D+03 0.997529408818011D+00 -.695974751109846D+02 0.108996141201427D+03
 0.000000000000000D+00 0.000000000000000D+00 -.000000000000000D+00 -.000000000000000D+00
 0.768262910331285D+03 0.000000000000000D+00 0.000000000000000D+00 0.768262910331285D+03
 0.107437784868040D+04 0.000000000000000D+00 0.000000000000000D+00 -.107437784868040D+04
 0.225279402081903D+03 -.961968868642880D+02 0.485793941935473D+02 -.175561268723449D+03
 0.330442092171721D+03 -.246993669846357D+03 0.204376488589481D+03 0.801021488256510D+02
 0.230341182022720D+03 -.155498361285591D+03 0.169393237253867D+03 -.135370213036290D+02
 0.207707609156459D+03 -.147267038697028D+03 0.354888725391326D+02 0.108996141201427D+03
 0.848870473578886D+03 0.645955956693264D+03 -.457837992576028D+03 -.306114938349119D+03
0.598073071707D-05 0.000000000000D+00 0.000000000000D+00 0.457644324724D-06 0.000000000000D+00  7 2 -2 23 -11 11 23 21 0 0.86129768D-01 0.24780597D-01 0.49916127D+05 0.49916127D+05 0.49916127D+05 0.11473595D+01  1  2  2  1  7  1        2 0.547676122060D-03 0.100000000000D+01
-.296936633129D-06 0.000000000000D+00 -.229675807161D-07 0.457644324724D-06 0.000000000000D+00  7 2 -2 23 -11 11 23 21 2 0.86129768D-01 0.24780597D-01 0.49916127D+05 0.49916127D+05 0.49916127D+05 0.11473595D+01  1  2  3  1  7  1        2 -.357958261486D-04 0.100000000000D+01
0.355907092455D-06 0.000000000000D+00 0.000000000000D+00 0.457644324724D-06 0.000000000000D+00  7 2 -2 23 -11 11 23 21 2 0.86129768D-01 0.24780597D-01 0.49916127D+05 0.49916127D+05 0.49916127D+05 0.11473595D+01  1  2 15  1  7  1        2 0.429047378639D-04 0.100000000000D+01
  </mgrwgt>
  </event>
  <event>
  9     66 0.29152272E-05 0.19285318E+03 0.75467711E-02 0.10170968E+00
        2 -1    0    0  501    0 0.00000000E+00 0.00000000E+00 0.40757431E+03 0.40757443E+03 0.32000000E+00 0.0000E+00 0.9000E+01
       21 -1    0    0  502  501 0.00000000E+00 0.00000000E+00 -.24601715E+03 0.24601830E+03 0.75000000E+00 0.0000E+00 0.9000E+01
       25  2    1    2    0    0 -.39188531E+02 -.13848297E+03 0.11937421E+03 0.35271635E+03 0.29907415E+03 0.0000E+00 0.0000E+00
       23  2    3    3    0    0 0.92464300E+02 -.54190251E+02 0.99217947E+02 0.17061951E+03 0.88207636E+02 0.0000E+00 0.0000E+00
       23  1    1    2    0    0 -.48266610E+02 0.13598224E+02 -.57328671E+02 0.11881248E+03 0.91188000E+02 0.0000E+00 0.9000E+01
      -13  1    4    4    0    0 0.95157352E+02 -.62230079E+02 0.10911493E+03 0.15758675E+03 0.10565837E+00 0.0000E+00 0.9000E+01
       13  1    4    4    0    0 -.26930511E+01 0.80398281E+01 -.98969868E+01 0.13032761E+02 0.10565837E+00 0.0000E+00 0.9000E+01
       23  1    3    3    0    0 -.13165283E+03 -.84292717E+02 0.20156260E+02 0.18209683E+03 0.91188000E+02 0.0000E+00 0.9000E+01
        2  1    1    2  502    0 0.87455141E+02 0.12488474E+03 0.99511621E+02 0.18206391E+03 0.32000000E+00 0.0000E+00 0.9000E+01
#aMCatNLO 2  0  0  2  1 0.15246180D+03 0.00000000D+00  -5  7  0 0.00000000D+00 0.00000000D+00 0.00000000D+00 0.00000000D+00 0.00000000D+00
  <mgrwgt>
 0.1069818019D-03    1    2    0
 0.220932785471131D+03 0.000000000000000D+00 0.000000000000000D+00 0.220932785471131D+03
 0.220932785471131D+03 0.000000000000000D+00 0.000000000000000D+00 -.220932785471131D+03
 0.129128750141375D+03 -.235877215443951D+02 0.488393518780045D+02 -.736024447253912D+02
 0.154090075447942D+03 0.123874221279807D+03 -.212230808901257D+02 0.891544137516763D+02
 0.170364688302642D+02 0.336167890211897D+00 0.123658112684260D+02 -.117138795037264D+02
 0.141610276522680D+03 -.100622667625624D+03 -.399820822563048D+02 -.383808952255864D+01
 0.000000000000000D+00 0.000000000000000D+00 0.000000000000000D+00 0.000000000000000D+00
 0.357049045234980D+03 0.000000000000000D+00 0.000000000000000D+00 0.357049045234980D+03
 0.280831407209208D+03 0.000000000000000D+00 0.000000000000000D+00 -.280831407209208D+03
 0.127464305646865D+03 -.482666153115434D+02 0.135982295483890D+02 -.736024447253912D+02
 0.144485475603871D+03 0.951574881506120D+02 -.622301825317732D+02 0.891544137516763D+02
 0.144605908571970D+02 -.269319152723813D+01 0.803992750645441D+01 -.117138795037264D+02
 0.181018535427434D+03 -.131652822170839D+03 -.842927179984337D+02 -.383808952255864D+01
 0.170451544908822D+03 0.874551408590083D+02 0.124884743475364D+03 0.762176380257723D+02
0.118728118512D-06 0.000000000000D+00 0.000000000000D+00 0.791968043266D-08 0.129967370927D-12  7 2 21 23 -13 13 23 2 2 0.62703806D-01 0.37848871D-01 0.78311679D+05 0.78311679D+05 0.78311679D+05 0.11305403D+01  1  2  1  4  7  2       -2 0.106981801898D-03 0.100000000000D+01
  </mgrwgt>
  </event>
  <event>
  8     66 0.29152272E-05 0.78767319E+03 0.75467711E-02 0.83481500E-01
        2 -1    0    0  501    0 0.00000000E+00 0.00000000E+00 0.92951233E+03 0.92951239E+03 0.32000000E+00 0.0000E+00 0.9000E+01
       -2 -1    0    0    0  501 0.00000000E+00 0.00000000E+00 -.69429300E+03 0.69429308E+03 0.32000000E+00 0.0000E+00 0.9000E+01
       25  2    1    2    0    0 -.74430064E+03 -.20497842E+03 0.89588074E+02 0.83290515E+03 0.29950855E+03 0.0000E+00 0.0000E+00
       23  2    3    3    0    0 -.15048080E+03 -.94263047E+02 0.10006836E+03 0.22191825E+03 0.87772671E+02 0.0000E+00 0.0000E+00
       23  1    1    2    0    0 0.74430064E+03 0.20497842E+03 0.14563126E+03 0.79090032E+03 0.91188000E+02 0.0000E+00 0.9000E+01
      -13  1    4    4    0    0 -.71376485E+02 -.79072845E+02 0.20077914E+02 0.10839858E+03 0.10565837E+00 0.0000E+00 0.9000E+01
       13  1    4    4    0    0 -.79104311E+02 -.15190202E+02 0.79990446E+02 0.11351968E+03 0.10565837E+00 0.0000E+00 0.9000E+01
       23  1    3    3    0    0 -.59381984E+03 -.11071538E+03 -.10480286E+02 0.61098690E+03 0.91188000E+02 0.0000E+00 0.9000E+01
#aMCatNLO 1  0  0  2  1 0.11318714D+04 0.00000000D+00  -5  7  0 0.00000000D+00 0.00000000D+00 0.00000000D+00 0.00000000D+00 0.00000000D+00
  <mgrwgt>
 0.4541045107D-03    5    2    0
 0.803339288589325D+03 0.000000000000000D+00 0.000000000000000D+00 0.803339288589325D+03
 0.803339288589325D+03 0.000000000000000D+00 0.000000000000000D+00 -.803339288589325D+03
 0.778010601693648D+03 0.744300638639883D+03 0.204978422951251D+03 0.313950704473209D+02
 0.106614662244930D+03 -.713764737225946D+02 -.790729371451614D+02 0.442219580814505D+01
 0.103019088418429D+03 -.791043218079525D+02 -.151901094130772D+02 0.642238228844001D+02
 0.619034224821644D+03 -.593819843109336D+03 -.110715376393013D+03 -.100041089139866D+03
 0.000000000000000D+00 -.000000000000000D+00 0.000000000000000D+00 -.000000000000000D+00
 0.128825516399860D+04 0.000000000000000D+00 0.000000000000000D+00 0.128825516399860D+04
 0.203076094931244D+04 0.000000000000000D+00 0.000000000000000D+00 -.203076094931244D+04
 0.134582906516544D+04 0.133763776560186D+04 -.112606300389205D+03 0.313950704473209D+02
 0.112369567994250D+03 -.101988452755992D+02 -.111818368573741D+03 0.442219580814505D+01
 0.819339170253107D+02 -.274339972606836D+02 -.428467399871276D+02 0.642238228844001D+02
 0.425204273164129D+03 -.302090914637881D+03 -.266863789881642D+03 -.100041089139866D+03
 0.135367928996190D+04 -.997914008427700D+03 0.534135198831716D+03 -.742505785313844D+03
0.185716740366D-03 0.000000000000D+00 0.000000000000D+00 0.180987751695D-06 0.000000000000D+00  7 2 -2 23 -13 13 23 21 0 0.14300191D+00 0.10681432D+00 0.62042906D+06 0.62042906D+06 0.62042906D+06 0.10619490D+01  1  2  2  2  7  2       -2 0.449621080804D-03 0.100000000000D+01
-.103127312431D-04 0.000000000000D+00 -.713201183346D-06 0.180987751695D-06 0.000000000000D+00  7 2 -2 23 -13 13 23 21 2 0.14300191D+00 0.10681432D+00 0.62042906D+06 0.62042906D+06 0.62042906D+06 0.10619490D+01  1  2  3  2  7  2       -2 -.281563677013D-04 0.100000000000D+01
0.116204062983D-04 0.000000000000D+00 0.000000000000D+00 0.180987751695D-06 0.000000000000D+00  7 2 -2 23 -13 13 23 21 2 0.14300191D+00 0.10681432D+00 0.62042906D+06 0.62042906D+06 0.62042906D+06 0.10619490D+01  1  2 15  2  7  2       -2 0.317266517336D-04 0.100000000000D+01
0.151345575883D-06 0.000000000000D+00 -.556138329643D-04 0.180987751695D-06 0.000000000000D+00  7 2 -2 23 -13 13 23 21 2 0.14300191D+00 0.34378367D+00 0.62042906D+06 0.62042906D+06 0.62042906D+06 0.10619490D+01  1  2  5  2  7  2       -2 0.822630324524D-08 0.100000000000D+01
0.238840137582D-05 0.000000000000D+00 -.749448196339D-05 0.180987751695D-06 0.000000000000D+00  7 2 21 23 -13 13 23 2 2 0.14300191D+00 0.34378367D+00 0.62042906D+06 0.62042906D+06 0.62042906D+06 0.10619490D+01  1  2  5  4  7  2       -2 0.904919518384D-06 0.100000000000D+01
  </mgrwgt>
  </event>
  <event>
  8     66 0.29152272E-05 0.34565478E+03 0.75467711E-02 0.91333129E-01
        2 -1    0    0  501    0 0.00000000E+00 0.00000000E+00 0.38486792E+03 0.38486805E+03 0.32000000E+00 0.0000E+00 0.9000E+01
       -2 -1    0    0    0  501 0.00000000E+00 0.00000000E+00 -.53232824E+03 0.53232833E+03 0.32000000E+00 0.0000E+00 0.9000E+01
       25  2    1    2    0    0 -.23440079E+03 -.14218505E+03 0.20955583E+03 0.45791859E+03 0.30102403E+03 0.0000E+00 0.0000E+00
       23  2    3    3    0    0 -.18971276E+03 0.23239977E+02 0.94365622E+02 0.23220528E+03 0.92105340E+02 0.0000E+00 0.0000E+00
       23  1    1    2    0    0 0.23440079E+03 0.14218505E+03 -.35701615E+03 0.45927780E+03 0.91188000E+02 0.0000E+00 0.9000E+01
      -11  1    4    4    0    0 -.10937496E+03 -.28115868E+02 0.73062445E+02 0.13450466E+03 0.51099893E-03 0.0000E+00 0.9000E+01
       11  1    4    4    0    0 -.80337803E+02 0.51355845E+02 0.21303177E+02 0.97700618E+02 0.51099893E-03 0.0000E+00 0.9000E+01
       23  1    3    3    0    0 -.44688025E+02 -.16542503E+03 0.11519021E+03 0.22571330E+03 0.91188000E+02 0.0000E+00 0.9000E+01
#aMCatNLO 1  0  0  2  1 0.52181772D+03 0.00000000D+00  -5  7  0 0.00000000D+00 0.00000000D+00 0.00000000D+00 0.00000000D+00 0.00000000D+00
  <mgrwgt>
 0.3975561998D-03    5    2    0
 0.452632485496874D+03 0.000000000000000D+00 0.000000000000000D+00 0.452632485496874D+03
 0.452632485496874D+03 0.000000000000000D+00 0.000000000000000D+00 -.452632485496874D+03
 0.407176061944060D+03 0.234400787887483D+03 0.142185052572077D+03 -.286909002192465D+03
 0.148178718514504D+03 -.109374959688126D+03 -.281158680510296D+02 0.959351279644664D+02
 0.102458429629704D+03 -.803378034253036D+02 0.513558451603043D+02 0.374985907848966D+02
 0.247451760905480D+03 -.446880247740528D+02 -.165425029681352D+03 0.153475283443102D+03
 0.000000000000000D+00 0.000000000000000D+00 -.000000000000000D+00 -.000000000000000D+00
 0.774875352470438D+03 0.000000000000000D+00 0.000000000000000D+00 0.774875352470438D+03
 0.792118772210961D+03 0.000000000000000D+00 0.000000000000000D+00 -.792118772210961D+03
 0.353925109735223D+03 0.348391485164685D+02 0.182803692929496D+03 -.286909002192465D+03
 0.229580918064931D+03 -.208423989132739D+03 -.795549596026771D+01 0.959351279644664D+02
 0.169544044814090D+03 -.151657178211195D+03 0.658721422005302D+02 0.374985907848966D+02
 0.291841502724558D+03 -.186091364824494D+03 -.136643890014683D+03 0.153475283443102D+03
 0.522102549342597D+03 0.511333383651959D+03 -.104076449155076D+03 -.172434197405234D+02
0.273387674836D-04 0.000000000000D+00 0.000000000000D+00 0.189830424057D-06 0.000000000000D+00  7 2 -2 23 -11 11 23 21 0 0.59210467D-01 0.81896669D-01 0.11947722D+06 0.11947722D+06 0.11947722D+06 0.11154345D+01  1  2  2  2  7  2       -2 0.375285329515D-03 0.100000000000D+01
-.138455736095D-05 0.000000000000D+00 -.104988065600D-06 0.189830424057D-06 0.000000000000D+00  7 2 -2 23 -11 11 23 21 2 0.59210467D-01 0.81896669D-01 0.11947722D+06 0.11947722D+06 0.11947722D+06 0.11154345D+01  1  2  3  2  7  2       -2 -.236473125220D-04 0.100000000000D+01
0.176795076473D-05 0.000000000000D+00 0.000000000000D+00 0.189830424057D-06 0.000000000000D+00  7 2 -2 23 -11 11 23 21 2 0.59210467D-01 0.81896669D-01 0.11947722D+06 0.11947722D+06 0.11947722D+06 0.11154345D+01  1  2 15  2  7  2       -2 0.301954151098D-04 0.100000000000D+01
0.421324923097D-05 0.000000000000D+00 -.797275729150D-05 0.189830424057D-06 0.000000000000D+00  7 2 -2 23 -11 11 23 21 2 0.59210467D-01 0.21325441D+00 0.11947722D+06 0.11947722D+06 0.11947722D+06 0.11154345D+01  1  2  5  2  7  2       -2 0.567941002101D-05 0.100000000000D+01
0.926558717378D-06 0.000000000000D+00 -.845624361578D-06 0.189830424057D-06 0.000000000000D+00  7 2 21 23 -11 11 23 2 2 0.59210467D-01 0.21325441D+00 0.11947722D+06 0.11947722D+06 0.11947722D+06 0.11154345D+01  1  2  5  4  7  2       -2 0.100433577111D-04 0.100000000000D+01
  </mgrwgt>
  </event>
  <event>
  9     66 0.29152272E-05 0.17623296E+03 0.75467711E-02 0.10615178E+00
        2 -1    0    0  502    0 0.00000000E+00 0.00000000E+00 0.19097860E+04 0.19097860E+04 0.32000000E+00 0.0000E+00 0.9000E+01
       -2 -1    0    0    0  501 0.00000000E+00 0.00000000E+00 -.10475178E+03 0.10475227E+03 0.32000000E+00 0.0000E+00 0.9000E+01
       25  2    1    2    0    0 0.67340675E+02 0.84894636E+02 0.17506567E+04 0.17798830E+04 0.30239490E+03 0.0000E+00 0.0000E+00
       23  2    3    3    0    0 0.81614860E+02 0.72098396E+02 0.37707243E+03 0.40314172E+03 0.92089444E+02 0.0000E+00 0.0000E+00
       23  1    1    2    0    0 -.94793153E+01 -.80994059E+02 -.35777204E+02 0.12745648E+03 0.91188000E+02 0.0000E+00 0.9000E+01
      -13  1    4    4    0    0 0.50862289E+01 -.14781424E+02 0.12230965E+03 0.12330459E+03 0.10565837E+00 0.0000E+00 0.9000E+01
       13  1    4    4    0    0 0.76528631E+02 0.86879820E+02 0.25476277E+03 0.27983712E+03 0.10565837E+00 0.0000E+00 0.9000E+01
       23  1    3    3    0    0 -.14274185E+02 0.12796239E+02 0.13735843E+04 0.13767413E+04 0.91188000E+02 0.0000E+00 0.9000E+01
       21  1    1    2  502  501 -.57861360E+02 -.39005769E+01 0.90154710E+02 0.10719881E+03 0.75000000E+00 0.0000E+00 0.9000E+01
#aMCatNLO 2  0  0  1  1 0.57992684D+02 0.00000000D+00  -5  7  0 0.00000000D+00 0.00000000D+00 0.00000000D+00 0.00000000D+00 0.00000000D+00
  <mgrwgt>
 0.4516804593D-03    1    2    0
 0.416463983111224D+03 0.000000000000000D+00 0.000000000000000D+00 0.416463983111224D+03
 0.416463983111224D+03 0.000000000000000D+00 0.000000000000000D+00 -.416463983111224D+03
 0.366563254937129D+03 -.348461069044670D+02 -.827040971044242D+02 -.343510043058201D+03
 0.302555242192631D+02 0.297960533670249D+01 -.149235641886868D+02 0.261496831668388D+02
 0.110561889647767D+03 0.686687574348712D+02 0.863500934450086D+02 0.722458004828391D+01
 0.325547297418288D+03 -.368022558671066D+02 0.112775678481024D+02 0.310135779843079D+03
 0.000000000000000D+00 -.000000000000000D+00 -.000000000000000D+00 -.000000000000000D+00
 0.440215490611382D+03 0.000000000000000D+00 0.000000000000000D+00 0.440215490611382D+03
 0.454440808753284D+03 0.000000000000000D+00 0.000000000000000D+00 -.454440808753284D+03
 0.364642696440101D+03 -.947931538168192D+01 -.809940591719832D+02 -.343510043058201D+03
 0.304658686015742D+02 0.508613484423473D+01 -.147815578430892D+02 0.261496831668388D+02
 0.116004165067727D+03 0.765287233791894D+02 0.868799531200252D+02 0.722458004828391D+01
 0.323831668255110D+03 -.142741831531297D+02 0.127962407496826D+02 0.310135779843079D+03
 0.597119010001545D+02 -.578613596886125D+02 -.390057685463533D+01 -.142253181419028D+02
0.115515874902D-04 0.000000000000D+00 0.000000000000D+00 0.642646621095D-07 0.136403447749D-09  7 2 -2 23 -13 13 23 21 2 0.29381172D+00 0.16115612D-01 0.40989477D+05 0.40989477D+05 0.40989477D+05 0.11549643D+01  1  2  1  1  7  1        2 0.451680459337D-03 0.100000000000D+01
  </mgrwgt>
  </event>
  <event>
  8     66 0.29152272E-05 0.19838855E+03 0.75467711E-02 0.10122921E+00
        2 -1    0    0  501    0 0.00000000E+00 0.00000000E+00 0.37975559E+04 0.37975560E+04 0.32000000E+00 0.0000E+00 0.9000E+01
       -2 -1    0    0    0  501 0.00000000E+00 0.00000000E+00 -.21915526E+02 0.21917862E+02 0.32000000E+00 0.0000E+00 0.9000E+01
       25  2    1    2    0    0 0.93004540E+02 0.17140064E+03 0.20800926E+04 0.21103145E+04 0.29768090E+03 0.0000E+00 0.0000E+00
       23  2    3    3    0    0 -.74451686E+02 0.56782564E+02 0.61039791E+03 0.62387691E+03 0.88710073E+02 0.0000E+00 0.0000E+00
       23  1    1    2    0    0 -.93004540E+02 -.17140064E+03 0.16955478E+04 0.17091593E+04 0.91188000E+02 0.0000E+00 0.9000E+01
      -13  1    4    4    0    0 0.10158536E+01 0.52834247E+02 0.28046399E+03 0.28539893E+03 0.10565837E+00 0.0000E+00 0.9000E+01
       13  1    4    4    0    0 -.75467540E+02 0.39483172E+01 0.32993392E+03 0.33847798E+03 0.10565837E+00 0.0000E+00 0.9000E+01
       23  1    3    3    0    0 0.16745623E+03 0.11461807E+03 0.14696947E+04 0.14864376E+04 0.91188000E+02 0.0000E+00 0.9000E+01
#aMCatNLO 1  0  0  1  2 0.14137484D+02 0.00000000D+00  -5  7  0 0.00000000D+00 0.00000000D+00 0.00000000D+00 0.00000000D+00 0.00000000D+00
  <mgrwgt>
 0.1938062548D-02    9    2    0
 0.288495966954777D+03 0.000000000000000D+00 0.000000000000000D+00 0.288495966954777D+03
 0.288495966954777D+03 0.000000000000000D+00 0.000000000000000D+00 -.288495966954777D+03
 0.218912093440533D+03 -.930045409158917D+02 -.171400638943101D+03 0.397395225114436D+02
 0.539739779853851D+02 0.101596181702782D+01 0.528343157140798D+02 -.109860458845810D+02
 0.816232437249906D+02 -.754676472528863D+02 0.394824839491791D+01 -.308447640437590D+02
 0.222482618758645D+03 0.167456226351750D+03 0.114618074834103D+03 0.209128741689645D+01
 0.000000000000000D+00 0.000000000000000D+00 -.000000000000000D+00 0.000000000000000D+00
 0.304394285760404D+03 0.000000000000000D+00 0.000000000000000D+00 0.304394285760404D+03
 0.291742682211708D+03 0.000000000000000D+00 0.000000000000000D+00 -.291742682211708D+03
 0.219616271754467D+03 -.980258734243551D+02 -.169492636905816D+03 0.397395225114436D+02
 0.544267321428635D+02 -.225271482591137D+00 0.533059585818699D+02 -.109860458845810D+02
 0.834106348727555D+02 -.773573539295164D+02 0.466629767422871D+01 -.308447640437590D+02
 0.219711467806150D+03 0.162392919806162D+03 0.116542026133505D+03 0.209128741689645D+01
 0.189718613958766D+02 0.132155790303010D+02 -.502164548378752D+01 0.126516035486960D+02
0.255336355479D-04 0.000000000000D+00 0.000000000000D+00 0.395309446266D-08 0.000000000000D+00  7 2 -2 23 -13 13 23 21 0 0.58423956D+00 0.33718001D-02 0.80135026D+05 0.80135026D+05 0.80135026D+05 0.11297010D+01  1  2  2  1  7  1        2 0.543785848366D-03 0.100000000000D+01
-.141791615199D-05 0.000000000000D+00 -.980558836645D-07 0.395309446266D-08 0.000000000000D+00  7 2 -2 23 -13 13 23 21 2 0.58423956D+00 0.33718001D-02 0.80135026D+05 0.80135026D+05 0.80135026D+05 0.11297010D+01  1  2  3  1  7  1        2 -.385383255812D-04 0.100000000000D+01
0.163545294709D-05 0.000000000000D+00 0.000000000000D+00 0.395309446266D-08 0.000000000000D+00  7 2 -2 23 -13 13 23 21 2 0.58423956D+00 0.33718001D-02 0.80135026D+05 0.80135026D+05 0.80135026D+05 0.11297010D+01  1  2 15  1  7  1        2 0.444508781844D-04 0.100000000000D+01
0.636866743158D-04 0.000000000000D+00 0.000000000000D+00 0.395309446266D-08 0.000000000000D+00  7 2 -2 23 -13 13 23 21 2 0.61960850D+00 0.33718001D-02 0.84284053D+05 0.84284053D+05 0.84284053D+05 0.11278669D+01  1  2 12  1  7  1        2 0.113486504934D-02 0.100000000000D+01
-.649410992254D-04 0.000000000000D+00 0.000000000000D+00 0.395309446266D-08 0.000000000000D+00  7 2 -2 23 -13 13 23 21 2 0.58423956D+00 0.33718001D-02 0.80135026D+05 0.80135026D+05 0.80135026D+05 0.11297010D+01  1  2  4  1  7  1        2 -.176506997402D-02 0.100000000000D+01
-.216620298743D-03 0.000000000000D+00 -.273002884878D-04 0.395309446266D-08 0.000000000000D+00  7 2 -2 23 -13 13 23 21 2 0.61780394D+00 0.33718001D-02 0.80135026D+05 0.80135026D+05 0.80135026D+05 0.11297010D+01  1  2  5  1  7  1        2 -.396874727944D-02 0.100000000000D+01
0.220304000984D-03 0.000000000000D+00 0.279149066660D-04 0.395309446266D-08 0.000000000000D+00  7 2 -2 23 -13 13 23 21 2 0.58423956D+00 0.33718001D-02 0.80135026D+05 0.80135026D+05 0.80135026D+05 0.11297010D+01  1  2  6  1  7  1        2 0.598776401894D-02 0.100000000000D+01
0.870382332242D-06 0.000000000000D+00 0.000000000000D+00 0.395309446266D-08 0.000000000000D+00  7 21 -2 23 -13 13 23 -2 2 0.61960850D+00 0.33718001D-02 0.84284053D+05 0.84284053D+05 0.84284053D+05 0.11278669D+01  1  2 12  3  7  1        2 0.304157698278D-06 0.100000000000D+01
-.206060698147D-05 0.000000000000D+00 -.263445357071D-06 0.395309446266D-08 0.000000000000D+00  7 21 -2 23 -13 13 23 -2 2 0.61780394D+00 0.33718001D-02 0.80135026D+05 0.80135026D+05 0.80135026D+05 0.11297010D+01  1  2  5  3  7  1        2 -.751825199293D-06 0.100000000000D+01
  </mgrwgt>
  </event>
  <event>
  9     66 0.29152272E-05 0.50093911E+03 0.75467711E-02 0.94209123E-01
        2 -1    0    0  502    0 0.00000000E+00 0.00000000E+00 0.13115293E+04 0.13115293E+04 0.32000000E+00 0.0000E+00 0.9000E+01
       -2 -1    0    0    0  501 0.00000000E+00 0.00000000E+00 -.23888926E+03 0.23888947E+03 0.32000000E+00 0.0000E+00 0.9000E+01
       25  2    1    2    0    0 0.17937194E+03 -.46648095E+03 0.44502029E+03 0.73334536E+03 0.29995599E+03 0.0000E+00 0.0000E+00
       23  2    3    3    0    0 0.97542777E+02 -.29798869E+03 0.12281001E+03 0.34965229E+03 0.94141258E+02 0.0000E+00 0.0000E+00
       23  1    1    2    0    0 -.18702541E+03 0.43371808E+03 0.61577019E+03 0.78139494E+03 0.91188000E+02 0.0000E+00 0.9000E+01
      -11  1    4    4    0    0 0.79846799E+02 -.26901083E+03 0.74017484E+02 0.29020842E+03 0.51099893E-03 0.0000E+00 0.9000E+01
       11  1    4    4    0    0 0.17695978E+02 -.28977855E+02 0.48792521E+02 0.59443871E+02 0.51099893E-03 0.0000E+00 0.9000E+01
       23  1    3    3    0    0 0.81829165E+02 -.16849226E+03 0.32221028E+03 0.38369307E+03 0.91188000E+02 0.0000E+00 0.9000E+01
       21  1    1    2  502  501 0.76534641E+01 0.32762868E+02 0.11849556E+02 0.35678502E+02 0.75000000E+00 0.0000E+00 0.9000E+01
#aMCatNLO 2  0  0  1  2 0.33644926D+02 0.00000000D+00  -5  7  0 0.00000000D+00 0.00000000D+00 0.00000000D+00 0.00000000D+00 0.00000000D+00
  <mgrwgt>
 0.3627152889D-03    2    2    0
 0.540377128137536D+03 0.000000000000000D+00 0.000000000000000D+00 0.540377128137536D+03
 0.540377128137536D+03 0.000000000000000D+00 0.000000000000000D+00 -.540377128137536D+03
 0.502598723243268D+03 -.183509763428437D+03 0.448767804328833D+03 0.960304628025955D+02
 0.326504277877458D+03 0.821847041283325D+02 -.259002754778378D+03 -.181020139478541D+03
 0.346696979339337D+02 0.179440403112225D+02 -.279159511427965D+02 0.100348913263888D+02
 0.216981557220411D+03 0.833810189888820D+02 -.161849098407659D+03 0.749547853495567D+02
 0.000000000000000D+00 0.000000000000000D+00 0.000000000000000D+00 -.000000000000000D+00
 0.550612064717880D+03 0.000000000000000D+00 0.000000000000000D+00 0.550612064717880D+03
 0.569014628597418D+03 0.000000000000000D+00 0.000000000000000D+00 -.569014628597418D+03
 0.490537435552685D+03 -.187025405932293D+03 0.433718079037968D+03 0.960304628025955D+02
 0.333932075729128D+03 0.798467990029706D+02 -.269010834341134D+03 -.181020139478541D+03
 0.354056882487667D+02 0.176959776423164D+02 -.289778551952877D+02 0.100348913263888D+02
 0.221402629472395D+03 0.818291652313627D+02 -.168492257578890D+03 0.749547853495567D+02
 0.383488643123231D+02 0.765346405564362D+01 0.327628680773438D+02 -.184025638795389D+02
-.491627095209D-05 0.000000000000D+00 0.000000000000D+00 0.322669106733D-06 0.000000000000D+00  7 2 -2 23 -11 11 23 21 2 0.19802182D+00 0.34902309D-01 0.25094000D+06 0.25094000D+06 0.25094000D+06 0.10903365D+01  1  2  8  1  7  1        2 -.946827620394D-04 0.100000000000D+01
0.271251012698D-04 0.000000000000D+00 0.000000000000D+00 0.322669106733D-06 0.180293938444D-08  7 2 -2 23 -11 11 23 21 2 0.20177242D+00 0.36751971D-01 0.26914521D+06 0.26914521D+06 0.26914521D+06 0.10880564D+01  1  2  1  1  7  1        2 0.457398050984D-03 0.100000000000D+01
  </mgrwgt>
  </event>
  <event>
  8     66 0.29152272E-05 0.23155311E+03 0.75467711E-02 0.10408345E+00
        2 -1    0    0  501    0 0.00000000E+00 0.00000000E+00 0.32263728E+04 0.32263728E+04 0.32000000E+00 0.0000E+00 0.9000E+01
       -2 -1    0    0    0  501 0.00000000E+00 0.00000000E+00 -.80214047E+02 0.80214686E+02 0.32000000E+00 0.0000E+00 0.9000E+01
       25  2    1    2    0    0 0.84472914E+02 -.14464661E+03 0.30879743E+04 0.31071909E+04 0.30164868E+03 0.0000E+00 0.0000E+00
       23  2    3    3    0    0 0.12348931E+02 -.86817398E+01 0.31969867E+03 0.33314091E+03 0.92454098E+02 0.0000E+00 0.0000E+00
       23  1    1    2    0    0 -.84472914E+02 0.14464661E+03 0.58184474E+02 0.19939659E+03 0.91188000E+02 0.0000E+00 0.9000E+01
      -11  1    4    4    0    0 -.30089404E+02 -.32936700E+02 0.14209708E+03 0.14893549E+03 0.51099893E-03 0.0000E+00 0.9000E+01
       11  1    4    4    0    0 0.42438336E+02 0.24254960E+02 0.17760159E+03 0.18420543E+03 0.51099893E-03 0.0000E+00 0.9000E+01
       23  1    3    3    0    0 0.72123983E+02 -.13596487E+03 0.27682756E+04 0.27740500E+04 0.91188000E+02 0.0000E+00 0.9000E+01
#aMCatNLO 1  0  0  2  1 0.59343378D+01 0.00000000D+00  -5  7  0 0.00000000D+00 0.00000000D+00 0.00000000D+00 0.00000000D+00 0.00000000D+00
  <mgrwgt>
 0.5469599627D-03    8    2    0
 0.508725370736492D+03 0.000000000000000D+00 0.000000000000000D+00 0.508725370736492D+03
 0.508725370736492D+03 0.000000000000000D+00 0.000000000000000D+00 -.508725370736492D+03
 0.468096045490160D+03 -.844729143189069D+02 0.144646607450782D+03 -.427481393933088D+03
 0.446294236261460D+02 -.300894041112824D+02 -.329366999211125D+02 0.125976654048566D+01
 0.494653660239335D+02 0.424383355141358D+02 0.242549601119203D+02 0.758333862098442D+01
 0.455259906332744D+03 0.721239829160535D+02 -.135964867641590D+03 0.418638288771618D+03
 0.000000000000000D+00 0.000000000000000D+00 0.000000000000000D+00 0.000000000000000D+00
 0.548439369132787D+03 0.000000000000000D+00 0.000000000000000D+00 0.548439369132787D+03
 0.508955759420737D+03 0.000000000000000D+00 0.000000000000000D+00 -.508955759420737D+03
 0.468146292902239D+03 -.868880117583603D+02 0.143373050005264D+03 -.427481393933088D+03
 0.448750266036111D+02 -.303202866079453D+02 -.330584515812573D+02 0.125976654048566D+01
 0.491812727547877D+02 0.421838701530261D+02 0.241207724597066D+02 0.758333862098442D+01
 0.455265455242211D+03 0.697752240753960D+02 -.137203442640834D+03 0.418638288771618D+03
 0.399270810506757D+02 0.524920413788343D+01 0.276807175712138D+01 0.394836097120499D+02
0.682281494864D-04 0.000000000000D+00 0.000000000000D+00 0.985623941401D-07 0.000000000000D+00  7 2 -2 23 -11 11 23 21 0 0.49636510D+00 0.12340673D-01 0.53616843D+05 0.53616843D+05 0.53616843D+05 0.11446370D+01  1  2  2  2  7  2       -2 0.528474312020D-03 0.100000000000D+01
-.935286651720D-06 0.000000000000D+00 -.262014058912D-06 0.985623941401D-07 0.000000000000D+00  7 2 -2 23 -11 11 23 21 2 0.49636510D+00 0.12340673D-01 0.53616843D+05 0.53616843D+05 0.53616843D+05 0.11446370D+01  1  2  3  2  7  2       -2 -.949162510692D-05 0.100000000000D+01
0.409547026827D-05 0.000000000000D+00 0.000000000000D+00 0.985623941401D-07 0.000000000000D+00  7 2 -2 23 -11 11 23 21 2 0.49636510D+00 0.12340673D-01 0.53616843D+05 0.53616843D+05 0.53616843D+05 0.11446370D+01  1  2 15  2  7  2       -2 0.415623042962D-04 0.100000000000D+01
-.220876329552D-05 0.000000000000D+00 0.000000000000D+00 0.985623941401D-07 0.000000000000D+00  7 2 -2 23 -11 11 23 21 2 0.49636510D+00 0.12340673D-01 0.53616843D+05 0.53616843D+05 0.53616843D+05 0.11446370D+01  1  2  4  2  7  2       -2 -.224153238074D-04 0.100000000000D+01
0.288451975185D-05 0.000000000000D+00 0.000000000000D+00 0.985623941401D-07 0.000000000000D+00  7 2 -2 23 -11 11 23 21 2 0.49636510D+00 0.14386264D-01 0.53616843D+05 0.53616843D+05 0.53616843D+05 0.11446370D+01  1  2  5  2  7  2       -2 0.230116202582D-04 0.100000000000D+01
-.285092230824D-05 0.000000000000D+00 0.000000000000D+00 0.985623941401D-07 0.000000000000D+00  7 2 -2 23 -11 11 23 21 2 0.49636510D+00 0.12340673D-01 0.53616843D+05 0.53616843D+05 0.53616843D+05 0.11446370D+01  1  2  6  2  7  2       -2 -.289321842763D-04 0.100000000000D+01
0.582569213686D-06 0.000000000000D+00 0.000000000000D+00 0.985623941401D-07 0.195785330619D-07  7 2 -2 23 -11 11 23 21 2 0.53511418D+00 0.12346262D-01 0.55022184D+05 0.55022184D+05 0.55022184D+05 0.11436570D+01  1  2 11  2  7  2       -2 0.399696072364D-05 0.100000000000D+01
0.110184441184D-06 0.000000000000D+00 0.000000000000D+00 0.985623941401D-07 0.172783775228D-11  7 2 21 23 -11 11 23 2 2 0.53511418D+00 0.12346262D-01 0.55022184D+05 0.55022184D+05 0.55022184D+05 0.11436570D+01  1  2 11  4  7  2       -2 0.107538986075D-04 0.100000000000D+01
  </mgrwgt>
  </event>
  <event>
  8     66 0.29152272E-05 0.21907292E+03 0.75467711E-02 0.10482851E+00
        2 -1    0    0  501    0 0.00000000E+00 0.00000000E+00 0.60666631E+03 0.60666639E+03 0.32000000E+00 0.0000E+00 0.9000E+01
       -2 -1    0    0    0  501 0.00000000E+00 0.00000000E+00 -.16575313E+03 0.16575344E+03 0.32000000E+00 0.0000E+00 0.9000E+01
       25  2    1    2    0    0 0.90260088E+02 0.54974567E+02 0.52073889E+03 0.61162032E+03 0.30288833E+03 0.0000E+00 0.0000E+00
       23  2    3    3    0    0 0.14576229E+03 -.13579371E+02 0.40304686E+03 0.43856888E+03 0.92004586E+02 0.0000E+00 0.0000E+00
       23  1    1    2    0    0 -.90260088E+02 -.54974567E+02 -.79825720E+02 0.16079951E+03 0.91188000E+02 0.0000E+00 0.9000E+01
      -13  1    4    4    0    0 0.79460629E+02 0.37626153E+02 0.23223600E+03 0.24832094E+03 0.10565837E+00 0.0000E+00 0.9000E+01
       13  1    4    4    0    0 0.66301661E+02 -.51205524E+02 0.17081086E+03 0.19024794E+03 0.10565837E+00 0.0000E+00 0.9000E+01
       23  1    3    3    0    0 -.55502202E+02 0.68553939E+02 0.11769203E+03 0.17305144E+03 0.91188000E+02 0.0000E+00 0.9000E+01
#aMCatNLO 1  0  0  2  1 0.61861530D+01 0.00000000D+00  -5  7  0 0.00000000D+00 0.00000000D+00 0.00000000D+00 0.00000000D+00 0.00000000D+00
  <mgrwgt>
 0.1975901661D-03    6    2    0
 0.317107228566769D+03 0.000000000000000D+00 0.000000000000000D+00 0.317107228566769D+03
 0.317107228566769D+03 0.000000000000000D+00 0.000000000000000D+00 -.317107228566769D+03
 0.251336044863926D+03 -.902600927741344D+02 -.549745706743614D+02 -.209010689524282D+03
 0.140980914166520D+03 0.794606431539777D+02 0.376262735996855D+02 0.110208383908783D+03
 0.112956260047470D+03 0.663016374179712D+02 -.512056364787656D+02 0.757706562754478D+02
 0.128941238055622D+03 -.555021877978145D+02 0.685539335534415D+02 0.230316493400515D+02
 0.000000000000000D+00 0.000000000000000D+00 0.000000000000000D+00 0.000000000000000D+00
 0.325101104313290D+03 0.000000000000000D+00 0.000000000000000D+00 0.325101104313290D+03
 0.318321382344895D+03 0.000000000000000D+00 0.000000000000000D+00 -.318321382344895D+03
 0.252373634777897D+03 -.922191917116280D+02 -.564566429363768D+02 -.209010689524282D+03
 0.140148084789740D+03 0.783672364845933D+02 0.367991036876491D+02 0.110208383908783D+03
 0.112747214975241D+03 0.654237995363962D+02 -.518697270716038D+02 0.757706562754478D+02
 0.128975691864010D+03 -.565053148048762D+02 0.677950608472234D+02 0.230316493400515D+02
 0.917786025129729D+01 0.493347049551477D+01 0.373220547310807D+01 0.677972196839443D+01
0.279074616264D-05 0.000000000000D+00 0.000000000000D+00 0.212344153522D-07 0.000000000000D+00  7 2 -2 23 -13 13 23 21 0 0.93333309D-01 0.25500513D-01 0.47992945D+05 0.47992945D+05 0.47992945D+05 0.11488637D+01  1  2  2  2  7  2       -2 0.222335242873D-03 0.100000000000D+01
-.129257701454D-06 0.000000000000D+00 -.107172000849D-07 0.212344153522D-07 0.000000000000D+00  7 2 -2 23 -13 13 23 21 2 0.93333309D-01 0.25500513D-01 0.47992945D+05 0.47992945D+05 0.47992945D+05 0.11488637D+01  1  2  3  2  7  2       -2 -.135919392872D-04 0.100000000000D+01
0.174074616994D-06 0.000000000000D+00 0.000000000000D+00 0.212344153522D-07 0.000000000000D+00  7 2 -2 23 -13 13 23 21 2 0.93333309D-01 0.25500513D-01 0.47992945D+05 0.47992945D+05 0.47992945D+05 0.11488637D+01  1  2 15  2  7  2       -2 0.183046085378D-04 0.100000000000D+01
-.850858454558D-06 0.000000000000D+00 0.000000000000D+00 0.212344153522D-07 0.000000000000D+00  7 2 -2 23 -13 13 23 21 2 0.93333309D-01 0.25500513D-01 0.47992945D+05 0.47992945D+05 0.47992945D+05 0.11488637D+01  1  2  4  2  7  2       -2 -.894710050249D-04 0.100000000000D+01
0.510768366478D-06 0.000000000000D+00 0.000000000000D+00 0.212344153522D-07 0.390003291064D-08  7 2 -2 23 -13 13 23 21 2 0.95686124D-01 0.25598150D-01 0.49417934D+05 0.49417934D+05 0.49417934D+05 0.11477430D+01  1  2 11  2  7  2       -2 0.517590704916D-04 0.100000000000D+01
0.653428851274D-08 0.000000000000D+00 0.000000000000D+00 0.212344153522D-07 0.282991372581D-11  7 2 21 23 -13 13 23 2 2 0.95686124D-01 0.25598150D-01 0.49417934D+05 0.49417934D+05 0.49417934D+05 0.11477430D+01  1  2 11  4  7  2       -2 0.825418853297D-05 0.100000000000D+01
  </mgrwgt>
  </event>
  <event>
  8     66 0.29152272E-05 0.28167442E+03 0.75467711E-02 0.95408586E-01
        2 -1    0    0  501    0 0.00000000E+00 0.00000000E+00 0.13230071E+04 0.13230072E+04 0.32000000E+00 0.0000E+00 0.9000E+01
       -2 -1    0    0    0  501 0.00000000E+00 0.00000000E+00 -.17916368E+03 0.17916396E+03 0.32000000E+00 0.0000E+00 0.9000E+01
       25  2    1    2    0    0 0.28220057E+03 0.25615077E+03 0.28830043E+03 0.56115068E+03 0.29414719E+03 0.0000E+00 0.0000E+00
       23  2    3    3    0    0 0.79527829E+02 -.11848699E+02 0.91663559E+02 0.16129913E+03 0.10559419E+03 0.0000E+00 0.0000E+00
       23  1    1    2    0    0 -.28220057E+03 -.25615077E+03 0.85554301E+03 0.94102044E+03 0.91188000E+02 0.0000E+00 0.9000E+01
      -13  1    4    4    0    0 -.17155337E+02 -.10168914E+01 -.10567244E+02 0.20174674E+02 0.10565837E+00 0.0000E+00 0.9000E+01
       13  1    4    4    0    0 0.96683166E+02 -.10831808E+02 0.10223080E+03 0.14112445E+03 0.10565837E+00 0.0000E+00 0.9000E+01
       23  1    3    3    0    0 0.20267274E+03 0.26799947E+03 0.19663687E+03 0.39985156E+03 0.91188000E+02 0.0000E+00 0.9000E+01
#aMCatNLO 1  0  0  2  1 0.77601852D+02 0.00000000D+00  -5  7  0 0.00000000D+00 0.00000000D+00 0.00000000D+00 0.00000000D+00 0.00000000D+00
  <mgrwgt>
 0.1151939945D-02    9    2    0
 0.486862470239419D+03 0.000000000000000D+00 0.000000000000000D+00 0.486862470239419D+03
 0.486862470239419D+03 0.000000000000000D+00 0.000000000000000D+00 -.486862470239419D+03
 0.446703635460590D+03 -.282200568553788D+03 -.256150770148016D+03 0.214425998074406D+03
 0.435369543882748D+02 -.171554450031738D+02 -.101689426398570D+01 -.400015378480087D+02
 0.976220981011213D+02 0.966832538803363D+02 -.108318349210558D+02 -.806807343907938D+01
 0.385862252528853D+03 0.202672759676625D+03 0.267999499333058D+03 -.166356386787318D+03
 0.000000000000000D+00 -.000000000000000D+00 0.000000000000000D+00 -.000000000000000D+00
 0.527206287292928D+03 0.000000000000000D+00 0.000000000000000D+00 0.527206287292928D+03
 0.527207883800967D+03 0.000000000000000D+00 0.000000000000000D+00 -.527207883800967D+03
 0.448322774279513D+03 -.258444485309546D+03 -.282676489925423D+03 0.214425998074406D+03
 0.428232324612271D+02 -.148632447223121D+02 -.357633395354698D+01 -.400015378480087D+02
 0.103715220743807D+03 0.102027214745180D+03 -.167988290145214D+02 -.806807343907938D+01
 0.381951091802919D+03 0.223052312196512D+03 0.245243967885654D+03 -.166356386787318D+03
 0.776018518064308D+02 -.517717969098337D+02 0.578076850078373D+02 -.159650803908573D-02
0.302376258691D-04 0.000000000000D+00 0.000000000000D+00 0.743369753319D-10 0.000000000000D+00  7 2 -2 23 -13 13 23 21 0 0.20353958D+00 0.27563668D-01 0.18254597D+06 0.18254597D+06 0.18254597D+06 0.11008843D+01  1  2  2  2  7  2       -2 0.718902001304D-03 0.100000000000D+01
-.164502930322D-05 0.000000000000D+00 -.116120445087D-06 0.743369753319D-10 0.000000000000D+00  7 2 -2 23 -13 13 23 21 2 0.20353958D+00 0.27563668D-01 0.18254597D+06 0.18254597D+06 0.18254597D+06 0.11008843D+01  1  2  3  2  7  2       -2 -.474000675088D-04 0.100000000000D+01
0.193303436566D-05 0.000000000000D+00 0.000000000000D+00 0.743369753319D-10 0.000000000000D+00  7 2 -2 23 -13 13 23 21 2 0.20353958D+00 0.27563668D-01 0.18254597D+06 0.18254597D+06 0.18254597D+06 0.11008843D+01  1  2 15  2  7  2       -2 0.556986791966D-04 0.100000000000D+01
0.325448560262D-04 0.000000000000D+00 0.000000000000D+00 0.743369753319D-10 0.000000000000D+00  7 2 -2 23 -13 13 23 21 2 0.20353958D+00 0.30898746D-01 0.21800935D+06 0.21800935D+06 0.21800935D+06 0.10949610D+01  1  2 12  2  7  2       -2 0.754764995726D-03 0.100000000000D+01
-.257894960436D-04 0.000000000000D+00 0.000000000000D+00 0.743369753319D-10 0.000000000000D+00  7 2 -2 23 -13 13 23 21 2 0.20353958D+00 0.27563668D-01 0.18254597D+06 0.18254597D+06 0.18254597D+06 0.11008843D+01  1  2  4  2  7  2       -2 -.743101567306D-03 0.100000000000D+01
-.959973035843D-04 0.000000000000D+00 -.261267374863D-04 0.743369753319D-10 0.000000000000D+00  7 2 -2 23 -13 13 23 21 2 0.20353958D+00 0.32402038D-01 0.18254597D+06 0.18254597D+06 0.18254597D+06 0.11008843D+01  1  2  5  2  7  2       -2 -.207811071644D-02 0.100000000000D+01
0.992597076719D-04 0.000000000000D+00 0.257887587744D-04 0.743369753319D-10 0.000000000000D+00  7 2 -2 23 -13 13 23 21 2 0.20353958D+00 0.27563668D-01 0.18254597D+06 0.18254597D+06 0.18254597D+06 0.11008843D+01  1  2  6  2  7  2       -2 0.286008087233D-02 0.100000000000D+01
0.592284318813D-06 0.000000000000D+00 0.000000000000D+00 0.743369753319D-10 0.000000000000D+00  7 2 21 23 -13 13 23 2 2 0.20353958D+00 0.30898746D-01 0.21800935D+06 0.21800935D+06 0.21800935D+06 0.10949610D+01  1  2 12  4  7  2       -2 0.158779542592D-03 0.100000000000D+01
-.211891581771D-05 0.000000000000D+00 -.633144404086D-06 0.743369753319D-10 0.000000000000D+00  7 2 21 23 -13 13 23 2 2 0.20353958D+00 0.32402038D-01 0.18254597D+06 0.18254597D+06 0.18254597D+06 0.11008843D+01  1  2  5  4  7  2       -2 -.527673794421D-03 0.100000000000D+01
  </mgrwgt>
  </event>
  <event>
  8     66 0.29152272E-05 0.26310393E+03 0.75467711E-02 0.85174084E-01
        2 -1    0    0  501    0 0.00000000E+00 0.00000000E+00 0.37355071E+03 0.37355084E+03 0.32000000E+00 0.0000E+00 0.9000E+01
       -2 -1    0    0    0  501 0.00000000E+00 0.00000000E+00 -.63733033E+03 0.63733041E+03 0.32000000E+00 0.0000E+00 0.9000E+01
       25  2    1    2    0    0 -.15593896E+03 0.67817613E+02 0.27358736E+03 0.43992179E+03 0.29960799E+03 0.0000E+00 0.0000E+00
       23  2    3    3    0    0 0.37024448E+02 -.15764205E+02 0.36928535E+02 0.11046246E+03 0.96015198E+02 0.0000E+00 0.0000E+00
       23  1    1    2    0    0 0.15593896E+03 -.67817613E+02 -.53736698E+03 0.57095947E+03 0.91188000E+02 0.0000E+00 0.9000E+01
      -13  1    4    4    0    0 0.29101197E+02 -.55961003E+02 0.20536169E+02 0.66334448E+02 0.10565837E+00 0.0000E+00 0.9000E+01
       13  1    4    4    0    0 0.79232512E+01 0.40196799E+02 0.16392366E+02 0.44128011E+02 0.10565837E+00 0.0000E+00 0.9000E+01
       23  1    3    3    0    0 -.19296341E+03 0.83581817E+02 0.23665883E+03 0.32945933E+03 0.91188000E+02 0.0000E+00 0.9000E+01
#aMCatNLO 1  0  0  1  2 0.12185615D+04 0.00000000D+00  -5  7  0 0.00000000D+00 0.00000000D+00 0.00000000D+00 0.00000000D+00 0.00000000D+00
  <mgrwgt>
 0.6502711720D-03    3    2    0
 0.487929610756914D+03 0.000000000000000D+00 0.000000000000000D+00 0.487929610756914D+03
 0.487929610756914D+03 0.000000000000000D+00 0.000000000000000D+00 -.487929610756914D+03
 0.446197313150085D+03 0.155938962365597D+03 -.678176126433486D+02 -.402319030559149D+03
 0.742661419367731D+02 0.291012232548757D+02 -.559611186482749D+02 0.392037223089403D+02
 0.501426021413789D+02 0.792322660708139D+01 0.401969131579834D+02 0.289086700180239D+02
 0.405253164285591D+03 -.192963412227554D+03 0.835818181336402D+02 0.334206638232184D+03
 0.000000000000000D+00 -.000000000000000D+00 0.000000000000000D+00 -.000000000000000D+00
 0.128937645653042D+04 0.000000000000000D+00 0.000000000000000D+00 0.128937645653042D+04
 0.151017943228681D+04 0.000000000000000D+00 0.000000000000000D+00 -.151017943228681D+04
 0.820867629236496D+03 0.227700679824855D+03 -.672160852357226D+03 -.402319030559149D+03
 0.192485214494318D+03 0.442090009478057D+02 -.183191676097044D+03 0.392037223089403D+02
 0.315393387038249D+02 0.125493796670947D+02 0.123764034949718D+01 0.289086700180239D+02
 0.516259083671160D+03 -.140772479181486D+03 -.355945532624903D+03 0.334206638232184D+03
 0.123840462271143D+04 -.143686581258269D+03 0.121006042072968D+04 -.220802975756393D+03
0.661241236659D-04 0.000000000000D+00 0.000000000000D+00 0.859822946736D-07 0.000000000000D+00  7 2 -2 23 -13 13 23 21 0 0.57469356D-01 0.98050837D-01 0.69223679D+05 0.69223679D+05 0.69223679D+05 0.11350716D+01  1  2  2  1  7  1        2 0.627024758898D-03 0.100000000000D+01
-.196977865825D-05 0.000000000000D+00 -.253934045759D-06 0.859822946736D-07 0.000000000000D+00  7 2 -2 23 -13 13 23 21 2 0.57469356D-01 0.98050837D-01 0.69223679D+05 0.69223679D+05 0.69223679D+05 0.11350716D+01  1  2  3  1  7  1        2 -.240651565747D-04 0.100000000000D+01
0.387254161459D-05 0.000000000000D+00 0.000000000000D+00 0.859822946736D-07 0.000000000000D+00  7 2 -2 23 -13 13 23 21 2 0.57469356D-01 0.98050837D-01 0.69223679D+05 0.69223679D+05 0.69223679D+05 0.11350716D+01  1  2 15  1  7  1        2 0.473115697069D-04 0.100000000000D+01
  </mgrwgt>
  </event>
  <event>
  8     66 -.29152272E-05 0.60800441E+02 0.75467711E-02 0.10973805E+00
        2 -1    0    0  501    0 0.00000000E+00 0.00000000E+00 0.29949288E+04 0.29949288E+04 0.32000000E+00 0.0000E+00 0.9000E+01
       -2 -1    0    0    0  501 0.00000000E+00 0.00000000E+00 -.13554863E+02 0.13558640E+02 0.32000000E+00 0.0000E+00 0.9000E+01
       25  2    1    2    0    0 0.31961381E+02 -.39920368E+01 0.24360103E+04 0.24546154E+04 0.29992215E+03 0.0000E+00 0.0000E+00
       23  2    3    3    0    0 0.29553543E+02 0.37198641E+02 0.32062051E+03 0.33685916E+03 0.91757431E+02 0.0000E+00 0.0000E+00
       23  1    1    2    0    0 -.31961381E+02 0.39920368E+01 0.54536365E+03 0.55387204E+03 0.91188000E+02 0.0000E+00 0.9000E+01
      -13  1    4    4    0    0 -.10028526E+02 0.31160623E+02 0.33060337E+02 0.46524755E+02 0.10565837E+00 0.0000E+00 0.9000E+01
       13  1    4    4    0    0 0.39582069E+02 0.60380176E+01 0.28756018E+03 0.29033440E+03 0.10565837E+00 0.0000E+00 0.9000E+01
       23  1    3    3    0    0 0.24078374E+01 -.41190678E+02 0.21153898E+04 0.21177562E+04 0.91188000E+02 0.0000E+00 0.9000E+01
#aMCatNLO 1  0  0  2  1 0.41285327D+02 0.00000000D+00  -5  7  0 0.00000000D+00 0.00000000D+00 0.00000000D+00 0.00000000D+00 0.00000000D+00
  <mgrwgt>
 -.2776031477D-03    7    2    0
 0.201498278158070D+03 0.000000000000000D+00 0.000000000000000D+00 0.201498278158070D+03
 0.201498278158070D+03 0.000000000000000D+00 0.000000000000000D+00 -.201498278158070D+03
 0.100209661287145D+03 -.319616509141914D+02 0.399207054115616D+01 -.262534019684698D+02
 0.102740006277402D+03 -.100285291813878D+02 0.311606047439328D+02 -.973855954663268D+02
 0.400573464494667D+02 0.395821853614866D+02 0.603798111551945D+01 -.117660130466900D+01
 0.159989542302126D+03 0.240799473409267D+01 -.411906564006084D+02 0.124815598739466D+03
 0.000000000000000D+00 0.000000000000000D+00 -.000000000000000D+00 -.000000000000000D+00
 0.203595671742679D+03 0.000000000000000D+00 0.000000000000000D+00 0.203595671742679D+03
 0.611192563406922D+03 0.000000000000000D+00 0.000000000000000D+00 -.611192563406922D+03
 0.102960398725496D+03 -.379609988114541D+02 0.124624963804126D+02 -.262534019684698D+02
 0.106476596210928D+03 -.162064236218025D+02 0.398831188565355D+02 -.973855954663268D+02
 0.384280435748632D+02 0.372646137686101D+02 0.931013979689626D+01 -.117660130466900D+01
 0.157240753379110D+03 -.695940372621610D+01 -.279649099822329D+02 0.124815598739466D+03
 0.409682443259204D+03 0.238622123908626D+02 -.336908450516115D+02 -.407596891664243D+03
0.486218732734D-05 0.000000000000D+00 0.000000000000D+00 0.964979104555D-07 0.000000000000D+00  7 2 -2 23 -13 13 23 21 0 0.46075857D+00 0.20856554D-02 0.18167370D+05 0.18167370D+05 0.18167370D+05 0.11881027D+01  1  2  2  2  7  2       -2 0.759441354160D-03 0.100000000000D+01
-.217022506803D-06 0.000000000000D+00 -.186720795803D-07 0.964979104555D-07 0.000000000000D+00  7 2 -2 23 -13 13 23 21 2 0.46075857D+00 0.20856554D-02 0.18167370D+05 0.18167370D+05 0.18167370D+05 0.11881027D+01  1  2  3  2  7  2       -2 -.478492665775D-04 0.100000000000D+01
0.313032271157D-06 0.000000000000D+00 0.000000000000D+00 0.964979104555D-07 0.000000000000D+00  7 2 -2 23 -13 13 23 21 2 0.46075857D+00 0.20856554D-02 0.18167370D+05 0.18167370D+05 0.18167370D+05 0.11881027D+01  1  2 15  2  7  2       -2 0.690175632500D-04 0.100000000000D+01
0.957421774636D-04 0.000000000000D+00 0.000000000000D+00 0.964979104555D-07 0.000000000000D+00  7 2 -2 23 -13 13 23 21 2 0.46075857D+00 0.63096811D-02 0.25270785D+05 0.25270785D+05 0.25270785D+05 0.11743121D+01  1  2 12  2  7  2       -2 0.407602575648D-02 0.100000000000D+01
-.101599776480D-03 0.000000000000D+00 -.159919225499D-05 0.964979104555D-07 0.000000000000D+00  7 2 -2 23 -13 13 23 21 2 0.46075857D+00 0.63918644D-02 0.18167370D+05 0.18167370D+05 0.18167370D+05 0.11881027D+01  1  2  5  2  7  2       -2 -.439523149429D-02 0.100000000000D+01
0.120783601674D-04 0.000000000000D+00 0.000000000000D+00 0.964979104555D-07 0.000000000000D+00  7 2 21 23 -13 13 23 2 2 0.46075857D+00 0.63096811D-02 0.25270785D+05 0.25270785D+05 0.25270785D+05 0.11743121D+01  1  2 12  4  7  2       -2 0.829485739532D-02 0.100000000000D+01
-.129222972578D-04 0.000000000000D+00 -.204604264150D-06 0.964979104555D-07 0.000000000000D+00  7 2 21 23 -13 13 23 2 2 0.46075857D+00 0.63918644D-02 0.18167370D+05 0.18167370D+05 0.18167370D+05 0.11881027D+01  1  2  5  4  7  2       -2 -.903386445603D-02 0.100000000000D+01
  </mgrwgt>
  </event>
  <event>
  8     66 0.29152272E-05 0.19051741E+03 0.75467711E-02 0.95063244E-01
        2 -1    0    0  501    0 0.00000000E+00 0.00000000E+00 0.19285884E+04 0.19285884E+04 0.32000000E+00 0.0000E+00 0.9000E+01
       -2 -1    0    0    0  501 0.00000000E+00 0.00000000E+00 -.94349387E+02 0.94349930E+02 0.32000000E+00 0.0000E+00 0.9000E+01
       25  2    1    2    0    0 -.29799519E+03 0.18082291E+03 0.74366692E+03 0.87439110E+03 0.30003542E+03 0.0000E+00 0.0000E+00
       23  2    3    3    0    0 -.21955318E+03 -.22856297E+01 0.36841282E+03 0.43986518E+03 0.97696197E+02 0.0000E+00 0.0000E+00
       23  1    1    2    0    0 0.29799519E+03 -.18082291E+03 0.10905721E+04 0.11485473E+04 0.91188000E+02 0.0000E+00 0.9000E+01
      -11  1    4    4    0    0 -.21362348E+03 -.24343456E+02 0.34888238E+03 0.40981277E+03 0.51099893E-03 0.0000E+00 0.9000E+01
       11  1    4    4    0    0 -.59297022E+01 0.22057826E+02 0.19530445E+02 0.30052410E+02 0.51099893E-03 0.0000E+00 0.9000E+01
       23  1    3    3    0    0 -.78442006E+02 0.18310854E+03 0.37525410E+03 0.43452592E+03 0.91188000E+02 0.0000E+00 0.9000E+01
#aMCatNLO 1  0  0  1  2 0.13418841D+03 0.00000000D+00  -5  7  0 0.00000000D+00 0.00000000D+00 0.00000000D+00 0.00000000D+00 0.00000000D+00
  <mgrwgt>
 0.1657187157D-02    8    2    0
 0.426569702386745D+03 0.000000000000000D+00 0.000000000000000D+00 0.426569702386745D+03
 0.426569702386745D+03 0.000000000000000D+00 0.000000000000000D+00 -.426569702386745D+03
 0.378684208857727D+03 0.297995186317845D+03 -.180822912334237D+03 0.116569387064360D+03
 0.221642918389258D+03 -.213623478162016D+03 -.243434558789702D+02 -.538329732221710D+02
 0.292691543506029D+02 -.592970221869661D+01 0.220578261876491D+02 -.183023040044814D+02
 0.223543123175901D+03 -.784420059371325D+02 0.183108542025558D+03 -.444341098377078D+02
 0.000000000000000D+00 -.000000000000000D+00 0.000000000000000D+00 0.000000000000000D+00
 0.831334622804411D+03 0.000000000000000D+00 0.000000000000000D+00 0.831334622804411D+03
 0.443081600717528D+03 0.000000000000000D+00 0.000000000000000D+00 -.443081600717528D+03
 0.436902814245598D+03 0.344185643619547D+03 -.224759067619887D+03 0.116569387064360D+03
 0.202661037728639D+03 -.189593186834631D+03 -.472009609351168D+02 -.538329732221710D+02
 0.265620672383990D+02 -.276772246196138D+01 0.190501652611815D+02 -.183023040044814D+02
 0.197502111004328D+03 -.545962710730760D+02 0.160426586247453D+03 -.444341098377078D+02
 0.410788193304976D+03 -.972284632498781D+02 0.924832770463692D+02 0.388253022086883D+03
0.142392653618D-04 0.000000000000D+00 0.000000000000D+00 0.460438226313D-07 0.000000000000D+00  7 2 -2 23 -11 11 23 21 0 0.29670595D+00 0.14515334D-01 0.16696443D+06 0.16696443D+06 0.16696443D+06 0.11038984D+01  1  2  2  1  7  1        2 0.463169549631D-03 0.100000000000D+01
-.789291239728D-06 0.000000000000D+00 -.546825282740D-07 0.460438226313D-07 0.000000000000D+00  7 2 -2 23 -11 11 23 21 2 0.29670595D+00 0.14515334D-01 0.16696443D+06 0.16696443D+06 0.16696443D+06 0.11038984D+01  1  2  3  1  7  1        2 -.312858477282D-04 0.100000000000D+01
0.896744538202D-06 0.000000000000D+00 0.000000000000D+00 0.460438226313D-07 0.000000000000D+00  7 2 -2 23 -11 11 23 21 2 0.29670595D+00 0.14515334D-01 0.16696443D+06 0.16696443D+06 0.16696443D+06 0.11038984D+01  1  2 15  1  7  1        2 0.355450708954D-04 0.100000000000D+01
0.316837812399D-04 0.000000000000D+00 0.000000000000D+00 0.460438226313D-07 0.000000000000D+00  7 2 -2 23 -11 11 23 21 2 0.57876016D+00 0.14515334D-01 0.23151625D+06 0.23151625D+06 0.23151625D+06 0.10929776D+01  1  2 12  1  7  1        2 0.873258931159D-04 0.100000000000D+01
-.342853621307D-04 0.000000000000D+00 -.352241683685D-05 0.460438226313D-07 0.000000000000D+00  7 2 -2 23 -11 11 23 21 2 0.58164269D+00 0.14515334D-01 0.16696443D+06 0.16696443D+06 0.16696443D+06 0.11038984D+01  1  2  5  1  7  1        2 -.953804924010D-04 0.100000000000D+01
0.302188803024D-04 0.000000000000D+00 0.285163874774D-05 0.460438226313D-07 0.000000000000D+00  7 2 -2 23 -11 11 23 21 2 0.29670595D+00 0.14515334D-01 0.16696443D+06 0.16696443D+06 0.16696443D+06 0.11038984D+01  1  2  6  1  7  1        2 0.119781297457D-02 0.100000000000D+01
0.229408591537D-05 0.000000000000D+00 0.000000000000D+00 0.460438226313D-07 0.000000000000D+00  7 21 -2 23 -11 11 23 -2 2 0.57876016D+00 0.14515334D-01 0.23151625D+06 0.23151625D+06 0.23151625D+06 0.10929776D+01  1  2 12  3  7  1        2 0.159500033626D-06 0.100000000000D+01
-.229224301724D-05 0.000000000000D+00 -.256841824687D-06 0.460438226313D-07 0.000000000000D+00  7 21 -2 23 -11 11 23 -2 2 0.58164269D+00 0.14515334D-01 0.16696443D+06 0.16696443D+06 0.16696443D+06 0.11038984D+01  1  2  5  3  7  1        2 -.159491025208D-06 0.100000000000D+01
  </mgrwgt>
  </event>
  <event>
  9     66 0.29152272E-05 0.23655513E+03 0.75467711E-02 0.10205799E+00
       21 -1    0    0  501  502 0.00000000E+00 0.00000000E+00 0.44413493E+03 0.44413557E+03 0.75000000E+00 0.0000E+00 0.9000E+01
       -4 -1    0    0    0  501 0.00000000E+00 0.00000000E+00 -.32044916E+03 0.32045291E+03 0.15500000E+01 0.0000E+00 0.9000E+01
       25  2    1    2    0    0 -.26015936E+01 0.16420111E+03 0.32650144E+03 0.47345017E+03 0.30097027E+03 0.0000E+00 0.0000E+00
       23  2    3    3    0    0 0.86118423E+02 -.10865315E+02 0.11551008E+03 0.17120507E+03 0.91837685E+02 0.0000E+00 0.0000E+00
       23  1    1    2    0    0 0.14532763E+01 -.89745621E+02 -.16123955E+03 0.20583934E+03 0.91188000E+02 0.0000E+00 0.9000E+01
      -11  1    4    4    0    0 0.96612026E+02 0.15534479E+02 0.86551808E+02 0.13063851E+03 0.51099893E-03 0.0000E+00 0.9000E+01
       11  1    4    4    0    0 -.10493603E+02 -.26399795E+02 0.28958267E+02 0.40566564E+02 0.51099893E-03 0.0000E+00 0.9000E+01
       23  1    3    3    0    0 -.88720017E+02 0.17506642E+03 0.21099136E+03 0.30224510E+03 0.91188000E+02 0.0000E+00 0.9000E+01
       -4  1    1    2    0  502 0.11483174E+01 -.74455488E+02 -.41576112E+02 0.85298967E+02 0.15500000E+01 0.0000E+00 0.9000E+01
#aMCatNLO 2  0  0  1  2 0.74464342D+02 0.00000000D+00  -5  7  0 0.00000000D+00 0.00000000D+00 0.00000000D+00 0.00000000D+00 0.00000000D+00
  <mgrwgt>
 0.1032518742D-04    1    2    0
 0.327329269254860D+03 0.000000000000000D+00 0.000000000000000D+00 0.327329269254860D+03
 0.327329269254860D+03 0.000000000000000D+00 0.000000000000000D+00 -.327329269254860D+03
 0.264496627794688D+03 0.190538149787762D+01 -.119059568644641D+03 -.217863267684714D+03
 0.112107244064658D+03 0.968087977818638D+02 0.277605073659764D+01 0.564657806650260D+02
 0.377667152638175D+02 -.104303736870282D+02 -.304994874270422D+02 0.196802782819478D+02
 0.240287951386556D+03 -.882838055927133D+02 0.146783005335086D+03 0.141717208737740D+03
 0.000000000000000D+00 0.000000000000000D+00 -.000000000000000D+00 -.000000000000000D+00
 0.346489314907443D+03 0.000000000000000D+00 0.000000000000000D+00 0.346489314907443D+03
 0.410747097422578D+03 0.000000000000000D+00 0.000000000000000D+00 -.410747097422578D+03
 0.252657957200144D+03 0.145327628171870D+01 -.897456214772494D+02 -.217863267684714D+03
 0.112976050720783D+03 0.966120261886201D+02 0.155344792665678D+02 0.564657806650260D+02
 0.345597772334229D+02 -.104936027204222D+02 -.263997945278909D+02 0.196802782819478D+02
 0.258686128265261D+03 -.887200171060288D+02 0.175066424322771D+03 0.141717208737740D+03
 0.983564989104106D+02 0.114831735611219D+01 -.744554875841990D+02 -.642577825151353D+02
0.203749827307D-06 0.000000000000D+00 0.000000000000D+00 0.132064888143D-06 0.201225410847D-11  7 21 -4 23 -11 11 23 -4 2 0.68327622D-01 0.49299366D-01 0.74281125D+05 0.74281125D+05 0.74281125D+05 0.11324745D+01  1  2  1  3  7  1        4 0.103251874241D-04 0.100000000000D+01
  </mgrwgt>
  </event>
  <event>
  8     66 0.29152272E-05 0.21882006E+03 0.75467711E-02 0.95508279E-01
        2 -1    0    0  501    0 0.00000000E+00 0.00000000E+00 0.68800536E+03 0.68800543E+03 0.32000000E+00 0.0000E+00 0.9000E+01
       -2 -1    0    0    0  501 0.00000000E+00 0.00000000E+00 -.21813187E+03 0.21813210E+03 0.32000000E+00 0.0000E+00 0.9000E+01
       25  2    1    2    0    0 -.64383834E+02 0.31376755E+03 0.22612249E+03 0.49343285E+03 0.29958178E+03 0.0000E+00 0.0000E+00
       23  2    3    3    0    0 -.11011126E+03 0.18992215E+03 0.27574625E+02 0.23815813E+03 0.88113672E+02 0.0000E+00 0.0000E+00
       23  1    1    2    0    0 0.64383834E+02 -.31376755E+03 0.24375100E+03 0.41270469E+03 0.91188000E+02 0.0000E+00 0.9000E+01
      -11  1    4    4    0    0 -.12055553E+03 0.18283934E+03 0.13746707E+02 0.21943754E+03 0.51099893E-03 0.0000E+00 0.9000E+01
       11  1    4    4    0    0 0.10444274E+02 0.70828117E+01 0.13827918E+02 0.18720588E+02 0.51099893E-03 0.0000E+00 0.9000E+01
       23  1    3    3    0    0 0.45727421E+02 0.12384540E+03 0.19854786E+03 0.25527472E+03 0.91188000E+02 0.0000E+00 0.9000E+01
#aMCatNLO 1  0  0  1  2 0.18339869D+03 0.00000000D+00  -5  7  0 0.00000000D+00 0.00000000D+00 0.00000000D+00 0.00000000D+00 0.00000000D+00
  <mgrwgt>
 0.6095370813D-03    9    2    0
 0.387396481465527D+03 0.000000000000000D+00 0.000000000000000D+00 0.387396481465527D+03
 0.387396481465527D+03 0.000000000000000D+00 0.000000000000000D+00 -.387396481465527D+03
 0.334844384452665D+03 0.643838340628991D+02 -.313767553017805D+03 0.347872827347040D+02
 0.248300365715125D+03 -.120555529272125D+03 0.182839343082487D+03 -.117000899985203D+03
 0.135081955825234D+02 0.104442737896431D+02 0.708281171585804D+01 0.481894916972387D+01
 0.178140017180740D+03 0.457274214195824D+02 0.123845398219461D+03 0.773946680807751D+02
 0.000000000000000D+00 -.000000000000000D+00 0.000000000000000D+00 0.000000000000000D+00
 0.590291244615811D+03 0.000000000000000D+00 0.000000000000000D+00 0.590291244615811D+03
 0.441853935085321D+03 0.000000000000000D+00 0.000000000000000D+00 -.441853935085321D+03
 0.379586277885727D+03 0.144428739273149D+03 -.337195307273166D+03 0.347872827347040D+02
 0.215617259507643D+03 -.685781376316577D+02 0.167626462824974D+03 -.117000899985203D+03
 0.157832220152624D+02 0.137260880631437D+02 0.612228164702535D+01 0.481894916972387D+01
 0.185216238411418D+03 0.864379040033346D+02 0.111930146660550D+03 0.773946680807751D+02
 0.235942181881081D+03 -.176014593707970D+03 0.515164161406170D+02 0.148437309530490D+03
0.137851277310D-04 0.000000000000D+00 0.000000000000D+00 0.795236085800D-07 0.000000000000D+00  7 2 -2 23 -11 11 23 21 0 0.10584700D+00 0.33558773D-01 0.13144523D+06 0.13144523D+06 0.13144523D+06 0.11121060D+01  1  2  2  1  7  1        2 0.582428053623D-03 0.100000000000D+01
-.761750356288D-06 0.000000000000D+00 -.529385201944D-07 0.795236085800D-07 0.000000000000D+00  7 2 -2 23 -11 11 23 21 2 0.10584700D+00 0.33558773D-01 0.13144523D+06 0.13144523D+06 0.13144523D+06 0.11121060D+01  1  2  3  1  7  1        2 -.398048971174D-04 0.100000000000D+01
0.892046778876D-06 0.000000000000D+00 0.000000000000D+00 0.795236085800D-07 0.000000000000D+00  7 2 -2 23 -11 11 23 21 2 0.10584700D+00 0.33558773D-01 0.13144523D+06 0.13144523D+06 0.13144523D+06 0.11121060D+01  1  2 15  1  7  1        2 0.466134737765D-04 0.100000000000D+01
0.654734716609D-05 0.000000000000D+00 0.000000000000D+00 0.795236085800D-07 0.000000000000D+00  7 2 -2 23 -11 11 23 21 2 0.16557910D+00 0.33558773D-01 0.21427650D+06 0.21427650D+06 0.21427650D+06 0.10955329D+01  1  2 12  1  7  1        2 0.182058720539D-03 0.100000000000D+01
-.104807941799D-04 0.000000000000D+00 0.000000000000D+00 0.795236085800D-07 0.000000000000D+00  7 2 -2 23 -11 11 23 21 2 0.10584700D+00 0.33558773D-01 0.13144523D+06 0.13144523D+06 0.13144523D+06 0.11121060D+01  1  2  4  1  7  1        2 -.547668840053D-03 0.100000000000D+01
-.127051466821D-04 0.000000000000D+00 -.493326840564D-05 0.795236085800D-07 0.000000000000D+00  7 2 -2 23 -11 11 23 21 2 0.17432815D+00 0.33558773D-01 0.13144523D+06 0.13144523D+06 0.13144523D+06 0.11121060D+01  1  2  5  1  7  1        2 -.341134793853D-03 0.100000000000D+01
0.139500672313D-04 0.000000000000D+00 0.437704753239D-05 0.795236085800D-07 0.000000000000D+00  7 2 -2 23 -11 11 23 21 2 0.10584700D+00 0.33558773D-01 0.13144523D+06 0.13144523D+06 0.13144523D+06 0.11121060D+01  1  2  6  1  7  1        2 0.728954028493D-03 0.100000000000D+01
0.338774915467D-06 0.000000000000D+00 0.000000000000D+00 0.795236085800D-07 0.000000000000D+00  7 21 -2 23 -11 11 23 -2 2 0.16557910D+00 0.33558773D-01 0.21427650D+06 0.21427650D+06 0.21427650D+06 0.10955329D+01  1  2 12  3  7  1        2 0.591813476986D-05 0.100000000000D+01
-.493168883376D-06 0.000000000000D+00 -.277685270642D-06 0.795236085800D-07 0.000000000000D+00  7 21 -2 23 -11 11 23 -2 2 0.17432815D+00 0.33558773D-01 0.13144523D+06 0.13144523D+06 0.13144523D+06 0.11121060D+01  1  2  5  3  7  1        2 -.782679889021D-05 0.100000000000D+01
  </mgrwgt>
  </event>
  <event>
  8     66 0.29152272E-05 0.74737169E+03 0.75467711E-02 0.83039016E-01
        2 -1    0    0  501    0 0.00000000E+00 0.00000000E+00 0.73176149E+03 0.73176156E+03 0.32000000E+00 0.0000E+00 0.9000E+01
       -2 -1    0    0    0  501 0.00000000E+00 0.00000000E+00 -.12991600E+04 0.12991600E+04 0.32000000E+00 0.0000E+00 0.9000E+01
       25  2    1    2    0    0 -.69863057E+03 -.21635657E+03 0.34112654E+03 0.86103790E+03 0.30020677E+03 0.0000E+00 0.0000E+00
       23  2    3    3    0    0 -.17085790E+03 -.47178291E+01 0.17652098E+03 0.26208449E+03 0.91180814E+02 0.0000E+00 0.0000E+00
       23  1    1    2    0    0 0.69863057E+03 0.21635657E+03 -.90852503E+03 0.11698837E+04 0.91188000E+02 0.0000E+00 0.9000E+01
      -13  1    4    4    0    0 -.35717651E+02 0.24819168E+02 0.87135167E+02 0.97387321E+02 0.10565837E+00 0.0000E+00 0.9000E+01
       13  1    4    4    0    0 -.13514025E+03 -.29536997E+02 0.89385815E+02 0.16469717E+03 0.10565837E+00 0.0000E+00 0.9000E+01
       23  1    3    3    0    0 -.52777267E+03 -.21163874E+03 0.16460555E+03 0.59895341E+03 0.91188000E+02 0.0000E+00 0.9000E+01
#aMCatNLO 1  0  0  1  2 0.12684029D+04 0.00000000D+00  -5  7  0 0.00000000D+00 0.00000000D+00 0.00000000D+00 0.00000000D+00 0.00000000D+00
  <mgrwgt>
 0.7097001238D-03    3    2    0
 0.975025819935344D+03 0.000000000000000D+00 0.000000000000000D+00 0.975025819935344D+03
 0.975025819935344D+03 0.000000000000000D+00 0.000000000000000D+00 -.975025819935344D+03
 0.954049746446712D+03 0.698630574068021D+03 0.216356566923302D+03 -.605805929549708D+03
 0.126779302939813D+03 -.357175179557954D+02 0.248192408104244D+02 0.119085078202839D+03
 0.197535586362439D+03 -.135140386741450D+03 -.295370699309447D+02 0.141013989557131D+03
 0.671687004121725D+03 -.527772669370776D+03 -.211638737802782D+03 0.345706861789738D+03
 0.000000000000000D+00 -.000000000000000D+00 0.000000000000000D+00 -.000000000000000D+00
 0.151121791260614D+04 0.000000000000000D+00 0.000000000000000D+00 0.151121791260614D+04
 0.231864700124963D+04 0.000000000000000D+00 0.000000000000000D+00 -.231864700124963D+04
 0.123897850850686D+04 0.101842907381103D+04 -.350076978015860D+03 -.605805929549708D+03
 0.125759009346916D+03 0.110889922077499D+01 -.404084511440291D+02 0.119085078202839D+03
 0.209160235839598D+03 -.758339398235037D+02 -.134581843413229D+03 0.141013989557131D+03
 0.752375538465513D+03 -.320108648795149D+03 -.579457434342942D+03 0.345706861789738D+03
 0.150359162169688D+04 -.623595384413150D+03 0.110452470691606D+04 -.807429088643488D+03
0.119554537814D-02 0.000000000000D+00 0.000000000000D+00 0.714696675281D-05 0.000000000000D+00  7 2 -2 23 -13 13 23 21 0 0.11257870D+00 0.19987077D+00 0.55856444D+06 0.55856444D+06 0.55856444D+06 0.10651272D+01  1  2  2  1  7  1        2 0.701855667821D-03 0.100000000000D+01
-.607094517349D-04 0.000000000000D+00 -.459120904639D-05 0.714696675281D-05 0.000000000000D+00  7 2 -2 23 -13 13 23 21 2 0.11257870D+00 0.19987077D+00 0.55856444D+06 0.55856444D+06 0.55856444D+06 0.10651272D+01  1  2  3  1  7  1        2 -.404334718745D-04 0.100000000000D+01
0.724876295050D-04 0.000000000000D+00 0.000000000000D+00 0.714696675281D-05 0.000000000000D+00  7 2 -2 23 -13 13 23 21 2 0.11257870D+00 0.19987077D+00 0.55856444D+06 0.55856444D+06 0.55856444D+06 0.10651272D+01  1  2 15  1  7  1        2 0.482779278199D-04 0.100000000000D+01
  </mgrwgt>
  </event>
  <event>
  8     66 0.29152272E-05 0.41140501E+03 0.75467711E-02 0.90304003E-01
        2 -1    0    0  501    0 0.00000000E+00 0.00000000E+00 0.23332030E+04 0.23332030E+04 0.32000000E+00 0.0000E+00 0.9000E+01
       -2 -1    0    0    0  501 0.00000000E+00 0.00000000E+00 -.11772721E+03 0.11772765E+03 0.32000000E+00 0.0000E+00 0.9000E+01
       25  2    1    2    0    0 -.35279270E+03 -.16167114E+03 0.54796501E+03 0.73643142E+03 0.30243236E+03 0.0000E+00 0.0000E+00
       23  2    3    3    0    0 -.18817738E+03 -.36865011E+02 0.99894744E+02 0.23467751E+03 0.91240423E+02 0.0000E+00 0.0000E+00
       23  1    1    2    0    0 0.35279270E+03 0.16167114E+03 0.16675107E+04 0.17144992E+04 0.91188000E+02 0.0000E+00 0.9000E+01
      -11  1    4    4    0    0 -.75411006E+02 -.40371094E+02 0.85500575E+02 0.12094211E+03 0.51099893E-03 0.0000E+00 0.9000E+01
       11  1    4    4    0    0 -.11276638E+03 0.35060830E+01 0.14394168E+02 0.11373540E+03 0.51099893E-03 0.0000E+00 0.9000E+01
       23  1    3    3    0    0 -.16461531E+03 -.12480613E+03 0.44807027E+03 0.50175391E+03 0.91188000E+02 0.0000E+00 0.9000E+01
#aMCatNLO 1  0  0  2  2 0.52825146D+03 0.00000000D+00  -5  7  0 0.00000000D+00 0.00000000D+00 0.00000000D+00 0.00000000D+00 0.00000000D+00
  <mgrwgt>
 0.8214436759D-03    3    2    0
 0.524101173789244D+03 0.000000000000000D+00 0.000000000000000D+00 0.524101173789244D+03
 0.524101173789244D+03 0.000000000000000D+00 0.000000000000000D+00 -.524101173789244D+03
 0.484437991450166D+03 0.352792696554245D+03 0.161671138752956D+03 0.275253832613785D+03
 0.102075964838360D+03 -.754110064473869D+02 -.403710938386437D+02 -.557032987043470D+02
 0.235515250804539D+03 -.112766377384492D+03 0.350608303036824D+01 -.206733850336338D+03
 0.226173140485424D+03 -.164615312722366D+03 -.124806127944681D+03 -.128166835730997D+02
 0.000000000000000D+00 0.000000000000000D+00 -.000000000000000D+00 0.000000000000000D+00
 0.128764394167776D+04 0.000000000000000D+00 0.000000000000000D+00 0.128764394167776D+04
 0.686447794258002D+03 0.000000000000000D+00 0.000000000000000D+00 -.686447794258002D+03
 0.366864357774596D+03 0.150474235568032D+03 0.166934231729163D+03 0.275253832613785D+03
 0.151767868129737D+03 -.135738918926091D+03 -.388017293284148D+02 -.557032987043470D+02
 0.320588813104341D+03 -.244928726590601D+03 0.694414166542800D+01 -.206733850336338D+03
 0.334566746868914D+03 -.297879400536082D+03 -.121339408787496D+03 -.128166835730997D+02
 0.800303950058170D+03 0.528072810484742D+03 -.137372352786798D+02 0.601196147419754D+03
0.596921732590D-04 0.000000000000D+00 0.000000000000D+00 0.102727742093D-06 0.000000000000D+00  7 2 -2 23 -11 11 23 21 0 0.35895434D+00 0.18111914D-01 0.16925408D+06 0.16925408D+06 0.16925408D+06 0.11034366D+01  1  2  2  2  7  2       -2 0.812162103658D-03 0.100000000000D+01
-.307989056881D-05 0.000000000000D+00 -.229233662625D-06 0.102727742093D-06 0.000000000000D+00  7 2 -2 23 -11 11 23 21 2 0.35895434D+00 0.18111914D-01 0.16925408D+06 0.16925408D+06 0.16925408D+06 0.11034366D+01  1  2  3  2  7  2       -2 -.510217587247D-04 0.100000000000D+01
0.364016578412D-05 0.000000000000D+00 0.000000000000D+00 0.102727742093D-06 0.000000000000D+00  7 2 -2 23 -11 11 23 21 2 0.35895434D+00 0.18111914D-01 0.16925408D+06 0.16925408D+06 0.16925408D+06 0.11034366D+01  1  2 15  2  7  2       -2 0.603033309807D-04 0.100000000000D+01
  </mgrwgt>
  </event>
  <event>
  8     66 0.29152272E-05 0.36523272E+03 0.75467711E-02 0.96493031E-01
        2 -1    0    0  501    0 0.00000000E+00 0.00000000E+00 0.24036222E+04 0.24036222E+04 0.32000000E+00 0.0000E+00 0.9000E+01
       -2 -1    0    0    0  501 0.00000000E+00 0.00000000E+00 -.73134047E+02 0.73134748E+02 0.32000000E+00 0.0000E+00 0.9000E+01
       25  2    1    2    0    0 -.20943246E+03 0.29005314E+03 0.12082187E+04 0.12953185E+04 0.30010817E+03 0.0000E+00 0.0000E+00
       23  2    3    3    0    0 -.51471540E+02 0.85724532E+02 0.14791065E+03 0.20020656E+03 0.90593007E+02 0.0000E+00 0.0000E+00
       23  1    1    2    0    0 0.20943246E+03 -.29005314E+03 0.11222695E+04 0.11814384E+04 0.91188000E+02 0.0000E+00 0.9000E+01
      -13  1    4    4    0    0 -.23271547E+02 0.92062034E+02 0.72573898E+02 0.11951554E+03 0.10565837E+00 0.0000E+00 0.9000E+01
       13  1    4    4    0    0 -.28199993E+02 -.63375022E+01 0.75336754E+02 0.80691023E+02 0.10565837E+00 0.0000E+00 0.9000E+01
       23  1    3    3    0    0 -.15796092E+03 0.20432861E+03 0.10603080E+04 0.10951120E+04 0.91188000E+02 0.0000E+00 0.9000E+01
#aMCatNLO 1  0  0  2  1 0.76268516D+02 0.00000000D+00  -5  7  0 0.00000000D+00 0.00000000D+00 0.00000000D+00 0.00000000D+00 0.00000000D+00
  <mgrwgt>
 0.6061727147D-03    6    2    0
 0.419270213693230D+03 0.000000000000000D+00 0.000000000000000D+00 0.419270213693230D+03
 0.419270213693230D+03 0.000000000000000D+00 0.000000000000000D+00 -.419270213693230D+03
 0.370525000198100D+03 0.209432456915376D+03 -.290053143761132D+03 0.313168359269459D+02
 0.151308723517198D+03 -.232715407861485D+02 0.920621677648539D+02 -.117802047810207D+03
 0.289556715171658D+02 -.281999993852170D+02 -.633763600570064D+01 -.173934399789627D+01
 0.287751032153997D+03 -.157960916744011D+03 0.204328612001978D+03 0.882245558811572D+02
 0.000000000000000D+00 0.000000000000000D+00 -.000000000000000D+00 0.000000000000000D+00
 0.464086447766298D+03 0.000000000000000D+00 0.000000000000000D+00 0.464086447766298D+03
 0.454752807647748D+03 0.000000000000000D+00 0.000000000000000D+00 -.454752807647748D+03
 0.343705688168924D+03 0.179999998248799D+03 -.276473516188497D+03 0.313168359269459D+02
 0.157363198761661D+03 -.359914837149196D+02 0.979309295178105D+02 -.117802047810207D+03
 0.311626654779965D+02 -.306773928906109D+02 -.519460947382898D+01 -.173934399789627D+01
 0.309770190386021D+03 -.182583939768995D+03 0.215689249119645D+03 0.882245558811572D+02
 0.768375126194432D+02 0.692528181257267D+02 -.319520529751298D+02 0.933364011854952D+01
0.176528244085D-04 0.000000000000D+00 0.000000000000D+00 0.748587882326D-06 0.000000000000D+00  7 2 -2 23 -13 13 23 21 0 0.36978808D+00 0.11251447D-01 0.14705421D+06 0.14705421D+06 0.14705421D+06 0.11082323D+01  1  2  2  2  7  2       -2 0.472362405772D-03 0.100000000000D+01
-.971216999114D-06 0.000000000000D+00 -.677914938242D-07 0.748587882326D-06 0.000000000000D+00  7 2 -2 23 -13 13 23 21 2 0.36978808D+00 0.11251447D-01 0.14705421D+06 0.14705421D+06 0.14705421D+06 0.11082323D+01  1  2  3  2  7  2       -2 -.319182446780D-04 0.100000000000D+01
0.112591859195D-05 0.000000000000D+00 0.000000000000D+00 0.748587882326D-06 0.000000000000D+00  7 2 -2 23 -13 13 23 21 2 0.36978808D+00 0.11251447D-01 0.14705421D+06 0.14705421D+06 0.14705421D+06 0.11082323D+01  1  2 15  2  7  2       -2 0.370023847793D-04 0.100000000000D+01
0.134156341028D-04 0.000000000000D+00 0.000000000000D+00 0.748587882326D-06 0.000000000000D+00  7 2 -2 23 -13 13 23 21 2 0.36978808D+00 0.12751137D-01 0.18102258D+06 0.18102258D+06 0.18102258D+06 0.11011663D+01  1  2 12  2  7  2       -2 0.354818766834D-03 0.100000000000D+01
-.980459644850D-05 0.000000000000D+00 0.000000000000D+00 0.748587882326D-06 0.000000000000D+00  7 2 -2 23 -13 13 23 21 2 0.36978808D+00 0.11251447D-01 0.14705421D+06 0.14705421D+06 0.14705421D+06 0.11082323D+01  1  2  4  2  7  2       -2 -.322219965979D-03 0.100000000000D+01
0.263621966911D-06 0.000000000000D+00 0.000000000000D+00 0.748587882326D-06 0.000000000000D+00  7 2 21 23 -13 13 23 2 2 0.36978808D+00 0.12751137D-01 0.18102258D+06 0.18102258D+06 0.18102258D+06 0.11011663D+01  1  2 12  4  7  2       -2 0.961273679293D-04 0.100000000000D+01
  </mgrwgt>
  </event>
  <event>
  8     66 0.29152272E-05 0.28612820E+03 0.75467711E-02 0.91038928E-01
        2 -1    0    0  501    0 0.00000000E+00 0.00000000E+00 0.11084570E+04 0.11084571E+04 0.32000000E+00 0.0000E+00 0.9000E+01
       -2 -1    0    0    0  501 0.00000000E+00 0.00000000E+00 -.78065428E+02 0.78066084E+02 0.32000000E+00 0.0000E+00 0.9000E+01
       25  2    1    2    0    0 0.20488660E+03 0.10403833E+02 0.60545994E+03 0.70593089E+03 0.29944937E+03 0.0000E+00 0.0000E+00
       23  2    3    3    0    0 0.24012275E+03 -.21198230E+02 0.46870192E+03 0.53488036E+03 0.91143905E+02 0.0000E+00 0.0000E+00
       23  1    1    2    0    0 -.20488660E+03 -.10403833E+02 0.42493164E+03 0.48059225E+03 0.91188000E+02 0.0000E+00 0.9000E+01
      -11  1    4    4    0    0 0.12567492E+02 0.90061124E+01 0.31031063E+01 0.15769629E+02 0.51099893E-03 0.0000E+00 0.9000E+01
       11  1    4    4    0    0 0.22755526E+03 -.30204342E+02 0.46559882E+03 0.51911073E+03 0.51099893E-03 0.0000E+00 0.9000E+01
       23  1    3    3    0    0 -.35236150E+02 0.31602063E+02 0.13675802E+03 0.17105053E+03 0.91188000E+02 0.0000E+00 0.9000E+01
#aMCatNLO 1  0  0  2  1 0.57603926D+03 0.00000000D+00  -5  7  0 0.00000000D+00 0.00000000D+00 0.00000000D+00 0.00000000D+00 0.00000000D+00
  <mgrwgt>
 0.5415111345D-03    5    2    0
 0.294164218967733D+03 0.000000000000000D+00 0.000000000000000D+00 0.294164218967733D+03
 0.294164218967733D+03 0.000000000000000D+00 0.000000000000000D+00 -.294164218967733D+03
 0.225023693002635D+03 -.204886598834769D+03 -.104038328385878D+02 0.152857106060314D+02
 0.263689700153842D+02 0.125674923207086D+02 0.900611244619622D+01 -.213604928559158D+02
 0.231482602717059D+03 0.227555256253246D+03 -.302043422409814D+02 0.298412201823733D+02
 0.105453172200389D+03 -.352361497391863D+02 0.316020626333729D+02 -.237664379324888D+02
 0.000000000000000D+00 -.000000000000000D+00 0.000000000000000D+00 -.000000000000000D+00
 0.577306525264715D+03 0.000000000000000D+00 0.000000000000000D+00 0.577306525264715D+03
 0.912574146240671D+03 0.000000000000000D+00 0.000000000000000D+00 -.912574146240671D+03
 0.134559555776394D+03 -.700295188573052D+02 -.682146336692019D+02 0.152857106060314D+02
 0.447392078721134D+02 0.392357013237339D+02 -.242606834431716D+01 -.213604928559158D+02
 0.540396070738850D+03 0.517038440891553D+03 -.154300568658859D+03 0.298412201823733D+02
 0.103683317788764D+03 0.431978052696712D+02 -.202116094622824D+01 -.237664379324888D+02
 0.666502519329264D+03 -.529442428627653D+03 0.226962431618606D+03 -.335267620975956D+03
0.391688718462D-05 0.000000000000D+00 0.000000000000D+00 0.210048818737D-06 0.000000000000D+00  7 2 -2 23 -11 11 23 21 0 0.17053190D+00 0.12010120D-01 0.81869346D+05 0.81869346D+05 0.81869346D+05 0.11289219D+01  1  2  2  2  7  2       -2 0.488832924742D-03 0.100000000000D+01
-.217401863351D-06 0.000000000000D+00 -.150418781290D-07 0.210048818737D-06 0.000000000000D+00  7 2 -2 23 -11 11 23 21 2 0.17053190D+00 0.12010120D-01 0.81869346D+05 0.81869346D+05 0.81869346D+05 0.11289219D+01  1  2  3  2  7  2       -2 -.345788442656D-04 0.100000000000D+01
0.254909993525D-06 0.000000000000D+00 0.000000000000D+00 0.210048818737D-06 0.000000000000D+00  7 2 -2 23 -11 11 23 21 2 0.17053190D+00 0.12010120D-01 0.81869346D+05 0.81869346D+05 0.81869346D+05 0.11289219D+01  1  2 15  2  7  2       -2 0.405446983388D-04 0.100000000000D+01
0.278822121762D-05 0.000000000000D+00 -.192218778063D-05 0.210048818737D-06 0.000000000000D+00  7 2 -2 23 -11 11 23 21 2 0.17053190D+00 0.74474142D-01 0.81869346D+05 0.81869346D+05 0.81869346D+05 0.11289219D+01  1  2  5  2  7  2       -2 0.168650059452D-04 0.100000000000D+01
0.488195609108D-06 0.000000000000D+00 -.429848982575D-06 0.210048818737D-06 0.000000000000D+00  7 2 21 23 -11 11 23 2 2 0.17053190D+00 0.74474142D-01 0.81869346D+05 0.81869346D+05 0.81869346D+05 0.11289219D+01  1  2  5  4  7  2       -2 0.298473497068D-04 0.100000000000D+01
  </mgrwgt>
  </event>
  <event>
  8     66 0.29152272E-05 0.20299646E+03 0.75467711E-02 0.10455220E+00
        2 -1    0    0  501    0 0.00000000E+00 0.00000000E+00 0.88434990E+03 0.88434996E+03 0.32000000E+00 0.0000E+00 0.9000E+01
       -2 -1    0    0    0  501 0.00000000E+00 0.00000000E+00 -.50014435E+02 0.50015458E+02 0.32000000E+00 0.0000E+00 0.9000E+01
       25  2    1    2    0    0 0.11444769E+02 0.61104282E+02 0.66470613E+03 0.73199427E+03 0.30019438E+03 0.0000E+00 0.0000E+00
       23  2    3    3    0    0 -.55013685E+01 -.84684358E+02 0.18556607E+03 0.22264965E+03 0.89086447E+02 0.0000E+00 0.0000E+00
       23  1    1    2    0    0 -.11444769E+02 -.61104282E+02 0.16962934E+03 0.20237115E+03 0.91188000E+02 0.0000E+00 0.9000E+01
      -13  1    4    4    0    0 0.36857158E+02 -.12088824E+02 0.64577290E+02 0.75331450E+02 0.10565837E+00 0.0000E+00 0.9000E+01
       13  1    4    4    0    0 -.42358526E+02 -.72595534E+02 0.12098878E+03 0.14731820E+03 0.10565837E+00 0.0000E+00 0.9000E+01
       23  1    3    3    0    0 0.16946138E+02 0.14578864E+03 0.47914006E+03 0.50934462E+03 0.91188000E+02 0.0000E+00 0.9000E+01
#aMCatNLO 1  0  0  2  2 0.44898608D+02 0.00000000D+00  -5  7  0 0.00000000D+00 0.00000000D+00 0.00000000D+00 0.00000000D+00 0.00000000D+00
  <mgrwgt>
 0.1213790531D-02    4    2    0
 0.210311116863485D+03 0.000000000000000D+00 0.000000000000000D+00 0.210311116863485D+03
 0.210311116863485D+03 0.000000000000000D+00 0.000000000000000D+00 -.210311116863485D+03
 0.113072575006076D+03 -.114447792729876D+02 -.611043337402209D+02 -.246055542522595D+02
 0.392464920888685D+02 0.368572681682165D+02 -.120887261095365D+02 -.597424685683493D+01
 0.872607612954531D+02 -.423586303776233D+02 -.725955861265383D+02 -.234535236017594D+02
 0.181042405336572D+03 0.169461414823944D+02 0.145788645976296D+03 0.540333247108538D+02
 0.000000000000000D+00 -.000000000000000D+00 -.000000000000000D+00 0.000000000000000D+00
 0.275730676036429D+03 0.000000000000000D+00 0.000000000000000D+00 0.275730676036429D+03
 0.219352868366015D+03 0.000000000000000D+00 0.000000000000000D+00 -.219352868366015D+03
 0.107080477045510D+03 -.904797448432328D+01 -.496354518259288D+02 -.246055542522595D+02
 0.390111549270472D+02 0.377092586419774D+02 -.801189090715385D+01 -.597424685683493D+01
 0.792463231701001D+02 -.405458688752297D+02 -.639213930057406D+02 -.234535236017594D+02
 0.197673804166952D+03 0.210692222937843D+02 0.165517881820850D+03 0.540333247108538D+02
 0.720717850928353D+02 -.918463757620874D+01 -.439491460820271D+02 0.563778076704139D+02
0.418915317145D-05 0.000000000000D+00 0.000000000000D+00 0.276539854149D-07 0.000000000000D+00  7 2 -2 23 -13 13 23 21 0 0.13605391D+00 0.76946116D-02 0.41207563D+05 0.41207563D+05 0.41207563D+05 0.11547575D+01  1  2  2  2  7  2       -2 0.140657986376D-02 0.100000000000D+01
-.232376141405D-06 0.000000000000D+00 -.160874512077D-07 0.276539854149D-07 0.000000000000D+00  7 2 -2 23 -13 13 23 21 2 0.13605391D+00 0.76946116D-02 0.41207563D+05 0.41207563D+05 0.41207563D+05 0.11547575D+01  1  2  3  2  7  2       -2 -.104042616102D-03 0.100000000000D+01
0.263713712447D-06 0.000000000000D+00 0.000000000000D+00 0.276539854149D-07 0.000000000000D+00  7 2 -2 23 -13 13 23 21 2 0.13605391D+00 0.76946116D-02 0.41207563D+05 0.41207563D+05 0.41207563D+05 0.11547575D+01  1  2 15  2  7  2       -2 0.118073500915D-03 0.100000000000D+01
-.461926910326D-06 0.000000000000D+00 0.000000000000D+00 0.276539854149D-07 0.000000000000D+00  7 2 -2 23 -13 13 23 21 2 0.13605391D+00 0.76946116D-02 0.41207563D+05 0.41207563D+05 0.41207563D+05 0.11547575D+01  1  2  4  2  7  2       -2 -.206820217891D-03 0.100000000000D+01
  </mgrwgt>
  </event>
  <event>
  8     66 0.29152272E-05 0.63584031E+02 0.75467711E-02 0.10190592E+00
        2 -1    0    0  501    0 0.00000000E+00 0.00000000E+00 0.15424912E+04 0.15424912E+04 0.32000000E+00 0.0000E+00 0.9000E+01
       -2 -1    0    0    0  501 0.00000000E+00 0.00000000E+00 -.10993189E+03 0.10993236E+03 0.32000000E+00 0.0000E+00 0.9000E+01
       25  2    1    2    0    0 0.76548204E+02 -.47351606E+02 0.12221765E+03 0.33583242E+03 0.29957380E+03 0.0000E+00 0.0000E+00
       23  2    3    3    0    0 -.82254648E+02 0.41630369E+01 0.48031529E+02 0.13164884E+03 0.90781223E+02 0.0000E+00 0.0000E+00
       23  1    1    2    0    0 -.76548204E+02 0.47351606E+02 0.13103416E+04 0.13165911E+04 0.91188000E+02 0.0000E+00 0.9000E+01
      -13  1    4    4    0    0 -.28733638E+02 0.16974111E+02 -.23922764E+02 0.41061566E+02 0.10565837E+00 0.0000E+00 0.9000E+01
       13  1    4    4    0    0 -.53521010E+02 -.12811074E+02 0.71954293E+02 0.90587270E+02 0.10565837E+00 0.0000E+00 0.9000E+01
       23  1    3    3    0    0 0.15880285E+03 -.51514643E+02 0.74186124E+02 0.20418359E+03 0.91188000E+02 0.0000E+00 0.9000E+01
#aMCatNLO 1  0  0  2  1 0.11623899D+03 0.00000000D+00  -5  7  0 0.00000000D+00 0.00000000D+00 0.00000000D+00 0.00000000D+00 0.00000000D+00
  <mgrwgt>
 0.2782597734D-03    9    2    0
 0.411788035521507D+03 0.000000000000000D+00 0.000000000000000D+00 0.411788035521507D+03
 0.411788035521507D+03 0.000000000000000D+00 0.000000000000000D+00 -.411788035521507D+03
 0.362351674901202D+03 -.765482044734333D+02 0.473516064594214D+02 0.338942004946735D+03
 0.123998202610297D+03 -.287336045606688D+02 0.169741514996855D+02 -.119422830314815D+03
 0.565942556238224D+02 -.535210431153070D+02 -.128111146399629D+02 -.132016307759964D+02
 0.280631937907691D+03 0.158802852149409D+03 -.515146433191440D+02 -.206317543855923D+03
 0.000000000000000D+00 -.000000000000000D+00 -.000000000000000D+00 -.000000000000000D+00
 0.448229830746306D+03 0.000000000000000D+00 0.000000000000000D+00 0.448229830746306D+03
 0.520251823315565D+03 0.000000000000000D+00 0.000000000000000D+00 -.520251823315565D+03
 0.370939800334088D+03 -.688672970911054D+02 0.982684934348065D+02 0.338942004946735D+03
 0.126991145933640D+03 -.261046009444762D+02 0.344018684763987D+02 -.119422830314815D+03
 0.542404649218774D+02 -.523600979086488D+02 -.511518590008087D+01 -.132016307759964D+02
 0.279567158600844D+03 0.164670692593845D+03 -.126166129397705D+02 -.206317543855923D+03
 0.136743084271422D+03 -.173386966496148D+02 -.114938563071354D+03 -.720219925692585D+02
0.945812339537D-05 0.000000000000D+00 0.000000000000D+00 0.688300780854D-06 0.000000000000D+00  7 2 -2 23 -13 13 23 21 0 0.23730637D+00 0.16912637D-01 0.41364345D+05 0.41364345D+05 0.41364345D+05 0.11546095D+01  1  2  2  2  7  2       -2 0.400109271325D-03 0.100000000000D+01
-.207536088010D-06 0.000000000000D+00 -.363216842193D-07 0.688300780854D-06 0.000000000000D+00  7 2 -2 23 -13 13 23 21 2 0.23730637D+00 0.16912637D-01 0.41364345D+05 0.41364345D+05 0.41364345D+05 0.11546095D+01  1  2  3  2  7  2       -2 -.117040868549D-04 0.100000000000D+01
0.572606095028D-06 0.000000000000D+00 0.000000000000D+00 0.688300780854D-06 0.000000000000D+00  7 2 -2 23 -13 13 23 21 2 0.23730637D+00 0.16912637D-01 0.41364345D+05 0.41364345D+05 0.41364345D+05 0.11546095D+01  1  2 15  2  7  2       -2 0.322923667595D-04 0.100000000000D+01
0.432697704800D-05 0.000000000000D+00 0.000000000000D+00 0.688300780854D-06 0.000000000000D+00  7 2 -2 23 -13 13 23 21 2 0.23730637D+00 0.21966356D-01 0.76011185D+05 0.76011185D+05 0.76011185D+05 0.11316305D+01  1  2 12  2  7  2       -2 0.150726269308D-03 0.100000000000D+01
-.938995552362D-05 0.000000000000D+00 0.000000000000D+00 0.688300780854D-06 0.000000000000D+00  7 2 -2 23 -13 13 23 21 2 0.23730637D+00 0.16912637D-01 0.41364345D+05 0.41364345D+05 0.41364345D+05 0.11546095D+01  1  2  4  2  7  2       -2 -.529550576316D-03 0.100000000000D+01
-.936917832531D-05 0.000000000000D+00 -.467313056648D-05 0.688300780854D-06 0.000000000000D+00  7 2 -2 23 -13 13 23 21 2 0.23730637D+00 0.23297501D-01 0.41364345D+05 0.41364345D+05 0.41364345D+05 0.11546095D+01  1  2  5  2  7  2       -2 -.313083971580D-03 0.100000000000D+01
0.105500034748D-04 0.000000000000D+00 0.444327461128D-05 0.688300780854D-06 0.000000000000D+00  7 2 -2 23 -13 13 23 21 2 0.23730637D+00 0.16912637D-01 0.41364345D+05 0.41364345D+05 0.41364345D+05 0.11546095D+01  1  2  6  2  7  2       -2 0.594971978956D-03 0.100000000000D+01
0.151341540294D-06 0.000000000000D+00 0.000000000000D+00 0.688300780854D-06 0.000000000000D+00  7 2 21 23 -13 13 23 2 2 0.23730637D+00 0.21966356D-01 0.76011185D+05 0.76011185D+05 0.76011185D+05 0.11316305D+01  1  2 12  4  7  2       -2 0.669027133273D-04 0.100000000000D+01
-.263838321819D-06 0.000000000000D+00 -.189370849648D-06 0.688300780854D-06 0.000000000000D+00  7 2 21 23 -13 13 23 2 2 0.23730637D+00 0.23297501D-01 0.41364345D+05 0.41364345D+05 0.41364345D+05 0.11546095D+01  1  2  5  4  7  2       -2 -.112404191564D-03 0.100000000000D+01
  </mgrwgt>
  </event>
  <event>
  8     66 0.29152272E-05 0.25846968E+03 0.75467711E-02 0.84247507E-01
        2 -1    0    0  501    0 0.00000000E+00 0.00000000E+00 0.12362858E+04 0.12362859E+04 0.32000000E+00 0.0000E+00 0.9000E+01
       -2 -1    0    0    0  501 0.00000000E+00 0.00000000E+00 -.71189300E+02 0.71190019E+02 0.32000000E+00 0.0000E+00 0.9000E+01
       25  2    1    2    0    0 0.19098940E+03 0.67957664E+02 0.81960735E+03 0.89665571E+03 0.30189413E+03 0.0000E+00 0.0000E+00
       23  2    3    3    0    0 0.25544314E+02 0.67215652E+02 0.10017784E+03 0.15283672E+03 0.90294004E+02 0.0000E+00 0.0000E+00
       23  1    1    2    0    0 -.19098940E+03 -.67957664E+02 0.34548918E+03 0.41082018E+03 0.91188000E+02 0.0000E+00 0.9000E+01
      -13  1    4    4    0    0 -.14736830E+02 -.10576710E+02 0.46946353E+02 0.50329039E+02 0.10565837E+00 0.0000E+00 0.9000E+01
       13  1    4    4    0    0 0.40281144E+02 0.77792361E+02 0.53231489E+02 0.10250768E+03 0.10565837E+00 0.0000E+00 0.9000E+01
       23  1    3    3    0    0 0.16544508E+03 0.74201240E+00 0.71942951E+03 0.74381899E+03 0.91188000E+02 0.0000E+00 0.9000E+01
#aMCatNLO 1  0  0  2  1 0.13556161D+04 0.00000000D+00  -5  7  0 0.00000000D+00 0.00000000D+00 0.00000000D+00 0.00000000D+00 0.00000000D+00
  <mgrwgt>
 0.7024655819D-03    5    2    0
 0.296666175999429D+03 0.000000000000000D+00 0.000000000000000D+00 0.296666175999429D+03
 0.296666175999429D+03 0.000000000000000D+00 0.000000000000000D+00 -.296666175999429D+03
 0.226869877524709D+03 -.190989405240323D+03 -.679576671473960D+02 -.453816322525722D+02
 0.187195051492625D+02 -.147369028169959D+02 -.105768309925459D+02 0.462322555698994D+01
 0.121359604179231D+03 0.402812249489540D+02 0.777924804408218D+02 -.839875373493928D+02
 0.226383365145657D+03 0.165445083108365D+03 0.742017699120126D+00 0.124745944044975D+03
 0.000000000000000D+00 0.000000000000000D+00 -.000000000000000D+00 -.000000000000000D+00
 0.118253983449871D+04 0.000000000000000D+00 0.000000000000000D+00 0.118253983449871D+04
 0.177777834931866D+04 0.000000000000000D+00 0.000000000000000D+00 -.177777834931866D+04
 0.697325359479031D+03 -.546907740145676D+03 0.420451943569538D+03 -.453816322525722D+02
 0.469864522875146D+02 -.400410312391217D+02 0.241468072697771D+02 0.462322555698994D+01
 0.392112465255270D+03 -.157462841084134D+03 0.349147150434115D+03 -.839875373493928D+02
 0.343352151697322D+03 -.539666909109517D+02 0.301830241108526D+03 0.124745944044975D+03
 0.148054175509822D+04 0.798378303379884D+03 -.109557614238196D+04 -.595238514819951D+03
0.563804977681D-05 0.000000000000D+00 0.000000000000D+00 0.422848615223D-07 0.000000000000D+00  7 2 -2 23 -13 13 23 21 0 0.19019788D+00 0.10952258D-01 0.66806576D+05 0.66806576D+05 0.66806576D+05 0.11363876D+01  1  2  2  2  7  2       -2 0.687442898601D-03 0.100000000000D+01
-.305990298432D-06 0.000000000000D+00 -.216515956755D-07 0.422848615223D-07 0.000000000000D+00  7 2 -2 23 -13 13 23 21 2 0.19019788D+00 0.10952258D-01 0.66806576D+05 0.66806576D+05 0.66806576D+05 0.11363876D+01  1  2  3  2  7  2       -2 -.481801698716D-04 0.100000000000D+01
0.368548951776D-06 0.000000000000D+00 0.000000000000D+00 0.422848615223D-07 0.000000000000D+00  7 2 -2 23 -13 13 23 21 2 0.19019788D+00 0.10952258D-01 0.66806576D+05 0.66806576D+05 0.66806576D+05 0.11363876D+01  1  2 15  2  7  2       -2 0.580304381987D-04 0.100000000000D+01
0.525591851404D-04 0.000000000000D+00 -.128231973091D-04 0.422848615223D-07 0.000000000000D+00  7 2 -2 23 -13 13 23 21 2 0.19019788D+00 0.37300833D+00 0.66806576D+05 0.66806576D+05 0.66806576D+05 0.11363876D+01  1  2  5  2  7  2       -2 0.168524051598D-05 0.100000000000D+01
0.141511542016D-04 0.000000000000D+00 -.439766840801D-05 0.422848615223D-07 0.000000000000D+00  7 2 21 23 -13 13 23 2 2 0.19019788D+00 0.37300833D+00 0.66806576D+05 0.66806576D+05 0.66806576D+05 0.11363876D+01  1  2  5  4  7  2       -2 0.348717449278D-05 0.100000000000D+01
  </mgrwgt>
  </event>
  <event>
  8     66 0.29152272E-05 0.16613871E+03 0.75467711E-02 0.96917873E-01
        2 -1    0    0  501    0 0.00000000E+00 0.00000000E+00 0.48047044E+03 0.48047055E+03 0.32000000E+00 0.0000E+00 0.9000E+01
       -2 -1    0    0    0  501 0.00000000E+00 0.00000000E+00 -.34927233E+03 0.34927247E+03 0.32000000E+00 0.0000E+00 0.9000E+01
       25  2    1    2    0    0 0.17614890E+03 0.29459434E+03 0.12911788E+02 0.45541540E+03 0.29903548E+03 0.0000E+00 0.0000E+00
       23  2    3    3    0    0 0.61071276E+02 0.13068892E+03 -.10585103E+03 0.20536001E+03 0.10079185E+03 0.0000E+00 0.0000E+00
       23  1    1    2    0    0 -.17614890E+03 -.29459434E+03 0.11828633E+03 0.37432762E+03 0.91188000E+02 0.0000E+00 0.9000E+01
      -11  1    4    4    0    0 0.59455370E+02 0.14698680E+03 -.88850511E+02 0.18175388E+03 0.51099893E-03 0.0000E+00 0.9000E+01
       11  1    4    4    0    0 0.16159067E+01 -.16297873E+02 -.17000514E+02 0.23606128E+02 0.51099893E-03 0.0000E+00 0.9000E+01
       23  1    3    3    0    0 0.11507763E+03 0.16390541E+03 0.11876281E+03 0.25005540E+03 0.91188000E+02 0.0000E+00 0.9000E+01
#aMCatNLO 1  0  0  1  2 0.67018301D+02 0.00000000D+00  -5  7  0 0.00000000D+00 0.00000000D+00 0.00000000D+00 0.00000000D+00 0.00000000D+00
  <mgrwgt>
 0.4225937306D-03    9    2    0
 0.409652456194172D+03 0.000000000000000D+00 0.000000000000000D+00 0.409652456194172D+03
 0.409652456194172D+03 0.000000000000000D+00 0.000000000000000D+00 -.409652456194172D+03
 0.360155031733963D+03 -.176148903603015D+03 -.294594336469104D+03 0.598509500265085D+02
 0.198297398445416D+03 0.594553695963502D+02 0.146986795670093D+03 -.119087359341871D+03
 0.266292258292103D+02 0.161590673867053D+01 -.162978727189398D+02 -.209972345443926D+02
 0.234223256379754D+03 0.115077627267994D+03 0.163905413517951D+03 0.802336438597548D+02
 0.000000000000000D+00 -.000000000000000D+00 0.000000000000000D+00 0.000000000000000D+00
 0.454673581643334D+03 0.000000000000000D+00 0.000000000000000D+00 0.454673581643334D+03
 0.436743209943310D+03 0.000000000000000D+00 0.000000000000000D+00 -.436743209943310D+03
 0.354671771182184D+03 -.148251887102171D+03 -.303176608070407D+03 0.598509500265085D+02
 0.200072728514814D+03 0.750022656555295D+02 0.142203929927692D+03 -.119087359341871D+03
 0.272365033994780D+02 0.371808468022567D+01 -.169445892611244D+02 -.209972345443926D+02
 0.240060353645538D+03 0.133587142637282D+03 0.158211124019183D+03 0.802336438597548D+02
 0.693754348446295D+02 -.640556058708664D+02 0.197061433846561D+02 0.179303717000245D+02
0.959594976266D-05 0.000000000000D+00 0.000000000000D+00 0.294822949375D-08 0.000000000000D+00  7 2 -2 23 -11 11 23 21 0 0.73918549D-01 0.53734224D-01 0.14067511D+06 0.14067511D+06 0.14067511D+06 0.11097583D+01  1  2  2  1  7  1        2 0.251080057148D-03 0.100000000000D+01
-.528065387467D-06 0.000000000000D+00 -.368509737602D-07 0.294822949375D-08 0.000000000000D+00  7 2 -2 23 -11 11 23 21 2 0.73918549D-01 0.53734224D-01 0.14067511D+06 0.14067511D+06 0.14067511D+06 0.11097583D+01  1  2  3  1  7  1        2 -.170164417563D-04 0.100000000000D+01
0.623092844612D-06 0.000000000000D+00 0.000000000000D+00 0.294822949375D-08 0.000000000000D+00  7 2 -2 23 -11 11 23 21 2 0.73918549D-01 0.53734224D-01 0.14067511D+06 0.14067511D+06 0.14067511D+06 0.11097583D+01  1  2 15  1  7  1        2 0.200786178203D-04 0.100000000000D+01
0.133799960934D-04 0.000000000000D+00 0.000000000000D+00 0.294822949375D-08 0.000000000000D+00  7 2 -2 23 -11 11 23 21 2 0.84268516D-01 0.53734224D-01 0.16850114D+06 0.16850114D+06 0.16850114D+06 0.11035877D+01  1  2 12  1  7  1        2 0.366617327908D-03 0.100000000000D+01
-.122754420544D-04 0.000000000000D+00 0.000000000000D+00 0.294822949375D-08 0.000000000000D+00  7 2 -2 23 -11 11 23 21 2 0.73918549D-01 0.53734224D-01 0.14067511D+06 0.14067511D+06 0.14067511D+06 0.11097583D+01  1  2  4  1  7  1        2 -.395565302532D-03 0.100000000000D+01
-.359180526742D-04 0.000000000000D+00 -.866998237645D-05 0.294822949375D-08 0.000000000000D+00  7 2 -2 23 -11 11 23 21 2 0.86427444D-01 0.53734224D-01 0.14067511D+06 0.14067511D+06 0.14067511D+06 0.11097583D+01  1  2  5  1  7  1        2 -.970144630059D-03 0.100000000000D+01
0.369262132905D-04 0.000000000000D+00 0.856509220212D-05 0.294822949375D-08 0.000000000000D+00  7 2 -2 23 -11 11 23 21 2 0.73918549D-01 0.53734224D-01 0.14067511D+06 0.14067511D+06 0.14067511D+06 0.11097583D+01  1  2  6  1  7  1        2 0.118991468225D-02 0.100000000000D+01
0.273232670788D-06 0.000000000000D+00 0.000000000000D+00 0.294822949375D-08 0.000000000000D+00  7 21 -2 23 -11 11 23 -2 2 0.84268516D-01 0.53734224D-01 0.16850114D+06 0.16850114D+06 0.16850114D+06 0.11035877D+01  1  2 12  3  7  1        2 0.127797840804D-04 0.100000000000D+01
-.782339787152D-06 0.000000000000D+00 -.204486472250D-06 0.294822949375D-08 0.000000000000D+00  7 21 -2 23 -11 11 23 -2 2 0.86427444D-01 0.53734224D-01 0.14067511D+06 0.14067511D+06 0.14067511D+06 0.11097583D+01  1  2  5  3  7  1        2 -.351503642690D-04 0.100000000000D+01
  </mgrwgt>
  </event>
  <event>
  9     66 0.29152272E-05 0.24231132E+03 0.75467711E-02 0.10261356E+00
        2 -1    0    0  501    0 0.00000000E+00 0.00000000E+00 0.28189228E+03 0.28189246E+03 0.32000000E+00 0.0000E+00 0.9000E+01
       21 -1    0    0  502  501 0.00000000E+00 0.00000000E+00 -.35928507E+03 0.35928586E+03 0.75000000E+00 0.0000E+00 0.9000E+01
       25  2    1    2    0    0 -.16117517E+03 -.21236886E+02 -.46941308E+02 0.34508756E+03 0.30075488E+03 0.0000E+00 0.0000E+00
       23  2    3    3    0    0 -.19717557E+02 0.92352153E+02 0.16994972E+02 0.13221242E+03 0.90959293E+02 0.0000E+00 0.0000E+00
       23  1    1    2    0    0 0.13282345E+03 -.20116869E+01 -.11896398E+03 0.20028429E+03 0.91188000E+02 0.0000E+00 0.9000E+01
      -11  1    4    4    0    0 0.17608407E+02 0.81077259E+02 -.11716208E+02 0.83790498E+02 0.51099893E-03 0.0000E+00 0.9000E+01
       11  1    4    4    0    0 -.37325964E+02 0.11274894E+02 0.28711181E+02 0.48421924E+02 0.51099893E-03 0.0000E+00 0.9000E+01
       23  1    3    3    0    0 -.14145761E+03 -.11358904E+03 -.63936281E+02 0.21287514E+03 0.91188000E+02 0.0000E+00 0.9000E+01
        2  1    1    2  502    0 0.28351718E+02 0.23248573E+02 0.88512497E+02 0.95806474E+02 0.32000000E+00 0.0000E+00 0.9000E+01
#aMCatNLO 2  0  0  2  1 0.36664916D+02 0.00000000D+00  -5  7  0 0.00000000D+00 0.00000000D+00 0.00000000D+00 0.00000000D+00 0.00000000D+00
  <mgrwgt>
 0.6836952954D-04    1    2    0
 0.259114631999460D+03 0.000000000000000D+00 0.000000000000000D+00 0.259114631999460D+03
 0.259114631999460D+03 0.000000000000000D+00 0.000000000000000D+00 -.259114631999460D+03
 0.179865685395251D+03 0.142443582962844D+03 0.587687876521068D+01 -.609237343519727D+02
 0.890288525465629D+02 0.223415507688994D+02 0.849584648118406D+02 0.144585943927325D+02
 0.586133641712462D+02 -.340854244976420D+02 0.139321548287937D+02 0.456026902508305D+02
 0.190721361885859D+03 -.130699709234101D+03 -.104767498405845D+03 0.862449708409709D+00
 0.000000000000000D+00 0.000000000000000D+00 0.000000000000000D+00 0.000000000000000D+00
 0.385936872312132D+03 0.000000000000000D+00 0.000000000000000D+00 0.385936872312132D+03
 0.262425940738221D+03 0.000000000000000D+00 0.000000000000000D+00 -.262425940738221D+03
 0.172258724743832D+03 0.132823449039078D+03 -.201168694014732D+01 -.609237343519727D+02
 0.842177471139994D+02 0.176084069067245D+02 0.810772593478048D+02 0.144585943927325D+02
 0.599996346009352D+02 -.373259636378772D+02 0.112748939079892D+02 0.456026902508305D+02
 0.203048566789924D+03 -.141457609964462D+03 -.113589039502431D+03 0.862449708409709D+00
 0.128838139801663D+03 0.283517176565369D+02 0.232485731867843D+02 0.123510931573912D+03
0.110875885162D-06 0.000000000000D+00 0.000000000000D+00 0.852738712487D-07 0.132746514073D-11  7 2 21 23 -11 11 23 2 2 0.43368085D-01 0.55274660D-01 0.68328907D+05 0.68328907D+05 0.68328907D+05 0.11355528D+01  1  2  1  4  7  2       -2 0.683695295446D-04 0.100000000000D+01
  </mgrwgt>
  </event>
  <event>
  8     66 0.29152272E-05 0.56096712E+03 0.75467711E-02 0.85509399E-01
        2 -1    0    0  501    0 0.00000000E+00 0.00000000E+00 0.96310201E+03 0.96310207E+03 0.32000000E+00 0.0000E+00 0.9000E+01
       -2 -1    0    0    0  501 0.00000000E+00 0.00000000E+00 -.39843850E+03 0.39843863E+03 0.32000000E+00 0.0000E+00 0.9000E+01
       25  2    1    2    0    0 -.18072913E+03 -.48487531E+03 0.58340457E+03 0.83577120E+03 0.30064186E+03 0.0000E+00 0.0000E+00
       23  2    3    3    0    0 -.21079240E+03 -.22948101E+03 0.34612439E+03 0.47418140E+03 0.89168038E+02 0.0000E+00 0.0000E+00
       23  1    1    2    0    0 0.18072913E+03 0.48487531E+03 -.18741055E+02 0.52576950E+03 0.91188000E+02 0.0000E+00 0.9000E+01
      -13  1    4    4    0    0 -.11962590E+03 -.66399732E+02 0.15881049E+03 0.20961886E+03 0.10565837E+00 0.0000E+00 0.9000E+01
       13  1    4    4    0    0 -.91166493E+02 -.16308128E+03 0.18731390E+03 0.26456254E+03 0.10565837E+00 0.0000E+00 0.9000E+01
       23  1    3    3    0    0 0.30063266E+02 -.25539430E+03 0.23728018E+03 0.36158980E+03 0.91188000E+02 0.0000E+00 0.9000E+01
#aMCatNLO 1  0  0  2  1 0.99697825D+03 0.00000000D+00  -5  7  0 0.00000000D+00 0.00000000D+00 0.00000000D+00 0.00000000D+00 0.00000000D+00
  <mgrwgt>
 0.4243537061D-03    5    2    0
 0.619465130903680D+03 0.000000000000000D+00 0.000000000000000D+00 0.619465130903680D+03
 0.619465130903680D+03 0.000000000000000D+00 0.000000000000000D+00 -.619465130903680D+03
 0.586343705051320D+03 0.180729130858154D+03 0.484875311921842D+03 -.260224138498453D+03
 0.157983090267727D+03 -.119625943836657D+03 -.663995960299277D+02 0.789897716086849D+02
 0.205373488863501D+03 -.911664532769697D+02 -.163081412015107D+03 0.852725089347297D+02
 0.289229977624812D+03 0.300632662554731D+02 -.255394303876807D+03 0.959618579550380D+02
 0.000000000000000D+00 0.000000000000000D+00 0.000000000000000D+00 -.000000000000000D+00
 0.967683330893089D+03 0.000000000000000D+00 0.000000000000000D+00 0.967683330893089D+03
 0.223519549789836D+04 0.000000000000000D+00 0.000000000000000D+00 -.223519549789836D+04
 0.341480414568935D+03 0.116581550146423D+03 0.164273436983485D+03 -.260224138498453D+03
 0.274063144378728D+03 -.149496605874982D+03 -.215689563771231D+03 0.789897716086849D+02
 0.406687553132482D+03 -.133482916345437D+03 -.374573992872943D+03 0.852725089347297D+02
 0.568024785280783D+03 -.292053148593503D+02 -.551611527028817D+03 0.959618579550380D+02
 0.161262293143052D+04 0.195603286933347D+03 0.977601646689506D+03 -.126751216700527D+04
0.501363169866D-04 0.000000000000D+00 0.000000000000D+00 0.239081429785D-06 0.000000000000D+00  7 2 -2 23 -13 13 23 21 0 0.14816955D+00 0.61298245D-01 0.31468411D+06 0.31468411D+06 0.31468411D+06 0.10830198D+01  1  2  2  2  7  2       -2 0.419288968119D-03 0.100000000000D+01
-.275202877217D-05 0.000000000000D+00 -.192536658424D-06 0.239081429785D-06 0.000000000000D+00  7 2 -2 23 -13 13 23 21 2 0.14816955D+00 0.61298245D-01 0.31468411D+06 0.31468411D+06 0.31468411D+06 0.10830198D+01  1  2  3  2  7  2       -2 -.269952117599D-04 0.100000000000D+01
0.316065157185D-05 0.000000000000D+00 0.000000000000D+00 0.239081429785D-06 0.000000000000D+00  7 2 -2 23 -13 13 23 21 2 0.14816955D+00 0.61298245D-01 0.31468411D+06 0.31468411D+06 0.31468411D+06 0.10830198D+01  1  2 15  2  7  2       -2 0.310034761788D-04 0.100000000000D+01
0.385400680555D-05 0.000000000000D+00 -.189553893233D-04 0.239081429785D-06 0.000000000000D+00  7 2 -2 23 -13 13 23 21 2 0.14816955D+00 0.28162988D+00 0.31468411D+06 0.31468411D+06 0.31468411D+06 0.10830198D+01  1  2  5  2  7  2       -2 0.558020457760D-06 0.100000000000D+01
0.474031722223D-06 0.000000000000D+00 -.350133530801D-05 0.239081429785D-06 0.000000000000D+00  7 2 21 23 -13 13 23 2 2 0.14816955D+00 0.28162988D+00 0.31468411D+06 0.31468411D+06 0.31468411D+06 0.10830198D+01  1  2  5  4  7  2       -2 0.498453071464D-06 0.100000000000D+01
  </mgrwgt>
  </event>
  <event>
  8     66 0.29152272E-05 0.16094430E+03 0.75467711E-02 0.96742924E-01
        2 -1    0    0  501    0 0.00000000E+00 0.00000000E+00 0.85785398E+03 0.85785404E+03 0.32000000E+00 0.0000E+00 0.9000E+01
       -2 -1    0    0    0  501 0.00000000E+00 0.00000000E+00 -.22980633E+03 0.22980655E+03 0.32000000E+00 0.0000E+00 0.9000E+01
       25  2    1    2    0    0 0.26198974E+02 -.50891946E+02 -.12315101E+03 0.32878572E+03 0.29942863E+03 0.0000E+00 0.0000E+00
       23  2    3    3    0    0 0.18991287E+02 -.79329610E+02 -.17933815E+03 0.21773214E+03 0.92689027E+02 0.0000E+00 0.0000E+00
       23  1    1    2    0    0 -.26198974E+02 0.50891946E+02 0.75119867E+03 0.75887487E+03 0.91188000E+02 0.0000E+00 0.9000E+01
      -13  1    4    4    0    0 0.21748734E+00 0.18659920E+02 -.99602956E+01 0.21153216E+02 0.10565837E+00 0.0000E+00 0.9000E+01
       13  1    4    4    0    0 0.18773800E+02 -.97989530E+02 -.16937786E+03 0.19657892E+03 0.10565837E+00 0.0000E+00 0.9000E+01
       23  1    3    3    0    0 0.72076865E+01 0.28437664E+02 0.56187142E+02 0.11105358E+03 0.91188000E+02 0.0000E+00 0.9000E+01
#aMCatNLO 1  0  0  2  2 0.34065971D+03 0.00000000D+00  -5  7  0 0.00000000D+00 0.00000000D+00 0.00000000D+00 0.00000000D+00 0.00000000D+00
  <mgrwgt>
 0.8293850686D-03    5    2    0
 0.444004983336123D+03 0.000000000000000D+00 0.000000000000000D+00 0.444004983336123D+03
 0.444004983336123D+03 0.000000000000000D+00 0.000000000000000D+00 -.444004983336123D+03
 0.398204680283979D+03 -.261989737324309D+02 0.508919464671722D+02 0.383373629265519D+03
 0.329531008103895D+02 0.217463232672369D+00 0.186600713132163D+02 -.271599208641670D+02
 0.360569031978139D+03 0.187738240155190D+02 -.979896815791080D+02 -.346490393312011D+03
 0.962831535997378D+02 0.720768648423958D+01 0.284376637987196D+02 -.972331508934124D+01
 0.000000000000000D+00 0.000000000000000D+00 0.000000000000000D+00 -.000000000000000D+00
 0.556069804098562D+03 0.000000000000000D+00 0.000000000000000D+00 0.556069804098562D+03
 0.835890211677081D+03 0.000000000000000D+00 0.000000000000000D+00 -.835890211677081D+03
 0.421381627568716D+03 -.141258976787484D+03 -.481433959042993D+02 0.383373629265519D+03
 0.305616275204929D+02 -.869923628484282D+01 0.109852202260133D+02 -.271599208641670D+02
 0.405254556577116D+03 -.887385436198810D+02 -.190528564381369D+03 -.346490393312011D+03
 0.939124558417963D+02 -.194934762776617D+02 0.545523093213928D+01 -.972331508934124D+01
 0.440849748267522D+03 0.258190232969869D+03 0.222231509127516D+03 -.279820407578519D+03
0.218190537485D-04 0.000000000000D+00 0.000000000000D+00 0.429080596657D-06 0.000000000000D+00  7 2 -2 23 -13 13 23 21 0 0.13197756D+00 0.35354841D-01 0.25903068D+05 0.25903068D+05 0.25903068D+05 0.11732992D+01  1  2  2  2  7  2       -2 0.656127237836D-03 0.100000000000D+01
0.305532350810D-06 0.000000000000D+00 -.837909114829D-07 0.429080596657D-06 0.000000000000D+00  7 2 -2 23 -13 13 23 21 2 0.13197756D+00 0.35354841D-01 0.25903068D+05 0.25903068D+05 0.25903068D+05 0.11732992D+01  1  2  3  2  7  2       -2 0.126481479851D-04 0.100000000000D+01
0.133682336958D-05 0.000000000000D+00 0.000000000000D+00 0.429080596657D-06 0.000000000000D+00  7 2 -2 23 -13 13 23 21 2 0.13197756D+00 0.35354841D-01 0.25903068D+05 0.25903068D+05 0.25903068D+05 0.11732992D+01  1  2 15  2  7  2       -2 0.553405875468D-04 0.100000000000D+01
0.434109872912D-05 0.000000000000D+00 -.667835743888D-05 0.429080596657D-06 0.000000000000D+00  7 2 -2 23 -13 13 23 21 2 0.13197756D+00 0.80139285D-01 0.25903068D+05 0.25903068D+05 0.25903068D+05 0.11732992D+01  1  2  5  2  7  2       -2 0.358894752161D-04 0.100000000000D+01
0.808433833504D-06 0.000000000000D+00 -.593869902257D-06 0.429080596657D-06 0.000000000000D+00  7 2 21 23 -13 13 23 2 2 0.13197756D+00 0.80139285D-01 0.25903068D+05 0.25903068D+05 0.25903068D+05 0.11732992D+01  1  2  5  4  7  2       -2 0.693796200643D-04 0.100000000000D+01
  </mgrwgt>
  </event>
  <event>
  8     66 0.29152272E-05 0.25977371E+03 0.75467711E-02 0.98286171E-01
        2 -1    0    0  501    0 0.00000000E+00 0.00000000E+00 0.20837600E+04 0.20837601E+04 0.32000000E+00 0.0000E+00 0.9000E+01
       -2 -1    0    0    0  501 0.00000000E+00 0.00000000E+00 -.76543165E+02 0.76543834E+02 0.32000000E+00 0.0000E+00 0.9000E+01
       25  2    1    2    0    0 -.29405099E+03 0.52541712E+02 0.15481195E+04 0.16050451E+04 0.30044861E+03 0.0000E+00 0.0000E+00
       23  2    3    3    0    0 -.22355139E+03 0.86259029E+02 0.13432702E+04 0.13675888E+04 0.92240723E+02 0.0000E+00 0.0000E+00
       23  1    1    2    0    0 0.29405099E+03 -.52541712E+02 0.45909739E+03 0.55525875E+03 0.91188000E+02 0.0000E+00 0.9000E+01
      -13  1    4    4    0    0 -.20397680E+03 0.46052312E+02 0.11758489E+04 0.11942981E+04 0.10565837E+00 0.0000E+00 0.9000E+01
       13  1    4    4    0    0 -.19574590E+02 0.40206717E+02 0.16742133E+03 0.17329067E+03 0.10565837E+00 0.0000E+00 0.9000E+01
       23  1    3    3    0    0 -.70499602E+02 -.33717317E+02 0.20484925E+03 0.23745635E+03 0.91188000E+02 0.0000E+00 0.9000E+01
#aMCatNLO 1  0  0  1  2 0.47720868D+02 0.00000000D+00  -5  7  0 0.00000000D+00 0.00000000D+00 0.00000000D+00 0.00000000D+00 0.00000000D+00
  <mgrwgt>
 0.6743592574D-03    9    2    0
 0.399372429157764D+03 0.000000000000000D+00 0.000000000000000D+00 0.399372429157764D+03
 0.399372429157764D+03 0.000000000000000D+00 0.000000000000000D+00 -.399372429157764D+03
 0.348070618944392D+03 0.294050991057847D+03 -.525417124720913D+02 -.153659648368498D+03
 0.275261071376186D+03 -.203977041138579D+03 0.460523200489045D+02 0.179000580785733D+03
 0.479619492499260D+02 -.195743476856971D+02 0.402067089935002D+02 0.173382248354297D+02
 0.127451218745024D+03 -.704996022335705D+02 -.337173165703134D+02 -.426791572526648D+02
 0.000000000000000D+00 -.000000000000000D+00 0.000000000000000D+00 0.000000000000000D+00
 0.469410871735422D+03 0.000000000000000D+00 0.000000000000000D+00 0.469410871735422D+03
 0.408296745605352D+03 0.000000000000000D+00 0.000000000000000D+00 -.408296745605352D+03
 0.366284290414398D+03 0.315370777693047D+03 -.527154161600907D+02 -.153659648368498D+03
 0.263543314699769D+03 -.187896526538966D+03 0.459213035083229D+02 0.179000580785733D+03
 0.468584737744798D+02 -.167444501640936D+02 0.401836523070252D+02 0.173382248354297D+02
 0.123483046945382D+03 -.630105167189455D+02 -.337783341497054D+02 -.426791572526648D+02
 0.775384915067451D+02 -.477192842710424D+02 0.388794494448105D+00 0.611141261300701D+02
0.106229846646D-04 0.000000000000D+00 0.000000000000D+00 0.330069720371D-06 0.000000000000D+00  7 2 -2 23 -13 13 23 21 0 0.32057852D+00 0.11775925D-01 0.11773110D+06 0.11773110D+06 0.11773110D+06 0.11159506D+01  1  2  2  1  7  1        2 0.400539078881D-03 0.100000000000D+01
-.573627708646D-06 0.000000000000D+00 -.407950582081D-07 0.330069720371D-06 0.000000000000D+00  7 2 -2 23 -13 13 23 21 2 0.32057852D+00 0.11775925D-01 0.11773110D+06 0.11773110D+06 0.11773110D+06 0.11159506D+01  1  2  3  1  7  1        2 -.269350887682D-04 0.100000000000D+01
0.677333720898D-06 0.000000000000D+00 0.000000000000D+00 0.330069720371D-06 0.000000000000D+00  7 2 -2 23 -13 13 23 21 2 0.32057852D+00 0.11775925D-01 0.11773110D+06 0.11773110D+06 0.11773110D+06 0.11159506D+01  1  2 15  1  7  1        2 0.318046768367D-04 0.100000000000D+01
0.288322384607D-04 0.000000000000D+00 0.000000000000D+00 0.330069720371D-06 0.000000000000D+00  7 2 -2 23 -13 13 23 21 2 0.37996299D+00 0.11775925D-01 0.13433994D+06 0.13433994D+06 0.13433994D+06 0.11113507D+01  1  2 12  1  7  1        2 0.816433223926D-03 0.100000000000D+01
-.292811463981D-04 0.000000000000D+00 0.000000000000D+00 0.330069720371D-06 0.000000000000D+00  7 2 -2 23 -13 13 23 21 2 0.32057852D+00 0.11775925D-01 0.11773110D+06 0.11773110D+06 0.11773110D+06 0.11159506D+01  1  2  4  1  7  1        2 -.137491663247D-02 0.100000000000D+01
-.442148075032D-04 0.000000000000D+00 -.658106886145D-05 0.330069720371D-06 0.000000000000D+00  7 2 -2 23 -13 13 23 21 2 0.37945735D+00 0.11775925D-01 0.11773110D+06 0.11773110D+06 0.11773110D+06 0.11159506D+01  1  2  5  1  7  1        2 -.127391852596D-02 0.100000000000D+01
0.447788680889D-04 0.000000000000D+00 0.648861122885D-05 0.330069720371D-06 0.000000000000D+00  7 2 -2 23 -13 13 23 21 2 0.32057852D+00 0.11775925D-01 0.11773110D+06 0.11773110D+06 0.11773110D+06 0.11159506D+01  1  2  6  1  7  1        2 0.210262295341D-02 0.100000000000D+01
0.726800635296D-06 0.000000000000D+00 0.000000000000D+00 0.330069720371D-06 0.000000000000D+00  7 21 -2 23 -13 13 23 -2 2 0.37996299D+00 0.11775925D-01 0.13433994D+06 0.13433994D+06 0.13433994D+06 0.11113507D+01  1  2 12  3  7  1        2 0.259896955672D-05 0.100000000000D+01
-.105137669353D-05 0.000000000000D+00 -.164865165784D-06 0.330069720371D-06 0.000000000000D+00  7 21 -2 23 -13 13 23 -2 2 0.37945735D+00 0.11775925D-01 0.11773110D+06 0.11773110D+06 0.11773110D+06 0.11159506D+01  1  2  5  3  7  1        2 -.386939803166D-05 0.100000000000D+01
  </mgrwgt>
  </event>
  <event>
  8     66 0.29152272E-05 0.21990595E+03 0.75467711E-02 0.94490394E-01
        2 -1    0    0  501    0 0.00000000E+00 0.00000000E+00 0.12486917E+04 0.12486917E+04 0.32000000E+00 0.0000E+00 0.9000E+01
       -2 -1    0    0    0  501 0.00000000E+00 0.00000000E+00 -.17716016E+03 0.17716044E+03 0.32000000E+00 0.0000E+00 0.9000E+01
       25  2    1    2    0    0 0.29476408E+03 -.10646762E+03 0.18478589E+03 0.48094250E+03 0.31454513E+03 0.0000E+00 0.0000E+00
       23  2    3    3    0    0 0.16523894E+03 0.70365290E+02 0.10737860E+03 0.23123510E+03 0.98408986E+02 0.0000E+00 0.0000E+00
       23  1    1    2    0    0 -.29476408E+03 0.10646762E+03 0.88674566E+03 0.94490970E+03 0.91188000E+02 0.0000E+00 0.9000E+01
      -13  1    4    4    0    0 0.19469154E+01 -.16777747E+02 0.21089076E+02 0.27019318E+02 0.10565837E+00 0.0000E+00 0.9000E+01
       13  1    4    4    0    0 0.16329202E+03 0.87143038E+02 0.86289522E+02 0.20421579E+03 0.10565837E+00 0.0000E+00 0.9000E+01
       23  1    3    3    0    0 0.12952514E+03 -.17683291E+03 0.77407297E+02 0.24970739E+03 0.91188000E+02 0.0000E+00 0.9000E+01
#aMCatNLO 1  0  0  1  2 0.21755954D+03 0.00000000D+00  -5  7  0 0.00000000D+00 0.00000000D+00 0.00000000D+00 0.00000000D+00 0.00000000D+00
  <mgrwgt>
 0.6689813258D-03    9    2    0
 0.470338869404299D+03 0.000000000000000D+00 0.000000000000000D+00 0.470338869404299D+03
 0.470338869404299D+03 0.000000000000000D+00 0.000000000000000D+00 -.470338869404299D+03
 0.422169707018338D+03 -.294764110664527D+03 0.106467631966882D+03 0.267751326023727D+03
 0.169321979107576D+02 0.194673634409709D+01 -.167778756769174D+02 0.118845759938640D+01
 0.211251693549005D+03 0.163292199033279D+03 0.871430980112291D+02 -.101828366535087D+03
 0.290324140330498D+03 0.129525175287151D+03 -.176832854301193D+03 -.167111417088027D+03
 0.000000000000000D+00 0.000000000000000D+00 -.000000000000000D+00 0.000000000000000D+00
 0.691994729562116D+03 0.000000000000000D+00 0.000000000000000D+00 0.691994729562116D+03
 0.539306622718336D+03 0.000000000000000D+00 0.000000000000000D+00 -.539306622718336D+03
 0.462564514936133D+03 -.301704044351741D+03 0.207206602617868D+03 0.267751326023727D+03
 0.134770040305593D+02 0.170820386765731D+01 -.133153762891138D+02 0.118845759938640D+01
 0.234339241440364D+03 0.159796944228262D+03 0.137879659351737D+03 -.101828366535087D+03
 0.255127791192679D+03 0.125246601970555D+03 -.114725766367090D+03 -.167111417088027D+03
 0.265792800680716D+03 0.149522942852661D+02 -.217045119313401D+03 0.152688106843780D+03
0.238882877633D-04 0.000000000000D+00 0.000000000000D+00 0.918721409183D-10 0.000000000000D+00  7 2 -2 23 -13 13 23 21 0 0.19210644D+00 0.27255434D-01 0.14660711D+06 0.14660711D+06 0.14660711D+06 0.11083369D+01  1  2  2  1  7  1        2 0.641222402046D-03 0.100000000000D+01
-.125885352248D-05 0.000000000000D+00 -.917373149416D-07 0.918721409183D-10 0.000000000000D+00  7 2 -2 23 -13 13 23 21 2 0.19210644D+00 0.27255434D-01 0.14660711D+06 0.14660711D+06 0.14660711D+06 0.11083369D+01  1  2  3  1  7  1        2 -.415090140481D-04 0.100000000000D+01
0.155129865679D-05 0.000000000000D+00 0.000000000000D+00 0.918721409183D-10 0.000000000000D+00  7 2 -2 23 -13 13 23 21 2 0.19210644D+00 0.27255434D-01 0.14660711D+06 0.14660711D+06 0.14660711D+06 0.11083369D+01  1  2 15  1  7  1        2 0.511520018710D-04 0.100000000000D+01
0.775918355315D-05 0.000000000000D+00 0.000000000000D+00 0.918721409183D-10 0.000000000000D+00  7 2 -2 23 -13 13 23 21 2 0.29142706D+00 0.27255434D-01 0.25604426D+06 0.25604426D+06 0.25604426D+06 0.10896795D+01  1  2 12  1  7  1        2 0.107722259572D-03 0.100000000000D+01
-.162146112661D-04 0.000000000000D+00 0.000000000000D+00 0.918721409183D-10 0.000000000000D+00  7 2 -2 23 -13 13 23 21 2 0.19210644D+00 0.27255434D-01 0.14660711D+06 0.14660711D+06 0.14660711D+06 0.11083369D+01  1  2  4  1  7  1        2 -.534655156305D-03 0.100000000000D+01
-.192305563776D-04 0.000000000000D+00 -.822547899978D-05 0.918721409183D-10 0.000000000000D+00  7 2 -2 23 -13 13 23 21 2 0.30043321D+00 0.27255434D-01 0.14660711D+06 0.14660711D+06 0.14660711D+06 0.11083369D+01  1  2  5  1  7  1        2 -.262552635719D-03 0.100000000000D+01
0.214837834634D-04 0.000000000000D+00 0.746643807156D-05 0.918721409183D-10 0.000000000000D+00  7 2 -2 23 -13 13 23 21 2 0.19210644D+00 0.27255434D-01 0.14660711D+06 0.14660711D+06 0.14660711D+06 0.11083369D+01  1  2  6  1  7  1        2 0.708399073967D-03 0.100000000000D+01
0.380669933195D-06 0.000000000000D+00 0.000000000000D+00 0.918721409183D-10 0.000000000000D+00  7 21 -2 23 -13 13 23 -2 2 0.29142706D+00 0.27255434D-01 0.25604426D+06 0.25604426D+06 0.25604426D+06 0.10896795D+01  1  2 12  3  7  1        2 0.118541394573D-05 0.100000000000D+01
-.669804991806D-06 0.000000000000D+00 -.425404900758D-06 0.918721409183D-10 0.000000000000D+00  7 21 -2 23 -13 13 23 -2 2 0.30043321D+00 0.27255434D-01 0.14660711D+06 0.14660711D+06 0.14660711D+06 0.11083369D+01  1  2  5  3  7  1        2 -.198301953921D-05 0.100000000000D+01
  </mgrwgt>
  </event>
  <event>
  8     66 0.29152272E-05 0.40993889E+03 0.75467711E-02 0.83765751E-01
        2 -1    0    0  501    0 0.00000000E+00 0.00000000E+00 0.24569615E+03 0.24569636E+03 0.32000000E+00 0.0000E+00 0.9000E+01
       -2 -1    0    0    0  501 0.00000000E+00 0.00000000E+00 -.83596802E+03 0.83596809E+03 0.32000000E+00 0.0000E+00 0.9000E+01
       25  2    1    2    0    0 -.56035941E+02 -.35339472E+03 -.11839125E+03 0.48248632E+03 0.30124526E+03 0.0000E+00 0.0000E+00
       23  2    3    3    0    0 -.14903588E+03 -.19879839E+03 -.86069628E+02 0.27776956E+03 0.89529061E+02 0.0000E+00 0.0000E+00
       23  1    1    2    0    0 0.56035941E+02 0.35339472E+03 -.47188062E+03 0.59917813E+03 0.91188000E+02 0.0000E+00 0.9000E+01
      -11  1    4    4    0    0 -.75668070E+02 -.10367138E+03 -.91321670E+02 0.15752162E+03 0.51099893E-03 0.0000E+00 0.9000E+01
       11  1    4    4    0    0 -.73367812E+02 -.95127012E+02 0.52520422E+01 0.12024794E+03 0.51099893E-03 0.0000E+00 0.9000E+01
       23  1    3    3    0    0 0.92999941E+02 -.15459633E+03 -.32321617E+02 0.20471676E+03 0.91188000E+02 0.0000E+00 0.9000E+01
#aMCatNLO 1  0  0  1  1 0.14008526D+04 0.00000000D+00  -5  7  0 0.00000000D+00 0.00000000D+00 0.00000000D+00 0.00000000D+00 0.00000000D+00
  <mgrwgt>
 0.3834983866D-03    3    2    0
 0.453204451564765D+03 0.000000000000000D+00 0.000000000000000D+00 0.453204451564765D+03
 0.453204451564765D+03 0.000000000000000D+00 0.000000000000000D+00 -.453204451564765D+03
 0.407731897305586D+03 0.560359407081916D+02 0.353394720116833D+03 -.172922508306196D+03
 0.128508137177666D+03 -.756680697491400D+02 -.103671382202888D+03 -.639758184440150D+01
 0.146918304772652D+03 -.733678120572659D+02 -.951270119246535D+02 0.845754339834351D+02
 0.223250563873627D+03 0.929999410982143D+02 -.154596325989291D+03 0.947446561671624D+02
 0.000000000000000D+00 0.000000000000000D+00 0.000000000000000D+00 -.000000000000000D+00
 0.136168486502088D+04 0.000000000000000D+00 0.000000000000000D+00 0.136168486502088D+04
 0.176443679590365D+04 0.000000000000000D+00 0.000000000000000D+00 -.176443679590365D+04
 0.202815759487319D+03 0.496308232621957D+02 0.212971466593168D+02 -.172922508306196D+03
 0.399007535308743D+03 -.812021174181248D+02 -.390605043882584D+03 -.639758184440150D+01
 0.419625660369663D+03 -.793112967217031D+02 -.403289485381793D+03 0.845754339834351D+02
 0.647072899108339D+03 0.838695743948398D+02 -.627994769114414D+03 0.947446561671624D+02
 0.145759980665047D+04 0.270130164827924D+02 0.140059215171947D+04 -.402751930882768D+03
0.507465443441D-04 0.000000000000D+00 0.000000000000D+00 0.542693975010D-07 0.000000000000D+00  7 2 -2 23 -11 11 23 21 0 0.37799429D-01 0.12861049D+00 0.16804989D+06 0.16804989D+06 0.16804989D+06 0.11036787D+01  1  2  2  1  7  1        2 0.379753570652D-03 0.100000000000D+01
-.278474423794D-05 0.000000000000D+00 -.194880092153D-06 0.542693975010D-07 0.000000000000D+00  7 2 -2 23 -11 11 23 21 2 0.37799429D-01 0.12861049D+00 0.16804989D+06 0.16804989D+06 0.16804989D+06 0.11036787D+01  1  2  3  1  7  1        2 -.253843467079D-04 0.100000000000D+01
0.319556255260D-05 0.000000000000D+00 0.000000000000D+00 0.542693975010D-07 0.000000000000D+00  7 2 -2 23 -11 11 23 21 2 0.37799429D-01 0.12861049D+00 0.16804989D+06 0.16804989D+06 0.16804989D+06 0.11036787D+01  1  2 15  1  7  1        2 0.291291626200D-04 0.100000000000D+01
  </mgrwgt>
  </event>
  <event>
  8     66 0.29152272E-05 0.13098274E+03 0.75467711E-02 0.95859983E-01
        2 -1    0    0  501    0 0.00000000E+00 0.00000000E+00 0.50815038E+03 0.50815048E+03 0.32000000E+00 0.0000E+00 0.9000E+01
       -2 -1    0    0    0  501 0.00000000E+00 0.00000000E+00 -.22358847E+03 0.22358870E+03 0.32000000E+00 0.0000E+00 0.9000E+01
       25  2    1    2    0    0 -.10012359E+03 -.19279525E+03 0.32485722E+03 0.49271260E+03 0.30006456E+03 0.0000E+00 0.0000E+00
       23  2    3    3    0    0 -.16299578E+03 -.76465775E+02 0.22960937E+03 0.30596982E+03 0.92100087E+02 0.0000E+00 0.0000E+00
       23  1    1    2    0    0 0.10012359E+03 0.19279525E+03 -.40295312E+02 0.23902658E+03 0.91188000E+02 0.0000E+00 0.9000E+01
      -13  1    4    4    0    0 -.50239064E+02 -.15177654E+02 0.12793597E+02 0.54018627E+02 0.10565837E+00 0.0000E+00 0.9000E+01
       13  1    4    4    0    0 -.11275672E+03 -.61288121E+02 0.21681578E+03 0.25195119E+03 0.10565837E+00 0.0000E+00 0.9000E+01
       23  1    3    3    0    0 0.62872191E+02 -.11632948E+03 0.95247852E+02 0.18674278E+03 0.91188000E+02 0.0000E+00 0.9000E+01
#aMCatNLO 1  0  0  2  1 0.26925168D+03 0.00000000D+00  -5  7  0 0.00000000D+00 0.00000000D+00 0.00000000D+00 0.00000000D+00 0.00000000D+00
  <mgrwgt>
 0.3318767397D-03    7    2    0
 0.337070743822086D+03 0.000000000000000D+00 0.000000000000000D+00 0.337070743822086D+03
 0.337070743822086D+03 0.000000000000000D+00 0.000000000000000D+00 -.337070743822086D+03
 0.276457732681241D+03 0.100123593241171D+03 0.192795254685939D+03 -.144633614565608D+03
 0.532334261132908D+02 -.502389821030127D+02 -.151775930952790D+02 -.891532393390723D+01
 0.181957591062366D+03 -.112756802221384D+03 -.612881816328721D+02 0.128989252614948D+03
 0.162492737787274D+03 0.628721910832264D+02 -.116329479957788D+03 0.245596858845668D+02
 0.000000000000000D+00 0.000000000000000D+00 0.000000000000000D+00 -.000000000000000D+00
 0.414606875860952D+03 0.000000000000000D+00 0.000000000000000D+00 0.414606875860952D+03
 0.713892795262965D+03 0.000000000000000D+00 0.000000000000000D+00 -.713892795262965D+03
 0.211054359818701D+03 0.524453814505382D+02 0.112068242409152D+03 -.144633614565608D+03
 0.727458789291144D+02 -.625596364610360D+02 -.360384764687115D+02 -.891532393390723D+01
 0.239912707926954D+03 -.154015310005768D+03 -.131145584822777D+03 0.128989252614948D+03
 0.202209370123880D+03 0.272046771712917D+02 -.176720415886659D+03 0.245596858845668D+02
 0.402577354325267D+03 0.136924887844975D+03 0.231836234768995D+03 -.299285919402013D+03
0.644500445320D-05 0.000000000000D+00 0.000000000000D+00 0.379993930931D-06 0.000000000000D+00  7 2 -2 23 -13 13 23 21 0 0.78177007D-01 0.34398251D-01 0.83246667D+05 0.83246667D+05 0.83246667D+05 0.11283160D+01  1  2  2  2  7  2       -2 0.371027658425D-03 0.100000000000D+01
-.347527575701D-06 0.000000000000D+00 -.247505141089D-07 0.379993930931D-06 0.000000000000D+00  7 2 -2 23 -13 13 23 21 2 0.78177007D-01 0.34398251D-01 0.83246667D+05 0.83246667D+05 0.83246667D+05 0.11283160D+01  1  2  3  2  7  2       -2 -.254702879440D-04 0.100000000000D+01
0.414481117456D-06 0.000000000000D+00 0.000000000000D+00 0.379993930931D-06 0.000000000000D+00  7 2 -2 23 -13 13 23 21 2 0.78177007D-01 0.34398251D-01 0.83246667D+05 0.83246667D+05 0.83246667D+05 0.11283160D+01  1  2 15  2  7  2       -2 0.303773114628D-04 0.100000000000D+01
0.282337148426D-07 0.000000000000D+00 0.000000000000D+00 0.379993930931D-06 0.000000000000D+00  7 2 -2 23 -13 13 23 21 2 0.78177007D-01 0.72840486D-01 0.20166954D+06 0.20166954D+06 0.20166954D+06 0.10975482D+01  1  2 12  2  7  2       -2 0.439432826365D-06 0.100000000000D+01
-.252105774919D-05 0.000000000000D+00 -.196903823291D-05 0.379993930931D-06 0.000000000000D+00  7 2 -2 23 -13 13 23 21 2 0.78177007D-01 0.85501953D-01 0.83246667D+05 0.83246667D+05 0.83246667D+05 0.11283160D+01  1  2  5  2  7  2       -2 -.296915212097D-04 0.100000000000D+01
0.229145400536D-08 0.000000000000D+00 0.000000000000D+00 0.379993930931D-06 0.000000000000D+00  7 2 21 23 -13 13 23 2 2 0.78177007D-01 0.72840486D-01 0.20166954D+06 0.20166954D+06 0.20166954D+06 0.10975482D+01  1  2 12  4  7  2       -2 0.351625384295D-06 0.100000000000D+01
-.130403092558D-06 0.000000000000D+00 -.197174432839D-06 0.379993930931D-06 0.000000000000D+00  7 2 21 23 -13 13 23 2 2 0.78177007D-01 0.85501953D-01 0.83246667D+05 0.83246667D+05 0.83246667D+05 0.11283160D+01  1  2  5  4  7  2       -2 -.151574792134D-04 0.100000000000D+01
  </mgrwgt>
  </event>
  <event>
  8     66 0.29152272E-05 0.11262244E+03 0.75467711E-02 0.10485768E+00
        2 -1    0    0  501    0 0.00000000E+00 0.00000000E+00 0.11374720E+04 0.11374720E+04 0.32000000E+00 0.0000E+00 0.9000E+01
       -2 -1    0    0    0  501 0.00000000E+00 0.00000000E+00 -.71968577E+02 0.71969289E+02 0.32000000E+00 0.0000E+00 0.9000E+01
       25  2    1    2    0    0 0.83240596E+01 -.79916347E+02 0.29425852E+03 0.42867897E+03 0.30120039E+03 0.0000E+00 0.0000E+00
       23  2    3    3    0    0 -.19428871E+02 0.18035732E+02 -.12901568E+02 0.92483485E+02 0.87658290E+02 0.0000E+00 0.0000E+00
       23  1    1    2    0    0 -.83240596E+01 0.79916347E+02 0.77124487E+03 0.78076233E+03 0.91188000E+02 0.0000E+00 0.9000E+01
      -13  1    4    4    0    0 -.37902559E+00 -.19565262E+02 0.27728310E+02 0.33938378E+02 0.10565837E+00 0.0000E+00 0.9000E+01
       13  1    4    4    0    0 -.19049845E+02 0.37600995E+02 -.40629878E+02 0.58545107E+02 0.10565837E+00 0.0000E+00 0.9000E+01
       23  1    3    3    0    0 0.27752931E+02 -.97952079E+02 0.30716009E+03 0.33619549E+03 0.91188000E+02 0.0000E+00 0.9000E+01
#aMCatNLO 1  0  0  1  2 0.89840493D+02 0.00000000D+00  -5  7  0 0.00000000D+00 0.00000000D+00 0.00000000D+00 0.00000000D+00 0.00000000D+00
  <mgrwgt>
 0.6610571327D-03    9    2    0
 0.286116578675137D+03 0.000000000000000D+00 0.000000000000000D+00 0.286116578675137D+03
 0.286116578675137D+03 0.000000000000000D+00 0.000000000000000D+00 -.286116578675137D+03
 0.214112348379310D+03 -.832405987222899D+01 0.799163490746004D+02 0.176275164337842D+03
 0.200997070686014D+02 -.378998336517026D+00 -.195653457942449D+02 -.458822715829638D+01
 0.199391260755553D+03 -.190498715233480D+02 0.376010741248772D+02 -.194884931396166D+03
 0.138629841146809D+03 0.277529297320940D+02 -.979520774052327D+02 0.231979942166198D+02
 0.000000000000000D+00 -.000000000000000D+00 -.000000000000000D+00 0.000000000000000D+00
 0.345625987565641D+03 0.000000000000000D+00 0.000000000000000D+00 0.345625987565641D+03
 0.325651015651954D+03 0.000000000000000D+00 0.000000000000000D+00 -.325651015651954D+03
 0.227726348056639D+03 0.539073627367219D+01 0.111543913573570D+03 0.176275164337842D+03
 0.175040478054156D+02 0.788232683711966D+00 -.168736051380395D+02 -.458822715829638D+01
 0.206059890596326D+03 -.646455490720131D+01 0.666239563305376D+02 -.194884931396166D+03
 0.127952409320983D+03 0.360277170034967D+02 -.788696670392749D+02 0.231979942166198D+02
 0.920343074382305D+02 -.357421310536795D+02 -.824245977267935D+02 0.199749719136873D+02
0.446731747636D-05 0.000000000000D+00 0.000000000000D+00 0.116732683024D-07 0.000000000000D+00  7 2 -2 23 -13 13 23 21 0 0.17499575D+00 0.11072147D-01 0.25589150D+05 0.25589150D+05 0.25589150D+05 0.11737987D+01  1  2  2  1  7  1        2 0.609777933938D-03 0.100000000000D+01
-.146169811299D-06 0.000000000000D+00 -.171556753809D-07 0.116732683024D-07 0.000000000000D+00  7 2 -2 23 -13 13 23 21 2 0.17499575D+00 0.11072147D-01 0.25589150D+05 0.25589150D+05 0.25589150D+05 0.11737987D+01  1  2  3  1  7  1        2 -.274896870037D-04 0.100000000000D+01
0.260025460552D-06 0.000000000000D+00 0.000000000000D+00 0.116732683024D-07 0.000000000000D+00  7 2 -2 23 -13 13 23 21 2 0.17499575D+00 0.11072147D-01 0.25589150D+05 0.25589150D+05 0.25589150D+05 0.11737987D+01  1  2 15  1  7  1        2 0.489021533244D-04 0.100000000000D+01
0.152501932811D-05 0.000000000000D+00 0.000000000000D+00 0.116732683024D-07 0.000000000000D+00  7 2 -2 23 -13 13 23 21 2 0.22139019D+00 0.11072147D-01 0.49212101D+05 0.49212101D+05 0.49212101D+05 0.11479026D+01  1  2 12  1  7  1        2 0.187165903386D-03 0.100000000000D+01
-.289821793918D-05 0.000000000000D+00 0.000000000000D+00 0.116732683024D-07 0.000000000000D+00  7 2 -2 23 -13 13 23 21 2 0.17499575D+00 0.11072147D-01 0.25589150D+05 0.25589150D+05 0.25589150D+05 0.11737987D+01  1  2  4  1  7  1        2 -.545058540531D-03 0.100000000000D+01
-.445826441993D-05 0.000000000000D+00 -.226520153560D-05 0.116732683024D-07 0.000000000000D+00  7 2 -2 23 -13 13 23 21 2 0.22880365D+00 0.11072147D-01 0.25589150D+05 0.25589150D+05 0.25589150D+05 0.11737987D+01  1  2  5  1  7  1        2 -.542792686091D-03 0.100000000000D+01
0.496509750637D-05 0.000000000000D+00 0.218616028719D-05 0.116732683024D-07 0.000000000000D+00  7 2 -2 23 -13 13 23 21 2 0.17499575D+00 0.11072147D-01 0.25589150D+05 0.25589150D+05 0.25589150D+05 0.11737987D+01  1  2  6  1  7  1        2 0.933769943188D-03 0.100000000000D+01
0.493235148985D-07 0.000000000000D+00 0.000000000000D+00 0.116732683024D-07 0.000000000000D+00  7 21 -2 23 -13 13 23 -2 2 0.22139019D+00 0.11072147D-01 0.49212101D+05 0.49212101D+05 0.49212101D+05 0.11479026D+01  1  2 12  3  7  1        2 0.250239897384D-05 0.100000000000D+01
-.116302740443D-06 0.000000000000D+00 -.806983162804D-07 0.116732683024D-07 0.000000000000D+00  7 21 -2 23 -13 13 23 -2 2 0.22880365D+00 0.11072147D-01 0.25589150D+05 0.25589150D+05 0.25589150D+05 0.11737987D+01  1  2  5  3  7  1        2 -.572028647234D-05 0.100000000000D+01
  </mgrwgt>
  </event>
  <event>
  8     66 0.29152272E-05 0.40605326E+03 0.75467711E-02 0.91829549E-01
        2 -1    0    0  501    0 0.00000000E+00 0.00000000E+00 0.19847231E+04 0.19847231E+04 0.32000000E+00 0.0000E+00 0.9000E+01
       -2 -1    0    0    0  501 0.00000000E+00 0.00000000E+00 -.93785183E+02 0.93785729E+02 0.32000000E+00 0.0000E+00 0.9000E+01
       25  2    1    2    0    0 -.10295591E+03 -.35568612E+03 0.94020799E+03 0.10541480E+04 0.30020725E+03 0.0000E+00 0.0000E+00
       23  2    3    3    0    0 0.32291987E+02 -.10091997E+03 0.13487282E+03 0.19387026E+03 0.90373602E+02 0.0000E+00 0.0000E+00
       23  1    1    2    0    0 0.10295591E+03 0.35568612E+03 0.95072994E+03 0.10243609E+04 0.91188000E+02 0.0000E+00 0.9000E+01
      -11  1    4    4    0    0 -.22939846E+02 -.39215957E+02 0.87174375E+02 0.98303100E+02 0.51099893E-03 0.0000E+00 0.9000E+01
       11  1    4    4    0    0 0.55231833E+02 -.61704017E+02 0.47698444E+02 0.95567163E+02 0.51099893E-03 0.0000E+00 0.9000E+01
       23  1    3    3    0    0 -.13524790E+03 -.25476614E+03 0.80533517E+03 0.86027773E+03 0.91188000E+02 0.0000E+00 0.9000E+01
#aMCatNLO 1  0  0  1  2 0.38559579D+03 0.00000000D+00  -5  7  0 0.00000000D+00 0.00000000D+00 0.00000000D+00 0.00000000D+00 0.00000000D+00
  <mgrwgt>
 0.7117105362D-03    6    2    0
 0.431437380894232D+03 0.000000000000000D+00 0.000000000000000D+00 0.431437380894232D+03
 0.431437380894232D+03 0.000000000000000D+00 0.000000000000000D+00 -.431437380894232D+03
 0.384032390322793D+03 0.102955911636691D+03 0.355686115418813D+03 0.453110696228898D+02
 0.457569681083935D+02 -.229398457262872D+02 -.392159573078516D+02 -.543804201486551D+01
 0.125675711011936D+03 0.552318331928205D+02 -.617040168391118D+02 -.945327628202769D+02
 0.307409692345342D+03 -.135247899103224D+03 -.254766141271850D+03 0.546597352122526D+02
 0.000000000000000D+00 0.000000000000000D+00 0.000000000000000D+00 0.000000000000000D+00
 0.719116450736351D+03 0.000000000000000D+00 0.000000000000000D+00 0.719116450736351D+03
 0.623314387529169D+03 0.000000000000000D+00 0.000000000000000D+00 -.623314387529169D+03
 0.260349558949021D+03 0.331459771173077D+02 0.237307590842598D+03 0.453110696228898D+02
 0.704204211808965D+02 -.355260703219379D+02 -.605587462371880D+02 -.543804201486551D+01
 0.148867369187169D+03 0.254888609182127D+02 -.112139949756392D+03 -.945327628202769D+02
 0.465474794419707D+03 -.218979318757495D+03 -.396751690858525D+03 0.546597352122526D+02
 0.397318694528727D+03 0.195870551043912D+03 0.332142796009507D+03 0.958020632071817D+02
0.157610648572D-04 0.000000000000D+00 0.000000000000D+00 0.740728522266D-06 0.000000000000D+00  7 2 -2 23 -11 11 23 21 0 0.30534206D+00 0.14428534D-01 0.16487925D+06 0.16487925D+06 0.16487925D+06 0.11043250D+01  1  2  2  1  7  1        2 0.482790460481D-03 0.100000000000D+01
-.871700136137D-06 0.000000000000D+00 -.605266390351D-07 0.740728522266D-06 0.000000000000D+00  7 2 -2 23 -11 11 23 21 2 0.30534206D+00 0.14428534D-01 0.16487925D+06 0.16487925D+06 0.16487925D+06 0.11043250D+01  1  2  3  1  7  1        2 -.325637245834D-04 0.100000000000D+01
0.101071695794D-05 0.000000000000D+00 0.000000000000D+00 0.740728522266D-06 0.000000000000D+00  7 2 -2 23 -11 11 23 21 2 0.30534206D+00 0.14428534D-01 0.16487925D+06 0.16487925D+06 0.16487925D+06 0.11043250D+01  1  2 15  1  7  1        2 0.377569158081D-04 0.100000000000D+01
-.454202210398D-05 0.000000000000D+00 -.395789859143D-05 0.740728522266D-06 0.000000000000D+00  7 2 -2 23 -11 11 23 21 2 0.56841137D+00 0.14428534D-01 0.16487925D+06 0.16487925D+06 0.16487925D+06 0.11043250D+01  1  2  5  1  7  1        2 -.148320089990D-04 0.100000000000D+01
0.638620778668D-05 0.000000000000D+00 0.329997982649D-05 0.740728522266D-06 0.000000000000D+00  7 2 -2 23 -11 11 23 21 2 0.30534206D+00 0.14428534D-01 0.16487925D+06 0.16487925D+06 0.16487925D+06 0.11043250D+01  1  2  6  1  7  1        2 0.238566799381D-03 0.100000000000D+01
-.870556500803D-07 0.000000000000D+00 -.268016502412D-06 0.740728522266D-06 0.000000000000D+00  7 21 -2 23 -11 11 23 -2 2 0.56841137D+00 0.14428534D-01 0.16487925D+06 0.16487925D+06 0.16487925D+06 0.11043250D+01  1  2  5  3  7  1        2 -.790587705537D-08 0.100000000000D+01
  </mgrwgt>
  </event>
  <event>
  8     66 0.29152272E-05 0.57089408E+03 0.75467711E-02 0.80360153E-01
        2 -1    0    0  501    0 0.00000000E+00 0.00000000E+00 0.12141812E+04 0.12141813E+04 0.32000000E+00 0.0000E+00 0.9000E+01
       -2 -1    0    0    0  501 0.00000000E+00 0.00000000E+00 -.65661779E+03 0.65661787E+03 0.32000000E+00 0.0000E+00 0.9000E+01
       25  2    1    2    0    0 0.33978661E+03 -.41880378E+03 0.99465167E+03 0.11706471E+04 0.30038501E+03 0.0000E+00 0.0000E+00
       23  2    3    3    0    0 0.25260690E+03 -.17271144E+03 0.68226505E+03 0.75343926E+03 0.92442532E+02 0.0000E+00 0.0000E+00
       23  1    1    2    0    0 -.33978661E+03 0.41880378E+03 -.43708822E+03 0.70015206E+03 0.91188000E+02 0.0000E+00 0.9000E+01
      -11  1    4    4    0    0 0.14712371E+03 -.47588939E+02 0.36652266E+03 0.39780517E+03 0.51099893E-03 0.0000E+00 0.9000E+01
       11  1    4    4    0    0 0.10548319E+03 -.12512251E+03 0.31574239E+03 0.35563409E+03 0.51099893E-03 0.0000E+00 0.9000E+01
       23  1    3    3    0    0 0.87179712E+02 -.24609233E+03 0.31238662E+03 0.41720785E+03 0.91188000E+02 0.0000E+00 0.9000E+01
#aMCatNLO 1  0  0  1  1 0.20557562D+04 0.00000000D+00  -5  7  0 0.00000000D+00 0.00000000D+00 0.00000000D+00 0.00000000D+00 0.00000000D+00
  <mgrwgt>
 0.6160318160D-03    5    2    0
 0.892890320360520D+03 0.000000000000000D+00 0.000000000000000D+00 0.892890320360520D+03
 0.892890320360520D+03 0.000000000000000D+00 0.000000000000000D+00 -.892890320360520D+03
 0.869954720626980D+03 -.339786607923879D+03 0.418803776605716D+03 -.676501605595686D+03
 0.302306968953994D+03 0.147123705248610D+03 -.475889388295230D+02 0.259767995975546D+03
 0.273982997737314D+03 0.105483190598331D+03 -.125122505344806D+03 0.219736975055543D+03
 0.339535953402752D+03 0.871797120769379D+02 -.246092332431387D+03 0.196996634564597D+03
 0.000000000000000D+00 -.000000000000000D+00 -.000000000000000D+00 0.000000000000000D+00
 0.244899229673744D+04 0.000000000000000D+00 0.000000000000000D+00 0.244899229673744D+04
 0.233310429617667D+04 0.000000000000000D+00 0.000000000000000D+00 -.233310429617667D+04
 0.140755284233728D+04 0.374357927475791D+03 0.117264294326544D+04 -.676501605595686D+03
 0.537685894549218D+03 0.410515284271417D+03 0.230442858087638D+03 0.259767995975546D+03
 0.396732705766675D+03 0.315795534782471D+03 0.968797286837682D+02 0.219736975055543D+03
 0.381105118645453D+03 0.313146857897504D+03 -.756514857144305D+01 0.196996634564597D+03
 0.205902003161549D+04 -.141381560442718D+04 -.149240038146540D+04 0.115888000560767D+03
0.312917351068D-03 0.000000000000D+00 0.000000000000D+00 0.225558384527D-05 0.000000000000D+00  7 2 -2 23 -11 11 23 21 0 0.18679712D+00 0.10101813D+00 0.32592005D+06 0.32592005D+06 0.32592005D+06 0.10818992D+01  1  2  2  1  7  1        2 0.600440851617D-03 0.100000000000D+01
-.131560646485D-04 0.000000000000D+00 -.120168502113D-05 0.225558384527D-05 0.000000000000D+00  7 2 -2 23 -11 11 23 21 2 0.18679712D+00 0.10101813D+00 0.32592005D+06 0.32592005D+06 0.32592005D+06 0.10818992D+01  1  2  3  1  7  1        2 -.295488219496D-04 0.100000000000D+01
0.188805027322D-04 0.000000000000D+00 0.000000000000D+00 0.225558384527D-05 0.000000000000D+00  7 2 -2 23 -11 11 23 21 2 0.18679712D+00 0.10101813D+00 0.32592005D+06 0.32592005D+06 0.32592005D+06 0.10818992D+01  1  2 15  1  7  1        2 0.424060407470D-04 0.100000000000D+01
0.163653586220D-03 0.000000000000D+00 -.960306426480D-04 0.225558384527D-05 0.000000000000D+00  7 2 -2 23 -11 11 23 21 2 0.68335615D+00 0.10101813D+00 0.32592005D+06 0.32592005D+06 0.32592005D+06 0.10818992D+01  1  2  5  1  7  1        2 0.272827149271D-05 0.100000000000D+01
0.274724017106D-04 0.000000000000D+00 -.146756581964D-04 0.225558384527D-05 0.000000000000D+00  7 21 -2 23 -11 11 23 -2 2 0.68335615D+00 0.10101813D+00 0.32592005D+06 0.32592005D+06 0.32592005D+06 0.10818992D+01  1  2  5  3  7  1        2 0.547413398524D-08 0.100000000000D+01
  </mgrwgt>
  </event>
  <event>
  9     66 0.29152272E-05 0.37780240E+03 0.75467711E-02 0.97344160E-01
        2 -1    0    0  502    0 0.00000000E+00 0.00000000E+00 0.55615151E+03 0.55615161E+03 0.32000000E+00 0.0000E+00 0.9000E+01
       -2 -1    0    0    0  501 0.00000000E+00 0.00000000E+00 -.32648691E+03 0.32648707E+03 0.32000000E+00 0.0000E+00 0.9000E+01
       25  2    1    2    0    0 -.21840307E+03 0.22477956E+03 0.28319236E+03 0.51794428E+03 0.29973758E+03 0.0000E+00 0.0000E+00
       23  2    3    3    0    0 0.37833553E+02 0.52964835E+02 0.64881809E+02 0.12916124E+03 0.90754203E+02 0.0000E+00 0.0000E+00
       23  1    1    2    0    0 0.24063956E+03 -.19664133E+03 -.39879787E+02 0.32631404E+03 0.91188000E+02 0.0000E+00 0.9000E+01
      -11  1    4    4    0    0 0.58235383E+02 0.47319389E+01 0.26084877E+02 0.63985716E+02 0.51099893E-03 0.0000E+00 0.9000E+01
       11  1    4    4    0    0 -.20401830E+02 0.48232896E+02 0.38796933E+02 0.65175524E+02 0.51099893E-03 0.0000E+00 0.9000E+01
       23  1    3    3    0    0 -.25623662E+03 0.17181472E+03 0.21831055E+03 0.38878304E+03 0.91188000E+02 0.0000E+00 0.9000E+01
       21  1    1    2  502  501 -.22236491E+02 -.28138234E+02 -.13647969E+02 0.38380351E+02 0.75000000E+00 0.0000E+00 0.9000E+01
#aMCatNLO 2  0  0  1  1 0.35863934D+02 0.00000000D+00  -5  7  0 0.00000000D+00 0.00000000D+00 0.00000000D+00 0.00000000D+00 0.00000000D+00
  <mgrwgt>
 0.2386300896D-03    1    2    0
 0.403820779183330D+03 0.000000000000000D+00 0.000000000000000D+00 0.403820779183330D+03
 0.403820779183330D+03 0.000000000000000D+00 0.000000000000000D+00 -.403820779183330D+03
 0.353348287758566D+03 0.230923628802454D+03 -.208935938216834D+03 -.139856399567800D+03
 0.572600498307665D+02 0.566361093654664D+02 0.270820540356009D+01 0.798311004915545D+01
 0.553236437783705D+02 -.219389135734151D+02 0.462878587120723D+02 0.209003293750480D+02
 0.341709576998956D+03 -.265620824594506D+03 0.159939874101202D+03 0.110972960143597D+03
 0.000000000000000D+00 -.000000000000000D+00 -.000000000000000D+00 -.000000000000000D+00
 0.413407895485324D+03 0.000000000000000D+00 0.000000000000000D+00 0.413407895485324D+03
 0.439211591772791D+03 0.000000000000000D+00 0.000000000000000D+00 -.439211591772791D+03
 0.352775099523271D+03 0.240639556353156D+03 -.196641325559358D+03 -.139856399567800D+03
 0.589701713336101D+02 0.582353828470916D+02 0.473193889553477D+01 0.798311004915545D+01
 0.563867957525726D+02 -.204018301731360D+02 0.482328963762634D+02 0.209003293750480D+02
 0.340305382166440D+03 -.256236617739024D+03 0.171814724730100D+03 0.110972960143597D+03
 0.441820384822209D+02 -.222364912880882D+02 -.281382344425405D+02 -.258036962874673D+02
0.770513947169D-05 0.000000000000D+00 0.000000000000D+00 0.772017272175D-06 0.393016699949D-08  7 2 -2 23 -11 11 23 21 2 0.85561140D-01 0.50228393D-01 0.15690804D+06 0.15690804D+06 0.15690804D+06 0.11060121D+01  1  2  1  1  7  1        2 0.238630089630D-03 0.100000000000D+01
  </mgrwgt>
  </event>
  <event>
  8     66 0.29152272E-05 0.38794323E+03 0.75467711E-02 0.91986751E-01
        2 -1    0    0  501    0 0.00000000E+00 0.00000000E+00 0.22135812E+04 0.22135812E+04 0.32000000E+00 0.0000E+00 0.9000E+01
       -2 -1    0    0    0  501 0.00000000E+00 0.00000000E+00 -.11624738E+03 0.11624782E+03 0.32000000E+00 0.0000E+00 0.9000E+01
       25  2    1    2    0    0 -.43961964E+02 -.35924315E+03 0.48761925E+03 0.67741126E+03 0.30020857E+03 0.0000E+00 0.0000E+00
       23  2    3    3    0    0 -.41829546E+02 -.50964692E+02 0.27374359E+02 0.11600163E+03 0.91432557E+02 0.0000E+00 0.0000E+00
       23  1    1    2    0    0 0.43961964E+02 0.35924315E+03 0.16097145E+04 0.16524178E+04 0.91188000E+02 0.0000E+00 0.9000E+01
      -13  1    4    4    0    0 -.11810990E+02 0.84996172E+01 0.44836713E+02 0.47138996E+02 0.10565837E+00 0.0000E+00 0.9000E+01
       13  1    4    4    0    0 -.30018556E+02 -.59464309E+02 -.17462354E+02 0.68862636E+02 0.10565837E+00 0.0000E+00 0.9000E+01
       23  1    3    3    0    0 -.21324185E+01 -.30827846E+03 0.46024489E+03 0.56140963E+03 0.91188000E+02 0.0000E+00 0.9000E+01
#aMCatNLO 1  0  0  1  2 0.40827883D+03 0.00000000D+00  -5  7  0 0.00000000D+00 0.00000000D+00 0.00000000D+00 0.00000000D+00 0.00000000D+00
  <mgrwgt>
 0.5533009848D-03    6    2    0
 0.507270690507614D+03 0.000000000000000D+00 0.000000000000000D+00 0.507270690507614D+03
 0.507270690507614D+03 0.000000000000000D+00 0.000000000000000D+00 -.507270690507614D+03
 0.466952013767589D+03 0.439619639942026D+02 0.359243149937137D+03 0.280607620642460D+03
 0.155617170479631D+02 -.118109654545742D+02 0.849970795593380D+01 0.551571365967791D+01
 0.194238303381440D+03 -.300185800575800D+02 -.594643994467430D+02 -.182459279156378D+03
 0.337789346818236D+03 -.213241848204843D+01 -.308278458446328D+03 -.103664055145760D+03
 0.000000000000000D+00 -.000000000000000D+00 0.000000000000000D+00 0.000000000000000D+00
 0.885161548383761D+03 0.000000000000000D+00 0.000000000000000D+00 0.885161548383761D+03
 0.669968612058493D+03 0.000000000000000D+00 0.000000000000000D+00 -.669968612058493D+03
 0.372950315445999D+03 0.982048711967464D+02 0.205892819102265D+03 0.280607620642460D+03
 0.119648142722691D+02 -.100332360304764D+02 0.347388228802971D+01 0.551571365967791D+01
 0.227908474652944D+03 -.275532847425365D+01 -.136540442482677D+03 -.182459279156378D+03
 0.480787758968895D+03 0.507332546360537D+02 -.457735205522912D+03 -.103664055145760D+03
 0.461518797102147D+03 -.136149561328070D+03 0.384908946615295D+03 0.215192936325268D+03
0.234266968865D-04 0.000000000000D+00 0.000000000000D+00 0.151993172256D-05 0.000000000000D+00  7 2 -2 23 -13 13 23 21 0 0.34055099D+00 0.17884248D-01 0.15049995D+06 0.15049995D+06 0.15049995D+06 0.11074379D+01  1  2  2  1  7  1        2 0.381094657298D-03 0.100000000000D+01
-.118767027828D-05 0.000000000000D+00 -.899646844352D-07 0.151993172256D-05 0.000000000000D+00  7 2 -2 23 -13 13 23 21 2 0.34055099D+00 0.17884248D-01 0.15049995D+06 0.15049995D+06 0.15049995D+06 0.11074379D+01  1  2  3  1  7  1        2 -.236949849081D-04 0.100000000000D+01
0.143781013359D-05 0.000000000000D+00 0.000000000000D+00 0.151993172256D-05 0.000000000000D+00  7 2 -2 23 -13 13 23 21 2 0.34055099D+00 0.17884248D-01 0.15049995D+06 0.15049995D+06 0.15049995D+06 0.11074379D+01  1  2 15  1  7  1        2 0.286854778125D-04 0.100000000000D+01
-.605803091460D-05 0.000000000000D+00 -.560123480108D-05 0.151993172256D-05 0.000000000000D+00  7 2 -2 23 -13 13 23 21 2 0.63092223D+00 0.17884248D-01 0.15049995D+06 0.15049995D+06 0.15049995D+06 0.11074379D+01  1  2  5  1  7  1        2 -.674757086857D-05 0.100000000000D+01
0.871971153347D-05 0.000000000000D+00 0.468248786449D-05 0.151993172256D-05 0.000000000000D+00  7 2 -2 23 -13 13 23 21 2 0.34055099D+00 0.17884248D-01 0.15049995D+06 0.15049995D+06 0.15049995D+06 0.11074379D+01  1  2  6  1  7  1        2 0.173965314252D-03 0.100000000000D+01
-.972367869554D-07 0.000000000000D+00 -.376667320825D-06 0.151993172256D-05 0.000000000000D+00  7 21 -2 23 -13 13 23 -2 2 0.63092223D+00 0.17884248D-01 0.15049995D+06 0.15049995D+06 0.15049995D+06 0.11074379D+01  1  2  5  3  7  1        2 -.190873806407D-08 0.100000000000D+01
  </mgrwgt>
  </event>
  <event>
  6     66 0.29152272E-05 0.67570959E+03 0.75467711E-02 0.83516163E-01
        2 -1    0    0  501    0 0.00000000E+00 0.00000000E+00 0.17627612E+04 0.17627612E+04 0.32000000E+00 0.0000E+00 0.9000E+01
       -2 -1    0    0    0  501 0.00000000E+00 0.00000000E+00 -.51415301E+03 0.51415311E+03 0.32000000E+00 0.0000E+00 0.9000E+01
       23  1    1    2    0    0 -.38064621E+03 0.13126127E+02 0.11683080E+04 0.12322024E+04 0.91188000E+02 0.0000E+00 0.9000E+01
      -11  1    1    2    0    0 -.19727511E+03 0.24398527E+03 0.21892403E+03 0.38258857E+03 0.51099893E-03 0.0000E+00 0.9000E+01
       11  1    1    2    0    0 0.81300102E+02 -.44794519E+01 -.32328886E+02 0.87606672E+02 0.51099893E-03 0.0000E+00 0.9000E+01
       23  1    1    2    0    0 0.49662122E+03 -.25263194E+03 -.10629500E+03 0.57451668E+03 0.91188000E+02 0.0000E+00 0.9000E+01
#aMCatNLO 1  0  0  1  2 0.12930295D+04 0.00000000D+00  -5  7  0 0.00000000D+00 0.00000000D+00 0.00000000D+00 0.00000000D+00 0.00000000D+00
  <mgrwgt>
 0.9013692320D-03    5    2    0
 0.952013183878599D+03 0.000000000000000D+00 0.000000000000000D+00 0.952013183878599D+03
 0.952013183878599D+03 0.000000000000000D+00 0.000000000000000D+00 -.952013183878599D+03
 0.707374890567624D+03 -.380646253892320D+03 0.131261282464035D+02 0.589067159682629D+03
 0.313950966714598D+03 -.197275057373429D+03 0.243985224487301D+03 0.109074044218768D+02
 0.125964146627438D+03 0.813001198501244D+02 -.447945380636510D+01 -.961103076757677D+02
 0.756736363847538D+03 0.496621191415625D+03 -.252631898927340D+03 -.503864256428738D+03
 0.000000000000000D+00 0.000000000000000D+00 -.000000000000000D+00 0.000000000000000D+00
 0.280399595708113D+04 0.000000000000000D+00 0.000000000000000D+00 0.280399595708113D+04
 0.140361716964188D+04 0.000000000000000D+00 0.000000000000000D+00 -.140361716964188D+04
 0.103641142108239D+04 -.743133720373911D+03 0.408148915755856D+03 0.589067159682629D+03
 0.592161426334806D+03 -.385632073086701D+03 0.449248358454989D+03 0.109074044218768D+02
 0.112694269209821D+03 0.316892908549708D+02 0.495842305205399D+02 -.961103076757677D+02
 0.560306638094720D+03 0.222842473328532D+03 0.457200232211742D+02 -.503864256428738D+03
 0.190603937200129D+04 0.874234029277110D+03 -.952701527952559D+03 0.140037878743925D+04
0.539446323652D-03 0.000000000000D+00 0.000000000000D+00 0.199975788978D-13 0.000000000000D+00  7 2 -2 23 -11 11 23 21 0 0.27119404D+00 0.79100472D-01 0.45658345D+06 0.45658345D+06 0.45658345D+06 0.10713097D+01  1  2  2  1  7  1        2 0.890593346431D-03 0.100000000000D+01
-.256869298771D-04 0.000000000000D+00 -.207161592230D-05 0.199975788978D-13 0.000000000000D+00  7 2 -2 23 -11 11 23 21 2 0.27119404D+00 0.79100472D-01 0.45658345D+06 0.45658345D+06 0.45658345D+06 0.10713097D+01  1  2  3  1  7  1        2 -.486713615629D-04 0.100000000000D+01
0.313788801514D-04 0.000000000000D+00 0.000000000000D+00 0.199975788978D-13 0.000000000000D+00  7 2 -2 23 -11 11 23 21 2 0.27119404D+00 0.79100472D-01 0.45658345D+06 0.45658345D+06 0.45658345D+06 0.10713097D+01  1  2 15  1  7  1        2 0.594564172750D-04 0.100000000000D+01
-.487224045309D-05 0.000000000000D+00 -.137703123497D-03 0.199975788978D-13 0.000000000000D+00  7 2 -2 23 -11 11 23 21 2 0.82511623D+00 0.79100472D-01 0.45658345D+06 0.45658345D+06 0.45658345D+06 0.10713097D+01  1  2  5  1  7  1        2 -.922099736114D-08 0.100000000000D+01
0.607831439436D-05 0.000000000000D+00 -.174799999640D-04 0.199975788978D-13 0.000000000000D+00  7 21 -2 23 -11 11 23 -2 2 0.82511623D+00 0.79100472D-01 0.45658345D+06 0.45658345D+06 0.45658345D+06 0.10713097D+01  1  2  5  3  7  1        2 0.508600666217D-10 0.100000000000D+01
  </mgrwgt>
  </event>
  <event>
  7     66 0.29152272E-05 0.14568040E+03 0.75467711E-02 0.10296218E+00
        4 -1    0    0  501    0 0.00000000E+00 0.00000000E+00 0.83365034E+03 0.83365178E+03 0.15500000E+01 0.0000E+00 0.9000E+01
       -4 -1    0    0    0  501 0.00000000E+00 0.00000000E+00 -.75453508E+02 0.75469426E+02 0.15500000E+01 0.0000E+00 0.9000E+01
       23  2    1    2    0    0 -.11852677E+03 0.32035744E+02 0.57146884E+03 0.59124076E+03 0.88961341E+02 0.0000E+00 0.0000E+00
       23  1    1    2    0    0 0.74039585E+01 0.80818729E+01 0.19779244E+02 0.93950014E+02 0.91188000E+02 0.0000E+00 0.9000E+01
      -13  1    3    3    0    0 -.32955830E+02 0.35678667E+02 0.35721660E+03 0.36050349E+03 0.10565837E+00 0.0000E+00 0.9000E+01
       13  1    3    3    0    0 -.85570939E+02 -.36429221E+01 0.21425224E+03 0.23073727E+03 0.10565837E+00 0.0000E+00 0.9000E+01
       23  1    1    2    0    0 0.11112281E+03 -.40117617E+02 0.16694875E+03 0.22393043E+03 0.91188000E+02 0.0000E+00 0.9000E+01
#aMCatNLO 1  0  0  2  1 0.12874499D+03 0.00000000D+00  -5  7  0 0.00000000D+00 0.00000000D+00 0.00000000D+00 0.00000000D+00 0.00000000D+00
  <mgrwgt>
 0.3057475418D-05    7    2    0
 0.250818128312342D+03 0.000000000000000D+00 0.000000000000000D+00 0.250818128312342D+03
 0.250818128312342D+03 0.000000000000000D+00 0.000000000000000D+00 -.250818128312342D+03
 0.140395114976497D+03 0.740612131658060D+01 0.808423375526549D+01 -.106185363854433D+03
 0.113433626206616D+03 -.329503195507983D+02 0.356759440841337D+02 0.102511906672290D+03
 0.943288891811896D+02 -.855619930263341D+02 -.364656431208767D+01 0.395447499958782D+02
 0.153478626260381D+03 0.111106191260552D+03 -.401136135273115D+02 -.358712928137357D+02
 0.000000000000000D+00 -.000000000000000D+00 0.000000000000000D+00 -.000000000000000D+00
 0.275936776992439D+03 0.000000000000000D+00 0.000000000000000D+00 0.275936776992439D+03
 0.502847737821223D+03 0.000000000000000D+00 0.000000000000000D+00 -.502847737821223D+03
 0.146292681308848D+03 0.425511852242218D+02 -.601996385275468D+00 -.106185363854433D+03
 0.106703379672311D+03 -.596371865498915D+01 0.290061076966414D+02 0.102511906672290D+03
 0.762925505695467D+02 -.646455065844593D+02 -.881614987446097D+01 0.395447499958782D+02
 0.188605398272243D+03 0.153042280134094D+03 -.504782701433026D+02 -.358712928137357D+02
 0.260890504990713D+03 -.124984240118867D+03 0.308903087063977D+02 -.226910960828784D+03
0.134363170097D-05 0.000000000000D+00 0.000000000000D+00 0.390437531124D-10 0.000000000000D+00  7 4 -4 23 -13 13 23 21 0 0.12825523D+00 0.11609567D-01 0.35208126D+05 0.35208126D+05 0.35208126D+05 0.11609400D+01  1  2  2  2  7  2       -4 0.671198373735D-05 0.100000000000D+01
-.670022185325D-07 0.000000000000D+00 -.515989951807D-08 0.390437531124D-10 0.000000000000D+00  7 4 -4 23 -13 13 23 21 2 0.12825523D+00 0.11609567D-01 0.35208126D+05 0.35208126D+05 0.35208126D+05 0.11609400D+01  1  2  3  2  7  2       -4 -.451106829829D-06 0.100000000000D+01
0.846568641793D-07 0.000000000000D+00 0.000000000000D+00 0.390437531124D-10 0.000000000000D+00  7 4 -4 23 -13 13 23 21 2 0.12825523D+00 0.11609567D-01 0.35208126D+05 0.35208126D+05 0.35208126D+05 0.11609400D+01  1  2 15  2  7  2       -4 0.569970524255D-06 0.100000000000D+01
0.406109568386D-06 0.000000000000D+00 0.000000000000D+00 0.390437531124D-10 0.000000000000D+00  7 4 -4 23 -13 13 23 21 2 0.12825523D+00 0.23307065D-01 0.64870456D+05 0.64870456D+05 0.64870456D+05 0.11374800D+01  1  2 12  2  7  2       -4 0.774326633290D-06 0.100000000000D+01
-.142882681626D-05 0.000000000000D+00 -.423906830273D-06 0.390437531124D-10 0.000000000000D+00  7 4 -4 23 -13 13 23 21 2 0.12825523D+00 0.25315976D-01 0.35208126D+05 0.35208126D+05 0.35208126D+05 0.11609400D+01  1  2  5  2  7  2       -4 -.238581258269D-05 0.100000000000D+01
0.306196826126D-07 0.000000000000D+00 0.000000000000D+00 0.390437531124D-10 0.000000000000D+00  7 4 21 23 -13 13 23 4 2 0.12825523D+00 0.23307065D-01 0.64870456D+05 0.64870456D+05 0.64870456D+05 0.11374800D+01  1  2 12  4  7  2       -4 0.121927210244D-05 0.100000000000D+01
-.940249742165D-07 0.000000000000D+00 -.357994422564D-07 0.390437531124D-10 0.000000000000D+00  7 4 21 23 -13 13 23 4 2 0.12825523D+00 0.25315976D-01 0.35208126D+05 0.35208126D+05 0.35208126D+05 0.11609400D+01  1  2  5  4  7  2       -4 -.338115816712D-05 0.100000000000D+01
  </mgrwgt>
  </event>
  <event>
  8     66 0.29152272E-05 0.25583989E+03 0.75467711E-02 0.10059577E+00
        2 -1    0    0  501    0 0.00000000E+00 0.00000000E+00 0.19903362E+04 0.19903362E+04 0.32000000E+00 0.0000E+00 0.9000E+01
       -2 -1    0    0    0  501 0.00000000E+00 0.00000000E+00 -.34433687E+02 0.34435174E+02 0.32000000E+00 0.0000E+00 0.9000E+01
       25  2    1    2    0    0 -.15445689E+03 -.60844816E+01 0.14259837E+04 0.14652867E+04 0.29956902E+03 0.0000E+00 0.0000E+00
       23  2    3    3    0    0 -.10004262E+03 -.11706388E+03 0.67717500E+03 0.70088688E+03 0.94678171E+02 0.0000E+00 0.0000E+00
       23  1    1    2    0    0 0.15445689E+03 0.60844816E+01 0.52991878E+03 0.55948469E+03 0.91188000E+02 0.0000E+00 0.9000E+01
      -13  1    4    4    0    0 -.78216619E+02 -.22252469E+02 0.25529607E+03 0.26793489E+03 0.10565837E+00 0.0000E+00 0.9000E+01
       13  1    4    4    0    0 -.21825997E+02 -.94811415E+02 0.42187894E+03 0.43295199E+03 0.10565837E+00 0.0000E+00 0.9000E+01
       23  1    3    3    0    0 -.54414269E+02 0.11097940E+03 0.74880874E+03 0.76439985E+03 0.91188000E+02 0.0000E+00 0.9000E+01
#aMCatNLO 1  0  0  2  1 0.90121875D+02 0.00000000D+00  -5  7  0 0.00000000D+00 0.00000000D+00 0.00000000D+00 0.00000000D+00 0.00000000D+00
  <mgrwgt>
 0.5504251607D-03    4    2    0
 0.261794091982086D+03 0.000000000000000D+00 0.000000000000000D+00 0.261794091982086D+03
 0.261794091982086D+03 0.000000000000000D+00 0.000000000000000D+00 -.261794091982086D+03
 0.184036087327597D+03 0.154456886219924D+03 0.608448163333811D+01 -.407440729106704D+02
 0.824553894687494D+02 -.782166777797205D+02 -.222523909738094D+02 -.136335492625825D+02
 0.983115150706826D+02 -.218259359834553D+02 -.948115026805334D+02 0.141266228589275D+02
 0.158785192097144D+03 -.544142724567477D+02 0.110979412021005D+03 0.402509993143254D+02
 0.000000000000000D+00 0.000000000000000D+00 -.000000000000000D+00 0.000000000000000D+00
 0.419251742059070D+03 0.000000000000000D+00 0.000000000000000D+00 0.419251742059070D+03
 0.278862452819819D+03 0.000000000000000D+00 0.000000000000000D+00 -.278862452819819D+03
 0.170476485238956D+03 0.135011521496194D+03 0.293051234660544D+02 -.407440729106704D+02
 0.893750157109586D+02 -.876417452044262D+02 -.109974663155323D+02 -.136335492625825D+02
 0.896574880611327D+02 -.321362214443971D+02 -.824994967458011D+02 0.141266228589275D+02
 0.181778634408419D+03 -.730945346831780D+02 0.133286408298211D+03 0.402509993143254D+02
 0.166826571459423D+03 0.578609798358074D+02 -.690945687029321D+02 0.140389289239251D+03
0.404461885079D-05 0.000000000000D+00 0.000000000000D+00 0.151120055171D-07 0.000000000000D+00  7 2 -2 23 -13 13 23 21 0 0.30620569D+00 0.52976067D-02 0.65454047D+05 0.65454047D+05 0.65454047D+05 0.11371470D+01  1  2  2  2  7  2       -2 0.582740465740D-03 0.100000000000D+01
-.224556441003D-06 0.000000000000D+00 -.155324013596D-07 0.151120055171D-07 0.000000000000D+00  7 2 -2 23 -13 13 23 21 2 0.30620569D+00 0.52976067D-02 0.65454047D+05 0.65454047D+05 0.65454047D+05 0.11371470D+01  1  2  3  2  7  2       -2 -.418365939121D-04 0.100000000000D+01
0.260665124748D-06 0.000000000000D+00 0.000000000000D+00 0.151120055171D-07 0.000000000000D+00  7 2 -2 23 -13 13 23 21 2 0.30620569D+00 0.52976067D-02 0.65454047D+05 0.65454047D+05 0.65454047D+05 0.11371470D+01  1  2 15  2  7  2       -2 0.485639197096D-04 0.100000000000D+01
-.209559942858D-06 0.000000000000D+00 0.000000000000D+00 0.151120055171D-07 0.000000000000D+00  7 2 -2 23 -13 13 23 21 2 0.30620569D+00 0.52976067D-02 0.65454047D+05 0.65454047D+05 0.65454047D+05 0.11371470D+01  1  2  4  2  7  2       -2 -.390426308433D-04 0.100000000000D+01
  </mgrwgt>
  </event>
  <event>
  8     66 0.29152272E-05 0.26804789E+03 0.75467711E-02 0.96995908E-01
        2 -1    0    0  501    0 0.00000000E+00 0.00000000E+00 0.27750024E+03 0.27750042E+03 0.32000000E+00 0.0000E+00 0.9000E+01
       -2 -1    0    0    0  501 0.00000000E+00 0.00000000E+00 -.54366827E+03 0.54366837E+03 0.32000000E+00 0.0000E+00 0.9000E+01
       25  2    1    2    0    0 -.30891114E+02 -.31497279E+03 -.22067320E+03 0.48868247E+03 0.29991962E+03 0.0000E+00 0.0000E+00
       23  2    3    3    0    0 -.37144619E+02 -.21617641E+01 -.73298148E+01 0.99169318E+02 0.91632045E+02 0.0000E+00 0.0000E+00
       23  1    1    2    0    0 0.30891114E+02 0.31497279E+03 -.45494836E+02 0.33248632E+03 0.91188000E+02 0.0000E+00 0.9000E+01
      -11  1    4    4    0    0 0.87232278E+01 0.35327334E+02 -.15149783E+02 0.39416128E+02 0.51099893E-03 0.0000E+00 0.9000E+01
       11  1    4    4    0    0 -.45867847E+02 -.37489098E+02 0.78199680E+01 0.59753190E+02 0.51099893E-03 0.0000E+00 0.9000E+01
       23  1    3    3    0    0 0.62535052E+01 -.31281103E+03 -.21334338E+03 0.38951315E+03 0.91188000E+02 0.0000E+00 0.9000E+01
#aMCatNLO 1  0  0  2  1 0.61546469D+02 0.00000000D+00  -5  7  0 0.00000000D+00 0.00000000D+00 0.00000000D+00 0.00000000D+00 0.00000000D+00
  <mgrwgt>
 0.4360117162D-03    9    2    0
 0.388417543817986D+03 0.000000000000000D+00 0.000000000000000D+00 0.388417543817986D+03
 0.388417543817986D+03 0.000000000000000D+00 0.000000000000000D+00 -.388417543817986D+03
 0.335873235333816D+03 0.308911137085208D+02 0.314972790059877D+03 0.658290170468049D+02
 0.364748022752633D+02 0.872322783555256D+01 0.353273341283703D+02 -.250917526910182D+01
 0.658426493866354D+02 -.458678467065441D+02 -.374890982680029D+02 0.287395655466187D+02
 0.338644400640256D+03 0.625350516247073D+01 -.312811025920245D+03 -.920594073243218D+02
 0.000000000000000D+00 0.000000000000000D+00 0.000000000000000D+00 -.000000000000000D+00
 0.412768764133991D+03 0.000000000000000D+00 0.000000000000000D+00 0.412768764133991D+03
 0.430569591101634D+03 0.000000000000000D+00 0.000000000000000D+00 -.430569591101634D+03
 0.311919268509233D+03 0.302694691282540D+02 0.289359082243292D+03 0.658290170468049D+02
 0.337742681432899D+02 0.865581434491257D+01 0.325496867282956D+02 -.250917526910182D+01
 0.691064242835094D+02 -.459973486068615D+02 -.428249830190611D+02 0.287395655466187D+02
 0.364469389967588D+03 0.557877232031957D+01 -.340612136750642D+03 -.920594073243218D+02
 0.640690043320047D+02 0.149329281337544D+01 0.615283507981159D+02 -.178008269676428D+02
0.132842579727D-04 0.000000000000D+00 0.000000000000D+00 0.568432524190D-06 0.000000000000D+00  7 2 -2 23 -11 11 23 21 0 0.42692366D-01 0.83641294D-01 0.14095442D+06 0.14095442D+06 0.14095442D+06 0.11096899D+01  1  2  2  2  7  2       -2 0.248074531019D-03 0.100000000000D+01
-.736977948356D-06 0.000000000000D+00 -.510150484408D-07 0.568432524190D-06 0.000000000000D+00  7 2 -2 23 -11 11 23 21 2 0.42692366D-01 0.83641294D-01 0.14095442D+06 0.14095442D+06 0.14095442D+06 0.11096899D+01  1  2  3  2  7  2       -2 -.169473827510D-04 0.100000000000D+01
0.859211695585D-06 0.000000000000D+00 0.000000000000D+00 0.568432524190D-06 0.000000000000D+00  7 2 -2 23 -11 11 23 21 2 0.42692366D-01 0.83641294D-01 0.14095442D+06 0.14095442D+06 0.14095442D+06 0.11096899D+01  1  2 15  2  7  2       -2 0.197582431085D-04 0.100000000000D+01
0.182091777864D-04 0.000000000000D+00 0.000000000000D+00 0.568432524190D-06 0.000000000000D+00  7 2 -2 23 -11 11 23 21 2 0.42692366D-01 0.95111873D-01 0.16630876D+06 0.16630876D+06 0.16630876D+06 0.11040319D+01  1  2 12  2  7  2       -2 0.306960413810D-03 0.100000000000D+01
-.167842398729D-04 0.000000000000D+00 0.000000000000D+00 0.568432524190D-06 0.000000000000D+00  7 2 -2 23 -11 11 23 21 2 0.42692366D-01 0.83641294D-01 0.14095442D+06 0.14095442D+06 0.14095442D+06 0.11096899D+01  1  2  4  2  7  2       -2 -.385966687261D-03 0.100000000000D+01
-.501187947057D-04 0.000000000000D+00 -.115075290121D-04 0.568432524190D-06 0.000000000000D+00  7 2 -2 23 -11 11 23 21 2 0.42692366D-01 0.97270854D-01 0.14095442D+06 0.14095442D+06 0.14095442D+06 0.11096899D+01  1  2  5  2  7  2       -2 -.812051563678D-03 0.100000000000D+01
0.513990928420D-04 0.000000000000D+00 0.113776370546D-04 0.568432524190D-06 0.000000000000D+00  7 2 -2 23 -11 11 23 21 2 0.42692366D-01 0.83641294D-01 0.14095442D+06 0.14095442D+06 0.14095442D+06 0.11096899D+01  1  2  6  2  7  2       -2 0.118196223020D-02 0.100000000000D+01
0.365884183511D-06 0.000000000000D+00 0.000000000000D+00 0.568432524190D-06 0.000000000000D+00  7 2 21 23 -11 11 23 2 2 0.42692366D-01 0.95111873D-01 0.16630876D+06 0.16630876D+06 0.16630876D+06 0.11040319D+01  1  2 12  4  7  2       -2 0.584097486736D-04 0.100000000000D+01
-.106839639489D-05 0.000000000000D+00 -.263859089957D-06 0.568432524190D-06 0.000000000000D+00  7 2 21 23 -11 11 23 2 2 0.42692366D-01 0.97270854D-01 0.14095442D+06 0.14095442D+06 0.14095442D+06 0.11096899D+01  1  2  5  4  7  2       -2 -.164187816927D-03 0.100000000000D+01
  </mgrwgt>
  </event>
  <event>
  8     66 0.29152272E-05 0.12492011E+03 0.75467711E-02 0.10251804E+00
        2 -1    0    0  501    0 0.00000000E+00 0.00000000E+00 0.14185130E+04 0.14185131E+04 0.32000000E+00 0.0000E+00 0.9000E+01
       -2 -1    0    0    0  501 0.00000000E+00 0.00000000E+00 -.61825720E+02 0.61826548E+02 0.32000000E+00 0.0000E+00 0.9000E+01
       25  2    1    2    0    0 0.71648018E+01 -.13043388E+03 0.43095469E+03 0.54099917E+03 0.29982299E+03 0.0000E+00 0.0000E+00
       23  2    3    3    0    0 -.14089108E+02 -.13300144E+03 0.41566306E+03 0.44609181E+03 0.91292071E+02 0.0000E+00 0.0000E+00
       23  1    1    2    0    0 -.71648018E+01 0.13043388E+03 0.92573263E+03 0.93934045E+03 0.91188000E+02 0.0000E+00 0.9000E+01
      -11  1    4    4    0    0 -.48629101E+02 -.69619578E+02 0.16979948E+03 0.18985136E+03 0.51099893E-03 0.0000E+00 0.9000E+01
       11  1    4    4    0    0 0.34539993E+02 -.63381863E+02 0.24586358E+03 0.25624045E+03 0.51099893E-03 0.0000E+00 0.9000E+01
       23  1    3    3    0    0 0.21253910E+02 0.25675606E+01 0.15291631E+02 0.94907357E+02 0.91188000E+02 0.0000E+00 0.9000E+01
#aMCatNLO 1  0  0  1  2 0.10273942D+03 0.00000000D+00  -5  7  0 0.00000000D+00 0.00000000D+00 0.00000000D+00 0.00000000D+00 0.00000000D+00
  <mgrwgt>
 0.3379910598D-03    9    2    0
 0.296143933363007D+03 0.000000000000000D+00 0.000000000000000D+00 0.296143933363007D+03
 0.296143933363007D+03 0.000000000000000D+00 0.000000000000000D+00 -.296143933363007D+03
 0.227276597092657D+03 -.716480181927513D+01 0.130433881057316D+03 0.162095862159508D+03
 0.855659737138625D+02 -.486291010438637D+02 -.696195781876102D+02 -.104814465722217D+02
 0.772646249274659D+02 0.345399928262331D+02 -.633818634852907D+02 0.275599445187709D+02
 0.202180670992028D+03 0.212539100369058D+02 0.256756061558444D+01 -.179174360106058D+03
 0.000000000000000D+00 -.000000000000000D+00 0.000000000000000D+00 0.000000000000000D+00
 0.371250143833704D+03 0.000000000000000D+00 0.000000000000000D+00 0.371250143833704D+03
 0.337899336573681D+03 0.000000000000000D+00 0.000000000000000D+00 -.337899336573681D+03
 0.221884594509107D+03 0.292463741144160D+02 0.117418495171741D+03 0.162095862159508D+03
 0.829655170960670D+02 -.349671242814361D+02 -.745031309694972D+02 -.104814465722217D+02
 0.877608600086246D+02 0.479177558162249D+02 -.681638224068480D+02 0.275599445187709D+02
 0.208521546877392D+03 0.545474157778454D+02 -.933339598881297D+01 -.179174360106058D+03
 0.108016961916194D+03 -.967444214270501D+02 0.345818541934168D+02 0.333508072600222D+02
0.227880638706D-05 0.000000000000D+00 0.000000000000D+00 0.383279899420D-06 0.000000000000D+00  7 2 -2 23 -11 11 23 21 0 0.21823284D+00 0.95117157D-02 0.42041576D+05 0.42041576D+05 0.42041576D+05 0.11539774D+01  1  2  2  1  7  1        2 0.275055631494D-03 0.100000000000D+01
-.105795808597D-06 0.000000000000D+00 -.875121654983D-08 0.383279899420D-06 0.000000000000D+00  7 2 -2 23 -11 11 23 21 2 0.21823284D+00 0.95117157D-02 0.42041576D+05 0.42041576D+05 0.42041576D+05 0.11539774D+01  1  2  3  1  7  1        2 -.170049829967D-04 0.100000000000D+01
0.138577689032D-06 0.000000000000D+00 0.000000000000D+00 0.383279899420D-06 0.000000000000D+00  7 2 -2 23 -11 11 23 21 2 0.21823284D+00 0.95117157D-02 0.42041576D+05 0.42041576D+05 0.42041576D+05 0.11539774D+01  1  2 15  1  7  1        2 0.222741456108D-04 0.100000000000D+01
0.950611861622D-06 0.000000000000D+00 0.000000000000D+00 0.383279899420D-06 0.000000000000D+00  7 2 -2 23 -11 11 23 21 2 0.28581752D+00 0.95117157D-02 0.69312687D+05 0.69312687D+05 0.69312687D+05 0.11350241D+01  1  2 12  1  7  1        2 0.860003601048D-04 0.100000000000D+01
-.145701485999D-05 0.000000000000D+00 0.000000000000D+00 0.383279899420D-06 0.000000000000D+00  7 2 -2 23 -11 11 23 21 2 0.21823284D+00 0.95117157D-02 0.42041576D+05 0.42041576D+05 0.42041576D+05 0.11539774D+01  1  2  4  1  7  1        2 -.234191819588D-03 0.100000000000D+01
-.237878131682D-05 0.000000000000D+00 -.101887017682D-05 0.383279899420D-06 0.000000000000D+00  7 2 -2 23 -11 11 23 21 2 0.29273561D+00 0.95117157D-02 0.42041576D+05 0.42041576D+05 0.42041576D+05 0.11539774D+01  1  2  5  1  7  1        2 -.212473533021D-03 0.100000000000D+01
0.260718691454D-05 0.000000000000D+00 0.976450308373D-06 0.383279899420D-06 0.000000000000D+00  7 2 -2 23 -11 11 23 21 2 0.21823284D+00 0.95117157D-02 0.42041576D+05 0.42041576D+05 0.42041576D+05 0.11539774D+01  1  2  6  1  7  1        2 0.419063569142D-03 0.100000000000D+01
0.340213832861D-07 0.000000000000D+00 0.000000000000D+00 0.383279899420D-06 0.000000000000D+00  7 21 -2 23 -11 11 23 -2 2 0.28581752D+00 0.95117157D-02 0.69312687D+05 0.69312687D+05 0.69312687D+05 0.11350241D+01  1  2 12  3  7  1        2 0.771504588991D-06 0.100000000000D+01
-.684505991216D-07 0.000000000000D+00 -.387855723197D-07 0.383279899420D-06 0.000000000000D+00  7 21 -2 23 -11 11 23 -2 2 0.29273561D+00 0.95117157D-02 0.42041576D+05 0.42041576D+05 0.42041576D+05 0.11539774D+01  1  2  5  3  7  1        2 -.150381551120D-05 0.100000000000D+01
  </mgrwgt>
  </event>
  <event>
  8     66 0.29152272E-05 0.19167515E+03 0.75467711E-02 0.95751110E-01
        2 -1    0    0  501    0 0.00000000E+00 0.00000000E+00 0.10076076E+04 0.10076077E+04 0.32000000E+00 0.0000E+00 0.9000E+01
       -2 -1    0    0    0  501 0.00000000E+00 0.00000000E+00 -.74501682E+02 0.74502369E+02 0.32000000E+00 0.0000E+00 0.9000E+01
       25  2    1    2    0    0 0.82851561E+02 0.11778585E+03 0.80770568E+03 0.87050105E+03 0.29093937E+03 0.0000E+00 0.0000E+00
       23  2    3    3    0    0 0.46529427E+02 0.10338774E+03 0.73017405E+03 0.74459232E+03 0.91703654E+02 0.0000E+00 0.0000E+00
       23  1    1    2    0    0 -.82851561E+02 -.11778585E+03 0.12540024E+03 0.21160898E+03 0.91188000E+02 0.0000E+00 0.9000E+01
      -11  1    4    4    0    0 0.34651701E+02 0.85139481E+02 0.70639537E+03 0.71235096E+03 0.51099893E-03 0.0000E+00 0.9000E+01
       11  1    4    4    0    0 0.11877726E+02 0.18248260E+02 0.23778682E+02 0.32241357E+02 0.51099893E-03 0.0000E+00 0.9000E+01
       23  1    3    3    0    0 0.36322134E+02 0.14398110E+02 0.77531628E+02 0.12590873E+03 0.91188000E+02 0.0000E+00 0.9000E+01
#aMCatNLO 1  0  0  1  2 0.36899374D+03 0.00000000D+00  -5  7  0 0.00000000D+00 0.00000000D+00 0.00000000D+00 0.00000000D+00 0.00000000D+00
  <mgrwgt>
 0.1653720715D-02    3    2    0
 0.273986971694934D+03 0.000000000000000D+00 0.000000000000000D+00 0.273986971694934D+03
 0.273986971694934D+03 0.000000000000000D+00 0.000000000000000D+00 -.273986971694934D+03
 0.204339075994196D+03 -.828515609895887D+02 -.117785851402429D+03 -.112700127263260D+03
 0.203842560487922D+03 0.346517006234620D+02 0.851394809013719D+02 0.181940424045947D+03
 0.231775014168843D+02 0.118777263779594D+02 0.182482604950235D+02 -.794463195659589D+01
 0.116614805490867D+03 0.363221339881673D+02 0.143981100060337D+02 -.612956648260910D+02
 0.000000000000000D+00 -.000000000000000D+00 -.000000000000000D+00 -.000000000000000D+00
 0.445883236857611D+03 0.000000000000000D+00 0.000000000000000D+00 0.445883236857611D+03
 0.624851534802877D+03 0.000000000000000D+00 0.000000000000000D+00 -.624851534802877D+03
 0.155313138301161D+03 0.739427627378245D+01 -.552351842414548D+02 -.112700127263260D+03
 0.297586444208160D+03 0.160472920563942D+03 0.172347949335395D+03 0.181940424045947D+03
 0.415160022052952D+02 0.281109627319275D+02 0.294997463797317D+02 -.794463195659589D+01
 0.166214283508361D+03 0.107291106024610D+03 0.635877090304507D+02 -.612956648260910D+02
 0.410104903437512D+03 -.303269265594262D+03 -.210200220504123D+03 -.178968297945266D+03
0.105337790896D-04 0.000000000000D+00 0.000000000000D+00 0.129866539363D-08 0.000000000000D+00  7 2 -2 23 -11 11 23 21 0 0.15501661D+00 0.11461854D-01 0.36739364D+05 0.36739364D+05 0.36739364D+05 0.11592572D+01  1  2  2  1  7  1        2 0.162101749719D-02 0.100000000000D+01
-.494384609169D-06 0.000000000000D+00 -.404524853119D-07 0.129866539363D-08 0.000000000000D+00  7 2 -2 23 -11 11 23 21 2 0.15501661D+00 0.11461854D-01 0.36739364D+05 0.36739364D+05 0.36739364D+05 0.11592572D+01  1  2  3  1  7  1        2 -.102241693164D-03 0.100000000000D+01
0.652519386865D-06 0.000000000000D+00 0.000000000000D+00 0.129866539363D-08 0.000000000000D+00  7 2 -2 23 -11 11 23 21 2 0.15501661D+00 0.11461854D-01 0.36739364D+05 0.36739364D+05 0.36739364D+05 0.11592572D+01  1  2 15  1  7  1        2 0.134944910699D-03 0.100000000000D+01
  </mgrwgt>
  </event>
  <event>
  8     66 0.29152272E-05 0.36948293E+03 0.75467711E-02 0.95980530E-01
        2 -1    0    0  501    0 0.00000000E+00 0.00000000E+00 0.83769176E+03 0.83769182E+03 0.32000000E+00 0.0000E+00 0.9000E+01
       -2 -1    0    0    0  501 0.00000000E+00 0.00000000E+00 -.14471915E+04 0.14471916E+04 0.32000000E+00 0.0000E+00 0.9000E+01
       25  2    1    2    0    0 -.35945183E+03 0.20478545E+03 -.13435050E+04 0.14374038E+04 0.29996871E+03 0.0000E+00 0.0000E+00
       23  2    3    3    0    0 -.10635327E+03 0.69332247E+02 -.19488867E+03 0.24995223E+03 0.91523453E+02 0.0000E+00 0.0000E+00
       23  1    1    2    0    0 0.35945183E+03 -.20478545E+03 0.73400525E+03 0.84747959E+03 0.91188000E+02 0.0000E+00 0.9000E+01
      -11  1    4    4    0    0 -.12113078E+03 0.47947066E+02 -.16740999E+03 0.21212659E+03 0.51099893E-03 0.0000E+00 0.9000E+01
       11  1    4    4    0    0 0.14777506E+02 0.21385182E+02 -.27478682E+02 0.37825634E+02 0.51099893E-03 0.0000E+00 0.9000E+01
       23  1    3    3    0    0 -.25309855E+03 0.13545321E+03 -.11486164E+04 0.11874516E+04 0.91188000E+02 0.0000E+00 0.9000E+01
#aMCatNLO 1  0  0  1  2 0.78812070D+01 0.00000000D+00  -5  7  0 0.00000000D+00 0.00000000D+00 0.00000000D+00 0.00000000D+00 0.00000000D+00
  <mgrwgt>
 0.8632503854D-03   10    2    0
 0.110104520248452D+04 0.000000000000000D+00 0.000000000000000D+00 0.110104520248452D+04
 0.110104520248452D+04 0.000000000000000D+00 0.000000000000000D+00 -.110104520248452D+04
 0.108250237307945D+04 0.359451829002879D+03 -.204785453555741D+03 0.996169381690230D+03
 0.173765879725209D+03 -.121130779808216D+03 0.479470657319409D+02 -.114991278049364D+03
 0.316421675659700D+02 0.147775057969993D+02 0.213851815776781D+02 -.180423418541585D+02
 0.914179984598406D+03 -.253098554991662D+03 0.135453206246122D+03 -.863135761786708D+03
 0.000000000000000D+00 0.000000000000000D+00 -.000000000000000D+00 0.000000000000000D+00
 0.110834855143221D+04 0.000000000000000D+00 0.000000000000000D+00 0.110834855143221D+04
 0.110318050563314D+04 0.000000000000000D+00 0.000000000000000D+00 -.110318050563314D+04
 0.108140162839001D+04 0.358206638590018D+03 -.201118864340235D+03 0.996169381690230D+03
 0.174068885965976D+03 -.121330936800026D+03 0.485364482552854D+02 -.114991278049364D+03
 0.316978348405072D+02 0.147410576164453D+02 0.214925069347993D+02 -.180423418541585D+02
 0.914936159013877D+03 -.254151096086132D+03 0.138552520042632D+03 -.863135761786708D+03
 0.942454885498100D+01 0.253433667969378D+01 -.746261089248098D+01 0.516804579907208D+01
0.825579164762D-03 0.000000000000D+00 0.000000000000D+00 0.102893387345D-04 0.000000000000D+00  7 2 -2 23 -11 11 23 21 0 0.12887566D+00 0.22264486D+00 0.19408188D+06 0.19408188D+06 0.19408188D+06 0.10988287D+01  1  2  2  1  7  1        2 0.305495505343D-03 0.100000000000D+01
0.924840389087D-06 0.000000000000D+00 -.317044137267D-05 0.102893387345D-04 0.000000000000D+00  7 2 -2 23 -11 11 23 21 2 0.12887566D+00 0.22264486D+00 0.19408188D+06 0.19408188D+06 0.19408188D+06 0.10988287D+01  1  2  3  1  7  1        2 0.413211939738D-06 0.100000000000D+01
0.478554855087D-04 0.000000000000D+00 0.000000000000D+00 0.102893387345D-04 0.000000000000D+00  7 2 -2 23 -11 11 23 21 2 0.12887566D+00 0.22264486D+00 0.19408188D+06 0.19408188D+06 0.19408188D+06 0.10988287D+01  1  2 15  1  7  1        2 0.213814818508D-04 0.100000000000D+01
-.213582367352D-03 0.000000000000D+00 0.000000000000D+00 0.102893387345D-04 0.000000000000D+00  7 2 -2 23 -11 11 23 21 2 0.12887566D+00 0.22264486D+00 0.19408188D+06 0.19408188D+06 0.19408188D+06 0.10988287D+01  1  2  4  1  7  1        2 -.954270437893D-04 0.100000000000D+01
-.120670635688D+00 0.000000000000D+00 -.128637863311D-01 0.102893387345D-04 0.000000000000D+00  7 2 -2 23 -11 11 23 21 2 0.12988868D+00 0.22264486D+00 0.19408188D+06 0.19408188D+06 0.19408188D+06 0.10988287D+01  1  2  5  1  7  1        2 -.533676608356D-01 0.100000000000D+01
0.120768047643D+00 0.000000000000D+00 0.128633920400D-01 0.102893387345D-04 0.000000000000D+00  7 2 -2 23 -11 11 23 21 2 0.12887566D+00 0.22264486D+00 0.19408188D+06 0.19408188D+06 0.19408188D+06 0.10988287D+01  1  2  6  1  7  1        2 0.539582827629D-01 0.100000000000D+01
0.213587320352D-03 0.000000000000D+00 0.000000000000D+00 0.102893387345D-04 0.106562353315D-05  7 2 -2 23 -11 11 23 21 2 0.12973051D+00 0.22307664D+00 0.19754200D+06 0.19754200D+06 0.19754200D+06 0.10982381D+01  1  2 11  1  7  1        2 0.937890524842D-04 0.100000000000D+01
0.445654366539D-04 0.000000000000D+00 0.000000000000D+00 0.102893387345D-04 0.000000000000D+00  7 21 -2 23 -11 11 23 -2 2 0.12985494D+00 0.22264486D+00 0.19754200D+06 0.19754200D+06 0.19754200D+06 0.10982381D+01  1  2 12  3  7  1        2 0.181316325004D-04 0.100000000000D+01
-.174797232312D-03 0.000000000000D+00 -.186650320037D-04 0.102893387345D-04 0.000000000000D+00  7 21 -2 23 -11 11 23 -2 2 0.12988868D+00 0.22264486D+00 0.19408188D+06 0.19408188D+06 0.19408188D+06 0.10988287D+01  1  2  5  3  7  1        2 -.712784890471D-04 0.100000000000D+01
0.303739895404D-06 0.000000000000D+00 0.000000000000D+00 0.102893387345D-04 0.130791623319D-08  7 21 -2 23 -11 11 23 -2 2 0.12973051D+00 0.22307664D+00 0.19754200D+06 0.19754200D+06 0.19754200D+06 0.10982381D+01  1  2 11  3  7  1        2 0.123106821556D-06 0.100000000000D+01
  </mgrwgt>
  </event>
  <event>
  9     66 0.29152272E-05 0.66845280E+03 0.75467711E-02 0.91122501E-01
        2 -1    0    0  501    0 0.00000000E+00 0.00000000E+00 0.15512447E+04 0.15512447E+04 0.32000000E+00 0.0000E+00 0.9000E+01
       -2 -1    0    0    0  502 0.00000000E+00 0.00000000E+00 -.32197154E+03 0.32197170E+03 0.32000000E+00 0.0000E+00 0.9000E+01
       25  2    1    2    0    0 -.35659082E+03 0.55613750E+03 0.51366244E+03 0.88964814E+03 0.30195824E+03 0.0000E+00 0.0000E+00
       23  2    3    3    0    0 -.12551865E+03 0.37103941E+03 0.20108154E+03 0.44955983E+03 0.90802407E+02 0.0000E+00 0.0000E+00
       23  1    1    2    0    0 0.34310593E+03 -.51790043E+03 0.63330332E+03 0.89181326E+03 0.91188000E+02 0.0000E+00 0.9000E+01
      -13  1    4    4    0    0 -.18776300E+02 0.18369762E+03 0.71591342E+02 0.19804721E+03 0.10565837E+00 0.0000E+00 0.9000E+01
       13  1    4    4    0    0 -.10674235E+03 0.18734179E+03 0.12949020E+03 0.25151262E+03 0.10565837E+00 0.0000E+00 0.9000E+01
       23  1    3    3    0    0 -.23107217E+03 0.18509809E+03 0.31258090E+03 0.44008831E+03 0.91188000E+02 0.0000E+00 0.9000E+01
       21  1    1    2  501  502 0.13484886E+02 -.38237071E+02 0.82307376E+02 0.91755013E+02 0.75000000E+00 0.0000E+00 0.9000E+01
#aMCatNLO 2  0  0  2  1 0.40545231D+02 0.00000000D+00  -5  7  0 0.00000000D+00 0.00000000D+00 0.00000000D+00 0.00000000D+00 0.00000000D+00
  <mgrwgt>
 0.1548401040D-03    2    2    0
 0.681254417115897D+03 0.000000000000000D+00 0.000000000000000D+00 0.681254417115897D+03
 0.681254417115897D+03 0.000000000000000D+00 0.000000000000000D+00 -.681254417115897D+03
 0.650845981007633D+03 0.349455903903904D+03 -.535906083041483D+03 0.772688878891692D+02
 0.193336978073734D+03 -.168371387687580D+02 0.178199362741475D+03 -.730799901977101D+02
 0.213529937536345D+03 -.104598849516213D+03 0.181263465433594D+03 -.423989504960209D+02
 0.304795937614082D+03 -.228019915618933D+03 0.176443254866414D+03 0.382100528045618D+02
 0.000000000000000D+00 0.000000000000000D+00 -.000000000000000D+00 0.000000000000000D+00
 0.722064026526552D+03 0.000000000000000D+00 0.000000000000000D+00 0.722064026526552D+03
 0.691701597746202D+03 0.000000000000000D+00 0.000000000000000D+00 -.691701597746202D+03
 0.632635967424753D+03 0.343105934701675D+03 -.517900427179119D+03 0.772688878891692D+02
 0.198590137956008D+03 -.187761805444112D+02 0.183697612859429D+03 -.730799901977101D+02
 0.219746612692486D+03 -.106742465757455D+03 0.187341796699711D+03 -.423989504960209D+02
 0.312139250587119D+03 -.231072174709631D+03 0.185098088463178D+03 0.382100528045618D+02
 0.506536556123885D+02 0.134848863098219D+02 -.382370708431985D+02 0.303624287803505D+02
-.408372490922D-05 0.000000000000D+00 0.000000000000D+00 0.153554761231D-06 0.000000000000D+00  7 2 -2 23 -13 13 23 21 2 0.22516396D+00 0.48785761D-01 0.44682915D+06 0.44682915D+06 0.44682915D+06 0.10719785D+01  1  2  8  2  7  2       -2 -.313907793494D-04 0.100000000000D+01
0.280982974731D-04 0.000000000000D+00 0.000000000000D+00 0.153554761231D-06 0.572095015703D-09  7 2 -2 23 -13 13 23 21 2 0.23865209D+00 0.49533901D-01 0.47507151D+06 0.47507151D+06 0.47507151D+06 0.10700837D+01  1  2  1  2  7  2       -2 0.186230883366D-03 0.100000000000D+01
  </mgrwgt>
  </event>
  <event>
  8     66 0.29152272E-05 0.18583330E+03 0.75467711E-02 0.96286501E-01
        2 -1    0    0  501    0 0.00000000E+00 0.00000000E+00 0.11121084E+04 0.11121084E+04 0.32000000E+00 0.0000E+00 0.9000E+01
       -2 -1    0    0    0  501 0.00000000E+00 0.00000000E+00 -.46621230E+02 0.46622329E+02 0.32000000E+00 0.0000E+00 0.9000E+01
       25  2    1    2    0    0 -.75953248E+02 0.64687849E+01 0.56354744E+03 0.64291154E+03 0.29989796E+03 0.0000E+00 0.0000E+00
       23  2    3    3    0    0 -.12634643E+03 -.32444313E+01 0.49255778E+03 0.51646549E+03 0.90274529E+02 0.0000E+00 0.0000E+00
       23  1    1    2    0    0 0.75953248E+02 -.64687849E+01 0.50193972E+03 0.51581922E+03 0.91188000E+02 0.0000E+00 0.9000E+01
      -11  1    4    4    0    0 -.12394381E+03 0.19357830E+02 0.45972179E+03 0.47653008E+03 0.51099893E-03 0.0000E+00 0.9000E+01
       11  1    4    4    0    0 -.24026203E+01 -.22602262E+02 0.32835991E+02 0.39935412E+02 0.51099893E-03 0.0000E+00 0.9000E+01
       23  1    3    3    0    0 0.50393182E+02 0.97132162E+01 0.70989658E+02 0.12644604E+03 0.91188000E+02 0.0000E+00 0.9000E+01
#aMCatNLO 1  0  0  1  2 0.36134862D+03 0.00000000D+00  -5  7  0 0.00000000D+00 0.00000000D+00 0.00000000D+00 0.00000000D+00 0.00000000D+00
  <mgrwgt>
 0.3914877315D-03    5    2    0
 0.227702710483299D+03 0.000000000000000D+00 0.000000000000000D+00 0.227702710483299D+03
 0.227702710483299D+03 0.000000000000000D+00 0.000000000000000D+00 -.227702710483299D+03
 0.138086367900090D+03 0.759532477593424D+02 -.646878488681722D+01 0.702983117346000D+02
 0.136894287038054D+03 -.123943809083606D+03 0.193578302411091D+02 0.548019381213847D+02
 0.247868448022277D+02 -.240262032165364D+01 -.226022615776693D+02 -.988700472409672D+01
 0.155637921226226D+03 0.503931816459172D+02 0.971321622337745D+01 -.115213245131888D+03
 0.000000000000000D+00 0.000000000000000D+00 0.000000000000000D+00 0.000000000000000D+00
 0.621007313810625D+03 0.000000000000000D+00 0.000000000000000D+00 0.621007313810625D+03
 0.389493793808167D+03 0.000000000000000D+00 0.000000000000000D+00 -.389493793808167D+03
 0.128666346182837D+03 -.183010490625267D+01 -.573983917835565D+02 0.702983117346000D+02
 0.248616339618228D+03 -.236356194961780D+03 -.542455620903233D+02 0.548019381213847D+02
 0.430607154227674D+02 -.221865266358754D+02 -.355560175798955D+02 -.988700472409672D+01
 0.161005825977545D+03 -.419380710754695D+02 -.507418071747547D+02 -.115213245131888D+03
 0.429151880417415D+03 0.302310897579377D+03 0.197941778628530D+03 0.231513520002458D+03
0.140822783171D-05 0.000000000000D+00 0.000000000000D+00 0.144201364518D-06 0.000000000000D+00  7 2 -2 23 -11 11 23 21 0 0.17109369D+00 0.71725850D-02 0.34534016D+05 0.34534016D+05 0.34534016D+05 0.11617067D+01  1  2  2  1  7  1        2 0.382865356087D-03 0.100000000000D+01
-.743076152209D-07 0.000000000000D+00 -.540796566868D-08 0.144201364518D-06 0.000000000000D+00  7 2 -2 23 -11 11 23 21 2 0.17109369D+00 0.71725850D-02 0.34534016D+05 0.34534016D+05 0.34534016D+05 0.11617067D+01  1  2  3  1  7  1        2 -.272646203707D-04 0.100000000000D+01
0.911840541773D-07 0.000000000000D+00 0.000000000000D+00 0.144201364518D-06 0.000000000000D+00  7 2 -2 23 -11 11 23 21 2 0.17109369D+00 0.71725850D-02 0.34534016D+05 0.34534016D+05 0.34534016D+05 0.11617067D+01  1  2 15  1  7  1        2 0.334568484483D-04 0.100000000000D+01
0.173403966741D-06 0.000000000000D+00 -.417266695831D-06 0.144201364518D-06 0.000000000000D+00  7 2 -2 23 -11 11 23 21 2 0.55213104D+00 0.71725850D-02 0.34534016D+05 0.34534016D+05 0.34534016D+05 0.11617067D+01  1  2  5  1  7  1        2 0.241024643341D-05 0.100000000000D+01
0.410706488810D-07 0.000000000000D+00 -.563855449382D-07 0.144201364518D-06 0.000000000000D+00  7 21 -2 23 -11 11 23 -2 2 0.55213104D+00 0.71725850D-02 0.34534016D+05 0.34534016D+05 0.34534016D+05 0.11617067D+01  1  2  5  3  7  1        2 0.199009009187D-07 0.100000000000D+01
  </mgrwgt>
  </event>
  <event>
  8     66 0.29152272E-05 0.53779942E+03 0.75467711E-02 0.85694493E-01
        2 -1    0    0  501    0 0.00000000E+00 0.00000000E+00 0.16666189E+04 0.16666190E+04 0.32000000E+00 0.0000E+00 0.9000E+01
       -2 -1    0    0    0  501 0.00000000E+00 0.00000000E+00 -.20740323E+03 0.20740348E+03 0.32000000E+00 0.0000E+00 0.9000E+01
       25  2    1    2    0    0 -.47356745E+03 0.17578002E+03 0.10991996E+04 0.12470523E+04 0.30287762E+03 0.0000E+00 0.0000E+00
       23  2    3    3    0    0 -.27101915E+02 0.13446309E+02 0.11099097E+03 0.14679991E+03 0.91191559E+02 0.0000E+00 0.0000E+00
       23  1    1    2    0    0 0.47356745E+03 -.17578002E+03 0.36001607E+03 0.62697015E+03 0.91188000E+02 0.0000E+00 0.9000E+01
      -13  1    4    4    0    0 -.24660491E+02 -.27846492E+02 0.11311550E+02 0.38878390E+02 0.10565837E+00 0.0000E+00 0.9000E+01
       13  1    4    4    0    0 -.24414240E+01 0.41292801E+02 0.99679421E+02 0.10792152E+03 0.10565837E+00 0.0000E+00 0.9000E+01
       23  1    3    3    0    0 -.44646554E+03 0.16233371E+03 0.98820867E+03 0.11002524E+04 0.91188000E+02 0.0000E+00 0.9000E+01
#aMCatNLO 1  0  0  1  2 0.95826367D+03 0.00000000D+00  -5  7  0 0.00000000D+00 0.00000000D+00 0.00000000D+00 0.00000000D+00 0.00000000D+00
  <mgrwgt>
 0.6489111780D-03    3    2    0
 0.587930621724923D+03 0.000000000000000D+00 0.000000000000000D+00 0.587930621724923D+03
 0.587930621724923D+03 0.000000000000000D+00 0.000000000000000D+00 -.587930621724923D+03
 0.552458918921045D+03 0.473567450690530D+03 -.175780022223878D+03 -.204281323632034D+03
 0.479248587285728D+02 -.246605208917413D+02 -.278465842668536D+02 -.302195059220146D+02
 0.482995524751007D+02 -.244139474357684D+01 0.412928937464684D+02 0.249355827492344D+02
 0.527177913325128D+03 -.446465535055211D+03 0.162333712744263D+03 0.209565246804814D+03
 0.000000000000000D+00 0.000000000000000D+00 -.000000000000000D+00 -.000000000000000D+00
 0.102450956146529D+04 0.000000000000000D+00 0.000000000000000D+00 0.102450956146529D+04
 0.162124518906913D+04 0.000000000000000D+00 0.000000000000000D+00 -.162124518906913D+04
 0.482625064011314D+03 0.386876825656528D+03 0.182228328349348D+03 -.204281323632034D+03
 0.444974491433418D+02 -.324010982445113D+02 0.411986342530175D+01 -.302195059220146D+02
 0.954816434796379D+02 -.144833951522211D+02 0.910230312579920D+02 0.249355827492344D+02
 0.894273863323870D+03 -.565515336815545D+03 0.653976530494969D+03 0.209565246804814D+03
 0.112887673057625D+04 0.225523004555749D+03 -.931347753527611D+03 -.596735627603843D+03
0.549532332902D-04 0.000000000000D+00 0.000000000000D+00 0.659478089298D-07 0.000000000000D+00  7 2 -2 23 -13 13 23 21 0 0.25640294D+00 0.31908211D-01 0.28922822D+06 0.28922822D+06 0.28922822D+06 0.10857287D+01  1  2  2  1  7  1        2 0.643188316839D-03 0.100000000000D+01
-.302347352507D-05 0.000000000000D+00 -.211034885353D-06 0.659478089298D-07 0.000000000000D+00  7 2 -2 23 -13 13 23 21 2 0.25640294D+00 0.31908211D-01 0.28922822D+06 0.28922822D+06 0.28922822D+06 0.10857287D+01  1  2  3  1  7  1        2 -.417151428978D-04 0.100000000000D+01
0.343826101284D-05 0.000000000000D+00 0.000000000000D+00 0.659478089298D-07 0.000000000000D+00  7 2 -2 23 -13 13 23 21 2 0.25640294D+00 0.31908211D-01 0.28922822D+06 0.28922822D+06 0.28922822D+06 0.10857287D+01  1  2 15  1  7  1        2 0.474380040974D-04 0.100000000000D+01
  </mgrwgt>
  </event>
  <event>
  8     66 0.29152272E-05 0.25716543E+03 0.75467711E-02 0.85966457E-01
        2 -1    0    0  501    0 0.00000000E+00 0.00000000E+00 0.12727654E+04 0.12727654E+04 0.32000000E+00 0.0000E+00 0.9000E+01
       -2 -1    0    0    0  501 0.00000000E+00 0.00000000E+00 -.66181429E+02 0.66182203E+02 0.32000000E+00 0.0000E+00 0.9000E+01
       25  2    1    2    0    0 -.18871500E+03 -.48334705E+01 0.90381637E+03 0.97068118E+03 0.29950161E+03 0.0000E+00 0.0000E+00
       23  2    3    3    0    0 -.77393577E+01 0.34223701E+02 0.56854451E+03 0.57698064E+03 0.91829405E+02 0.0000E+00 0.0000E+00
       23  1    1    2    0    0 0.18871500E+03 0.48334705E+01 0.30276759E+03 0.36826645E+03 0.91188000E+02 0.0000E+00 0.9000E+01
      -13  1    4    4    0    0 -.24741099E+02 0.61427730E+02 0.38152268E+03 0.38722739E+03 0.10565837E+00 0.0000E+00 0.9000E+01
       13  1    4    4    0    0 0.17001741E+02 -.27204029E+02 0.18702183E+03 0.18975324E+03 0.10565837E+00 0.0000E+00 0.9000E+01
       23  1    3    3    0    0 -.18097564E+03 -.39057172E+02 0.33527186E+03 0.39370054E+03 0.91188000E+02 0.0000E+00 0.9000E+01
#aMCatNLO 1  0  0  2  1 0.11063768D+04 0.00000000D+00  -5  7  0 0.00000000D+00 0.00000000D+00 0.00000000D+00 0.00000000D+00 0.00000000D+00
  <mgrwgt>
 0.3581547574D-03    5    2    0
 0.290230903101160D+03 0.000000000000000D+00 0.000000000000000D+00 0.290230903101160D+03
 0.290230903101160D+03 0.000000000000000D+00 0.000000000000000D+00 -.290230903101160D+03
 0.220126410266974D+03 0.188714999801139D+03 0.483347052738289D+01 -.671093999804868D+02
 0.100158346709494D+03 -.247411533772539D+02 0.614278465477502D+02 0.751411299731938D+02
 0.489473710389971D+02 0.170017960263680D+02 -.272041454478902D+02 0.369691565221207D+02
 0.211229678186855D+03 -.180975642450253D+03 -.390571716272429D+02 -.450008865148277D+02
 0.000000000000000D+00 0.000000000000000D+00 -.000000000000000D+00 -.000000000000000D+00
 0.105193328973184D+04 0.000000000000000D+00 0.000000000000000D+00 0.105193328973184D+04
 0.134097988073082D+04 0.000000000000000D+00 0.000000000000000D+00 -.134097988073082D+04
 0.376872689696337D+03 0.826045841558422D+02 0.349843656517666D+03 -.671093999804868D+02
 0.341356295535085D+03 -.103215814737608D+03 0.316582416877248D+03 0.751411299731938D+02
 0.462685598540619D+02 0.781490665363336D-01 0.278218437515426D+02 0.369691565221207D+02
 0.484904541850476D+03 -.304706300398674D+03 0.363243931915527D+03 -.450008865148277D+02
 0.114351108352670D+04 0.325239381913904D+03 -.105749184906198D+04 -.289046590998985D+03
0.264185362307D-05 0.000000000000D+00 0.000000000000D+00 0.127758426878D-06 0.000000000000D+00  7 2 -2 23 -13 13 23 21 0 0.19581012D+00 0.10181821D-01 0.66134057D+05 0.66134057D+05 0.66134057D+05 0.11367630D+01  1  2  2  2  7  2       -2 0.344058211285D-03 0.100000000000D+01
-.144158797517D-06 0.000000000000D+00 -.101454135286D-07 0.127758426878D-06 0.000000000000D+00  7 2 -2 23 -13 13 23 21 2 0.19581012D+00 0.10181821D-01 0.66134057D+05 0.66134057D+05 0.66134057D+05 0.11367630D+01  1  2  3  2  7  2       -2 -.242607500109D-04 0.100000000000D+01
0.170111853387D-06 0.000000000000D+00 0.000000000000D+00 0.127758426878D-06 0.000000000000D+00  7 2 -2 23 -13 13 23 21 2 0.19581012D+00 0.10181821D-01 0.66134057D+05 0.66134057D+05 0.66134057D+05 0.11367630D+01  1  2 15  2  7  2       -2 0.286284376672D-04 0.100000000000D+01
0.166659687501D-04 0.000000000000D+00 -.437476155405D-05 0.127758426878D-06 0.000000000000D+00  7 2 -2 23 -13 13 23 21 2 0.19581012D+00 0.24908441D+00 0.66134057D+05 0.66134057D+05 0.66134057D+05 0.11367630D+01  1  2  5  2  7  2       -2 0.319129648763D-05 0.100000000000D+01
0.430868204337D-05 0.000000000000D+00 -.144767690897D-05 0.127758426878D-06 0.000000000000D+00  7 2 21 23 -13 13 23 2 2 0.19581012D+00 0.24908441D+00 0.66134057D+05 0.66134057D+05 0.66134057D+05 0.11367630D+01  1  2  5  4  7  2       -2 0.653756198233D-05 0.100000000000D+01
  </mgrwgt>
  </event>
  <event>
  8     66 0.29152272E-05 0.17349804E+03 0.75467711E-02 0.10555136E+00
        2 -1    0    0  501    0 0.00000000E+00 0.00000000E+00 0.24407314E+04 0.24407314E+04 0.32000000E+00 0.0000E+00 0.9000E+01
       -2 -1    0    0    0  501 0.00000000E+00 0.00000000E+00 -.65049805E+02 0.65050592E+02 0.32000000E+00 0.0000E+00 0.9000E+01
       25  2    1    2    0    0 -.18322256E+02 -.13944431E+03 0.38375908E+03 0.50681954E+03 0.29969083E+03 0.0000E+00 0.0000E+00
       23  2    3    3    0    0 -.51510819E+02 -.63578032E+02 0.30227686E+02 0.13244423E+03 0.99660579E+02 0.0000E+00 0.0000E+00
       23  1    1    2    0    0 0.18322256E+02 0.13944431E+03 0.19919225E+04 0.19989624E+04 0.91188000E+02 0.0000E+00 0.9000E+01
      -13  1    4    4    0    0 -.29213985E+01 0.20037720E+02 -.15469624E+02 0.25482646E+02 0.10565837E+00 0.0000E+00 0.9000E+01
       13  1    4    4    0    0 -.48589420E+02 -.83615752E+02 0.45697310E+02 0.10696159E+03 0.10565837E+00 0.0000E+00 0.9000E+01
       23  1    3    3    0    0 0.33188563E+02 -.75866274E+02 0.35353140E+03 0.37437531E+03 0.91188000E+02 0.0000E+00 0.9000E+01
#aMCatNLO 1  0  0  1  2 0.18165618D+02 0.00000000D+00  -5  7  0 0.00000000D+00 0.00000000D+00 0.00000000D+00 0.00000000D+00 0.00000000D+00
  <mgrwgt>
 0.8147699367D-03    9    2    0
 0.398459675701535D+03 0.000000000000000D+00 0.000000000000000D+00 0.398459675701535D+03
 0.398459675701535D+03 0.000000000000000D+00 0.000000000000000D+00 -.398459675701535D+03
 0.347325678949951D+03 0.183222562415529D+02 0.139444305673014D+03 0.304202985612624D+03
 0.126242119933971D+03 -.292135292045800D+01 0.200378272040118D+02 -.124607479805506D+03
 0.200095810989914D+03 -.485894693542613D+02 -.836158544431740D+02 -.175173587990087D+03
 0.123255741529233D+03 0.331885660331663D+02 -.758662784338517D+02 -.442191781703126D+01
 0.000000000000000D+00 0.000000000000000D+00 0.000000000000000D+00 0.000000000000000D+00
 0.416068973135982D+03 0.000000000000000D+00 0.000000000000000D+00 0.416068973135982D+03
 0.403275761710887D+03 0.000000000000000D+00 0.000000000000000D+00 -.403275761710887D+03
 0.344235307388796D+03 0.182839921696365D+02 0.131563424566882D+03 0.304202985612624D+03
 0.125818483978946D+03 -.293529943459912D+01 0.171653984663900D+02 -.124607479805506D+03
 0.202059151351788D+03 -.486117205898060D+02 -.881987263909324D+02 -.175173587990087D+03
 0.125013422623831D+03 0.331748292994010D+02 -.786955007347909D+02 -.442191781703126D+01
 0.222183695035078D+02 0.881985553675451D-01 0.181654040924515D+02 0.127932114250950D+02
0.896794032027D-05 0.000000000000D+00 0.000000000000D+00 0.173753508394D-07 0.000000000000D+00  7 2 -2 23 -13 13 23 21 0 0.37549720D+00 0.10007724D-01 0.41565477D+05 0.41565477D+05 0.41565477D+05 0.11544206D+01  1  2  2  1  7  1        2 0.285800817313D-03 0.100000000000D+01
-.226216485775D-06 0.000000000000D+00 -.344392521427D-07 0.173753508394D-07 0.000000000000D+00  7 2 -2 23 -13 13 23 21 2 0.37549720D+00 0.10007724D-01 0.41565477D+05 0.41565477D+05 0.41565477D+05 0.11544206D+01  1  2  3  1  7  1        2 -.960778225741D-05 0.100000000000D+01
0.551154889241D-06 0.000000000000D+00 0.000000000000D+00 0.173753508394D-07 0.000000000000D+00  7 2 -2 23 -13 13 23 21 2 0.37549720D+00 0.10007724D-01 0.41565477D+05 0.41565477D+05 0.41565477D+05 0.11544206D+01  1  2 15  1  7  1        2 0.234084450026D-04 0.100000000000D+01
0.249000305365D-04 0.000000000000D+00 0.000000000000D+00 0.173753508394D-07 0.000000000000D+00  7 2 -2 23 -13 13 23 21 2 0.39429496D+00 0.10007724D-01 0.44592732D+05 0.44592732D+05 0.44592732D+05 0.11516933D+01  1  2 12  1  7  1        2 0.896815375951D-03 0.100000000000D+01
-.248715256877D-04 0.000000000000D+00 0.000000000000D+00 0.173753508394D-07 0.000000000000D+00  7 2 -2 23 -13 13 23 21 2 0.37549720D+00 0.10007724D-01 0.41565477D+05 0.41565477D+05 0.41565477D+05 0.11544206D+01  1  2  4  1  7  1        2 -.105633416768D-02 0.100000000000D+01
-.107531959471D-03 0.000000000000D+00 -.168966571087D-04 0.173753508394D-07 0.000000000000D+00  7 2 -2 23 -13 13 23 21 2 0.39372213D+00 0.10007724D-01 0.41565477D+05 0.41565477D+05 0.41565477D+05 0.11544206D+01  1  2  5  1  7  1        2 -.391969373251D-02 0.100000000000D+01
0.108230147827D-03 0.000000000000D+00 0.168776979776D-04 0.173753508394D-07 0.000000000000D+00  7 2 -2 23 -13 13 23 21 2 0.37549720D+00 0.10007724D-01 0.41565477D+05 0.41565477D+05 0.41565477D+05 0.11544206D+01  1  2  6  1  7  1        2 0.459671049370D-02 0.100000000000D+01
0.369267495595D-06 0.000000000000D+00 0.000000000000D+00 0.173753508394D-07 0.000000000000D+00  7 21 -2 23 -13 13 23 -2 2 0.39429496D+00 0.10007724D-01 0.44592732D+05 0.44592732D+05 0.44592732D+05 0.11516933D+01  1  2 12  3  7  1        2 0.163252635734D-05 0.100000000000D+01
-.877777211020D-06 0.000000000000D+00 -.140032636406D-06 0.173753508394D-07 0.000000000000D+00  7 21 -2 23 -13 13 23 -2 2 0.39372213D+00 0.10007724D-01 0.41565477D+05 0.41565477D+05 0.41565477D+05 0.11544206D+01  1  2  5  3  7  1        2 -.396203913376D-05 0.100000000000D+01
  </mgrwgt>
  </event>
  <event>
  8     66 0.29152272E-05 0.25794565E+03 0.75467711E-02 0.10073876E+00
        2 -1    0    0  501    0 0.00000000E+00 0.00000000E+00 0.14279651E+04 0.14279652E+04 0.32000000E+00 0.0000E+00 0.9000E+01
       -2 -1    0    0    0  501 0.00000000E+00 0.00000000E+00 -.50363569E+02 0.50364586E+02 0.32000000E+00 0.0000E+00 0.9000E+01
       25  2    1    2    0    0 0.21854255E+02 0.15620174E+03 0.72257185E+03 0.79843581E+03 0.30085391E+03 0.0000E+00 0.0000E+00
       23  2    3    3    0    0 -.66735129E+02 0.17876639E+03 0.40484076E+03 0.45547001E+03 0.84533385E+02 0.0000E+00 0.0000E+00
       23  1    1    2    0    0 -.21854255E+02 -.15620174E+03 0.65502970E+03 0.67989393E+03 0.91188000E+02 0.0000E+00 0.9000E+01
      -11  1    4    4    0    0 -.40914298E+02 0.23497312E+02 0.59393527E+02 0.75853111E+02 0.51099893E-03 0.0000E+00 0.9000E+01
       11  1    4    4    0    0 -.25820830E+02 0.15526908E+03 0.34544723E+03 0.37961690E+03 0.51099893E-03 0.0000E+00 0.9000E+01
       23  1    3    3    0    0 0.88589384E+02 -.22564649E+02 0.31773109E+03 0.34296580E+03 0.91188000E+02 0.0000E+00 0.9000E+01
#aMCatNLO 1  0  0  2  2 0.79819079D+02 0.00000000D+00  -5  7  0 0.00000000D+00 0.00000000D+00 0.00000000D+00 0.00000000D+00 0.00000000D+00
  <mgrwgt>
 0.5759531583D-03    4    2    0
 0.268175685352075D+03 0.000000000000000D+00 0.000000000000000D+00 0.268175685352075D+03
 0.268175685352075D+03 0.000000000000000D+00 0.000000000000000D+00 -.268175685352075D+03
 0.191548840764721D+03 -.218542551145065D+02 -.156201742773234D+03 0.591533104931816D+02
 0.565213358713467D+02 -.409142983975787D+02 0.234973120204512D+02 -.311216632449012D+02
 0.159056766834809D+03 -.258208304516095D+02 0.155269080067373D+03 -.228878257107058D+02
 0.129224427233274D+03 0.885893839636947D+02 -.225646493145901D+02 -.514382153757459D+01
 0.000000000000000D+00 0.000000000000000D+00 -.000000000000000D+00 0.000000000000000D+00
 0.442504759572708D+03 0.000000000000000D+00 0.000000000000000D+00 0.442504759572708D+03
 0.280423097268406D+03 0.000000000000000D+00 0.000000000000000D+00 -.280423097268406D+03
 0.195240776786892D+03 -.504041819550432D+02 -.154155810385108D+03 0.591533104931816D+02
 0.634669806995048D+02 -.497709416588468D+02 0.241319929217201D+02 -.311216632449012D+02
 0.166292870781150D+03 -.498357158829416D+02 0.156990024298703D+03 -.228878257107058D+02
 0.117257500519774D+03 0.703959250766423D+02 -.212608776097807D+02 -.514382153757459D+01
 0.180669728053793D+03 0.796149144201893D+02 -.570532922553506D+01 0.162081662304302D+03
0.370697485999D-05 0.000000000000D+00 0.000000000000D+00 0.230061208109D-08 0.000000000000D+00  7 2 -2 23 -11 11 23 21 0 0.21968702D+00 0.77483224D-02 0.66535960D+05 0.66535960D+05 0.66535960D+05 0.11365382D+01  1  2  2  2  7  2       -2 0.602041397519D-03 0.100000000000D+01
-.205564273725D-06 0.000000000000D+00 -.142357595313D-07 0.230061208109D-08 0.000000000000D+00  7 2 -2 23 -11 11 23 21 2 0.21968702D+00 0.77483224D-02 0.66535960D+05 0.66535960D+05 0.66535960D+05 0.11365382D+01  1  2  3  2  7  2       -2 -.431243330871D-04 0.100000000000D+01
0.239910988373D-06 0.000000000000D+00 0.000000000000D+00 0.230061208109D-08 0.000000000000D+00  7 2 -2 23 -11 11 23 21 2 0.21968702D+00 0.77483224D-02 0.66535960D+05 0.66535960D+05 0.66535960D+05 0.11365382D+01  1  2 15  2  7  2       -2 0.503297639533D-04 0.100000000000D+01
-.158703651254D-06 0.000000000000D+00 0.000000000000D+00 0.230061208109D-08 0.000000000000D+00  7 2 -2 23 -11 11 23 21 2 0.21968702D+00 0.77483224D-02 0.66535960D+05 0.66535960D+05 0.66535960D+05 0.11365382D+01  1  2  4  2  7  2       -2 -.332936701246D-04 0.100000000000D+01
  </mgrwgt>
  </event>
  <event>
  8     66 0.29152272E-05 0.28596089E+03 0.75467711E-02 0.93346252E-01
        2 -1    0    0  501    0 0.00000000E+00 0.00000000E+00 0.16160999E+04 0.16160999E+04 0.32000000E+00 0.0000E+00 0.9000E+01
       -2 -1    0    0    0  501 0.00000000E+00 0.00000000E+00 -.63843520E+02 0.63844322E+02 0.32000000E+00 0.0000E+00 0.9000E+01
       25  2    1    2    0    0 -.17364150E+03 0.97490586E+02 0.12847105E+04 0.13341816E+04 0.29983927E+03 0.0000E+00 0.0000E+00
       23  2    3    3    0    0 0.19709883E+02 -.43615338E+02 0.38389668E+03 0.39765798E+03 0.92002327E+02 0.0000E+00 0.0000E+00
       23  1    1    2    0    0 0.17364150E+03 -.97490586E+02 0.26754584E+03 0.34576265E+03 0.91188000E+02 0.0000E+00 0.9000E+01
      -13  1    4    4    0    0 -.29150193E+02 0.28966284E+01 0.19260869E+03 0.19482362E+03 0.10565837E+00 0.0000E+00 0.9000E+01
       13  1    4    4    0    0 0.48860076E+02 -.46511966E+02 0.19128799E+03 0.20283435E+03 0.10565837E+00 0.0000E+00 0.9000E+01
       23  1    3    3    0    0 -.19335138E+03 0.14110592E+03 0.90081386E+03 0.93652363E+03 0.91188000E+02 0.0000E+00 0.9000E+01
#aMCatNLO 1  0  0  2  2 0.41895966D+03 0.00000000D+00  -5  7  0 0.00000000D+00 0.00000000D+00 0.00000000D+00 0.00000000D+00 0.00000000D+00
  <mgrwgt>
 0.6129725908D-03    5    2    0
 0.321213647165690D+03 0.000000000000000D+00 0.000000000000000D+00 0.321213647165690D+03
 0.321213647165690D+03 0.000000000000000D+00 0.000000000000000D+00 -.321213647165690D+03
 0.257713591139935D+03 0.173641498461509D+03 -.974905858460488D+02 -.135813325552678D+03
 0.440746091963119D+02 -.291502949903764D+02 0.289669320496854D+01 0.329308464248635D+02
 0.682138351980669D+02 0.488601783560640D+02 -.465120313171054D+02 0.101213253183191D+02
 0.272425258797066D+03 -.193351381827196D+03 0.141105923958186D+03 0.927611538094958D+02
 0.000000000000000D+00 0.000000000000000D+00 0.000000000000000D+00 -.000000000000000D+00
 0.456375866588933D+03 0.000000000000000D+00 0.000000000000000D+00 0.456375866588933D+03
 0.985496648404844D+03 0.000000000000000D+00 0.000000000000000D+00 -.985496648404844D+03
 0.227958955638745D+03 0.405719189516874D+02 -.153488416848984D+03 -.135813325552678D+03
 0.694083150871500D+02 -.602435184309566D+02 -.101878380453432D+02 0.329308464248635D+02
 0.638333440021756D+02 0.126805286554983D+02 -.617370129931626D+02 0.101213253183191D+02
 0.405767460898393D+03 -.379169626311215D+03 0.629106017049118D+02 0.927611538094958D+02
 0.674904439367312D+03 0.386160697134986D+03 0.162502666182578D+03 -.529120781815912D+03
0.672356869345D-05 0.000000000000D+00 0.000000000000D+00 0.440922420885D-06 0.000000000000D+00  7 2 -2 23 -13 13 23 21 0 0.24863082D+00 0.98221442D-02 0.81773630D+05 0.81773630D+05 0.81773630D+05 0.11289645D+01  1  2  2  2  7  2       -2 0.602484571843D-03 0.100000000000D+01
-.367393897986D-06 0.000000000000D+00 -.258202741391D-07 0.440922420885D-06 0.000000000000D+00  7 2 -2 23 -13 13 23 21 2 0.24863082D+00 0.98221442D-02 0.81773630D+05 0.81773630D+05 0.81773630D+05 0.11289645D+01  1  2  3  2  7  2       -2 -.419602980101D-04 0.100000000000D+01
0.426661290581D-06 0.000000000000D+00 0.000000000000D+00 0.440922420885D-06 0.000000000000D+00  7 2 -2 23 -13 13 23 21 2 0.24863082D+00 0.98221442D-02 0.81773630D+05 0.81773630D+05 0.81773630D+05 0.11289645D+01  1  2 15  2  7  2       -2 0.487292657834D-04 0.100000000000D+01
0.207057263948D-06 0.000000000000D+00 -.263622266936D-05 0.440922420885D-06 0.000000000000D+00  7 2 -2 23 -13 13 23 21 2 0.24863082D+00 0.43914172D-01 0.81773630D+05 0.81773630D+05 0.81773630D+05 0.11289645D+01  1  2  5  2  7  2       -2 0.192097849630D-05 0.100000000000D+01
0.174680466106D-07 0.000000000000D+00 -.477076503203D-06 0.440922420885D-06 0.000000000000D+00  7 2 21 23 -13 13 23 2 2 0.24863082D+00 0.43914172D-01 0.81773630D+05 0.81773630D+05 0.81773630D+05 0.11289645D+01  1  2  5  4  7  2       -2 0.179807271133D-05 0.100000000000D+01
  </mgrwgt>
  </event>
  <event>
  8     66 0.29152272E-05 0.16038443E+03 0.75467711E-02 0.91277674E-01
        2 -1    0    0  501    0 0.00000000E+00 0.00000000E+00 0.35512721E+03 0.35512736E+03 0.32000000E+00 0.0000E+00 0.9000E+01
       -2 -1    0    0    0  501 0.00000000E+00 0.00000000E+00 -.15385708E+03 0.15385742E+03 0.32000000E+00 0.0000E+00 0.9000E+01
       25  2    1    2    0    0 -.77516811E+02 -.68437666E+01 0.22941170E+03 0.38584707E+03 0.30032074E+03 0.0000E+00 0.0000E+00
       23  2    3    3    0    0 -.26707354E+02 -.11049038E+02 0.25971739E+03 0.27706761E+03 0.92075924E+02 0.0000E+00 0.0000E+00
       23  1    1    2    0    0 0.77516811E+02 0.68437666E+01 -.28141567E+02 0.12313770E+03 0.91188000E+02 0.0000E+00 0.9000E+01
      -13  1    4    4    0    0 0.34794680E+01 -.48325538E+02 0.12458445E+03 0.13367409E+03 0.10565837E+00 0.0000E+00 0.9000E+01
       13  1    4    4    0    0 -.30186822E+02 0.37276501E+02 0.13513294E+03 0.14339353E+03 0.10565837E+00 0.0000E+00 0.9000E+01
       23  1    3    3    0    0 -.50809457E+02 0.42052711E+01 -.30305691E+02 0.10877946E+03 0.91188000E+02 0.0000E+00 0.9000E+01
#aMCatNLO 1  0  0  1  2 0.64486367D+03 0.00000000D+00  -5  7  0 0.00000000D+00 0.00000000D+00 0.00000000D+00 0.00000000D+00 0.00000000D+00
  <mgrwgt>
 0.2405343655D-03    5    2    0
 0.233749776405914D+03 0.000000000000000D+00 0.000000000000000D+00 0.233749776405914D+03
 0.233749776405914D+03 0.000000000000000D+00 0.000000000000000D+00 -.233749776405914D+03
 0.146180400647559D+03 0.775168165414286D+02 0.684376702945134D+01 -.836526400994611D+02
 0.918994256016259D+02 0.347950966828677D+01 -.483256478752675D+02 0.780898789588812D+02
 0.979399880265111D+02 -.301868668705792D+02 0.372766102193589D+02 0.853899798203809D+02
 0.131479738536133D+03 -.508094593391361D+02 0.420527062645734D+01 -.798272186798010D+02
 0.000000000000000D+00 -.000000000000000D+00 -.000000000000000D+00 0.000000000000000D+00
 0.204737499058173D+04 0.000000000000000D+00 0.000000000000000D+00 0.204737499058173D+04
 0.461288513415725D+03 0.000000000000000D+00 0.000000000000000D+00 -.461288513415725D+03
 0.336220056860113D+03 0.263966448895354D+03 0.167489178614571D+03 -.836526400994611D+02
 0.116697048040530D+03 0.841028490860085D+02 0.211395979426551D+02 0.780898789588812D+02
 0.168881438096173D+03 0.729406406399903D+02 0.126131496553138D+03 0.853899798203809D+02
 0.174696899447193D+03 0.675289889332606D+02 0.106165936834568D+03 -.798272186798010D+02
 0.171216806155345D+04 -.488538927554613D+03 -.420926209944933D+03 0.158608647716601D+04
0.144300018144D-05 0.000000000000D+00 0.000000000000D+00 0.891673794816D-07 0.000000000000D+00  7 2 -2 23 -13 13 23 21 0 0.54634992D-01 0.23670357D-01 0.25723166D+05 0.25723166D+05 0.25723166D+05 0.11735846D+01  1  2  2  1  7  1        2 0.233034258614D-03 0.100000000000D+01
-.663369085817D-07 0.000000000000D+00 -.554150064740D-08 0.891673794816D-07 0.000000000000D+00  7 2 -2 23 -13 13 23 21 2 0.54634992D-01 0.23670357D-01 0.25723166D+05 0.25723166D+05 0.25723166D+05 0.11735846D+01  1  2  3  1  7  1        2 -.147549397269D-04 0.100000000000D+01
0.916284339131D-07 0.000000000000D+00 0.000000000000D+00 0.891673794816D-07 0.000000000000D+00  7 2 -2 23 -13 13 23 21 2 0.54634992D-01 0.23670357D-01 0.25723166D+05 0.25723166D+05 0.25723166D+05 0.11735846D+01  1  2 15  1  7  1        2 0.203803892669D-04 0.100000000000D+01
0.108489729875D-05 0.000000000000D+00 -.111933531566D-05 0.891673794816D-07 0.000000000000D+00  7 2 -2 23 -13 13 23 21 2 0.57666555D+00 0.23670357D-01 0.25723166D+05 0.25723166D+05 0.25723166D+05 0.11735846D+01  1  2  5  1  7  1        2 0.186904647707D-05 0.100000000000D+01
0.113594635867D-06 0.000000000000D+00 -.312002047615D-06 0.891673794816D-07 0.000000000000D+00  7 21 -2 23 -13 13 23 -2 2 0.57666555D+00 0.23670357D-01 0.25723166D+05 0.25723166D+05 0.25723166D+05 0.11735846D+01  1  2  5  3  7  1        2 0.561082578996D-08 0.100000000000D+01
  </mgrwgt>
  </event>
  <event>
  9     66 0.29152272E-05 0.21093430E+03 0.75467711E-02 0.10467583E+00
        2 -1    0    0  501    0 0.00000000E+00 0.00000000E+00 0.19275913E+04 0.19275913E+04 0.32000000E+00 0.0000E+00 0.9000E+01
       -2 -1    0    0    0  502 0.00000000E+00 0.00000000E+00 -.54730859E+03 0.54730869E+03 0.32000000E+00 0.0000E+00 0.9000E+01
       25  2    1    2    0    0 0.12860396E+03 0.43829076E+01 0.18329325E+04 0.18616194E+04 0.29904336E+03 0.0000E+00 0.0000E+00
       23  2    3    3    0    0 -.22885510E+02 0.15690891E+02 0.12154617E+04 0.12192313E+04 0.91695049E+02 0.0000E+00 0.0000E+00
       23  1    1    2    0    0 -.11029806E+03 -.30531017E+02 -.51922183E+03 0.53944821E+03 0.91188000E+02 0.0000E+00 0.9000E+01
      -11  1    4    4    0    0 0.85690473E+01 0.48126306E+02 0.51534355E+03 0.51765679E+03 0.51099893E-03 0.0000E+00 0.9000E+01
       11  1    4    4    0    0 -.31454558E+02 -.32435415E+02 0.70011811E+03 0.70157452E+03 0.51099893E-03 0.0000E+00 0.9000E+01
       23  1    3    3    0    0 0.15148947E+03 -.11307984E+02 0.61747083E+03 0.64238805E+03 0.91188000E+02 0.0000E+00 0.9000E+01
       21  1    1    2  501  502 -.18305899E+02 0.26148110E+02 0.66572070E+02 0.73832463E+02 0.75000000E+00 0.0000E+00 0.9000E+01
#aMCatNLO 2  0  0  2  1 0.31919110D+02 0.00000000D+00  -5  7  0 0.00000000D+00 0.00000000D+00 0.00000000D+00 0.00000000D+00 0.00000000D+00
  <mgrwgt>
 0.1000922253D-03    2    2    0
 0.100477248071569D+04 0.000000000000000D+00 0.000000000000000D+00 0.100477248071569D+04
 0.100477248071569D+04 0.000000000000000D+00 0.000000000000000D+00 -.100477248071569D+04
 0.984590877360213D+03 -.119263269402937D+03 -.177251318630271D+02 -.972916253697467D+03
 0.282162459885372D+03 0.600151602655269D+01 0.517937626649310D+02 0.277303158516011D+03
 0.380435823353816D+03 -.349203080785417D+02 -.274849435044677D+02 0.377831398450621D+03
 0.362355800831987D+03 0.148182061454926D+03 -.658368729743625D+01 0.317781696730835D+03
 0.000000000000000D+00 -.000000000000000D+00 0.000000000000000D+00 0.000000000000000D+00
 0.104287737290546D+04 0.000000000000000D+00 0.000000000000000D+00 0.104287737290546D+04
 0.101160590364135D+04 0.000000000000000D+00 0.000000000000000D+00 -.101160590364135D+04
 0.983859285385704D+03 -.110298061540239D+03 -.305310171369979D+02 -.972916253697467D+03
 0.281578784043224D+03 0.856904734039879D+01 0.481263059872955D+02 0.277303158516011D+03
 0.380523338276710D+03 -.314545576175165D+02 -.324354146448821D+02 0.377831398450621D+03
 0.363837035315833D+03 0.151489470424521D+03 -.113079837629947D+02 0.317781696730835D+03
 0.446848335253359D+02 -.183058986071643D+02 0.261481095575792D+02 0.312714692641078D+02
-.127000586850D-03 0.000000000000D+00 0.000000000000D+00 0.197615222511D-05 0.000000000000D+00  7 2 -2 23 -11 11 23 21 2 0.28571613D+00 0.83632290D-01 0.44493280D+05 0.44493280D+05 0.44493280D+05 0.11517796D+01  1  2  8  2  7  2       -2 -.251676501662D-03 0.100000000000D+01
0.199663599309D-03 0.000000000000D+00 0.000000000000D+00 0.197615222511D-05 0.136150550956D-07  7 2 -2 23 -11 11 23 21 2 0.29655160D+00 0.84201070D-01 0.50511459D+05 0.50511459D+05 0.50511459D+05 0.11469068D+01  1  2  1  2  7  2       -2 0.351768726967D-03 0.100000000000D+01
  </mgrwgt>
  </event>
  <event>
  9     66 0.29152272E-05 0.68353000E+03 0.75467711E-02 0.89409813E-01
        2 -1    0    0  501    0 0.00000000E+00 0.00000000E+00 0.17420699E+04 0.17420700E+04 0.32000000E+00 0.0000E+00 0.9000E+01
       21 -1    0    0  502  501 0.00000000E+00 0.00000000E+00 -.51556927E+03 0.51556982E+03 0.75000000E+00 0.0000E+00 0.9000E+01
       25  2    1    2    0    0 -.55879249E+03 -.75544048E+01 0.53849027E+02 0.63665192E+03 0.30019966E+03 0.0000E+00 0.0000E+00
       23  2    3    3    0    0 -.23799173E+03 -.12087110E+03 0.16503464E+02 0.28244331E+03 0.90840366E+02 0.0000E+00 0.0000E+00
       23  1    1    2    0    0 0.74773732E+03 -.14342403E+03 0.11443091E+04 0.13774760E+04 0.91188000E+02 0.0000E+00 0.9000E+01
      -13  1    4    4    0    0 -.20790883E+03 -.10694964E+03 -.18126344E+02 0.23450561E+03 0.10565837E+00 0.0000E+00 0.9000E+01
       13  1    4    4    0    0 -.30082903E+02 -.13921455E+02 0.34629808E+02 0.47937696E+02 0.10565837E+00 0.0000E+00 0.9000E+01
       23  1    3    3    0    0 -.32080076E+03 0.11331669E+03 0.37345563E+02 0.35420861E+03 0.91188000E+02 0.0000E+00 0.9000E+01
        2  1    1    2  502    0 -.18894483E+03 0.15097844E+03 0.28342568E+02 0.24351189E+03 0.32000000E+00 0.0000E+00 0.9000E+01
#aMCatNLO 2  0  0  2  1 0.24185665D+03 0.00000000D+00  -5  7  0 0.00000000D+00 0.00000000D+00 0.00000000D+00 0.00000000D+00 0.00000000D+00
  <mgrwgt>
 0.1919969943D-04    2    2    0
 0.800411411525414D+03 0.000000000000000D+00 0.000000000000000D+00 0.800411411525414D+03
 0.800411411525414D+03 0.000000000000000D+00 0.000000000000000D+00 -.800411411525414D+03
 0.774860618617828D+03 0.651401174227445D+03 -.664455795586480D+02 0.404172267867334D+03
 0.323070951075212D+03 -.244774591905813D+03 -.774919682722635D+02 -.196100059763567D+03
 0.366325454887140D+02 -.342280386230299D+02 -.106089205148227D+02 0.760496985616958D+01
 0.466258707869076D+03 -.372398543698602D+03 0.154546468345734D+03 -.215677177959936D+03
 0.000000000000000D+00 -.000000000000000D+00 0.000000000000000D+00 -.000000000000000D+00
 0.878002101331665D+03 0.000000000000000D+00 0.000000000000000D+00 0.878002101331665D+03
 0.102295678087459D+04 0.000000000000000D+00 0.000000000000000D+00 -.102295678087459D+04
 0.866805647129022D+03 0.747737321943665D+03 -.143424034981080D+03 0.404172267867334D+03
 0.305155153660405D+03 -.207909070521988D+03 -.106949767465450D+03 -.196100059763567D+03
 0.340089035816148D+02 -.300826619319696D+02 -.139213292252267D+02 0.760496985616958D+01
 0.413020212016334D+03 -.320800758157639D+03 0.113316691898150D+03 -.215677177959936D+03
 0.281968965818883D+03 -.188944831332070D+03 0.150978439773608D+03 -.144954679542929D+03
-.354245383749D-05 0.000000000000D+00 0.000000000000D+00 0.379475361849D-05 0.000000000000D+00  7 2 21 23 -13 13 23 2 2 0.24432616D+00 0.81687337D-01 0.66247592D+06 0.66247592D+06 0.66247592D+06 0.10599796D+01  1  2 13  4  7  2       -2 -.696281707738D-04 0.100000000000D+01
0.511460245240D-05 0.000000000000D+00 0.000000000000D+00 0.379475361849D-05 0.146790993073D-10  7 2 21 23 -13 13 23 2 2 0.26801078D+00 0.79318386D-01 0.66247592D+06 0.66247592D+06 0.66247592D+06 0.10599796D+01  1  2  1  4  7  2       -2 0.888278702073D-04 0.100000000000D+01
  </mgrwgt>
  </event>
  <event>
  8     66 0.29152272E-05 0.26240951E+03 0.75467711E-02 0.96325264E-01
        2 -1    0    0  501    0 0.00000000E+00 0.00000000E+00 0.88044343E+03 0.88044348E+03 0.32000000E+00 0.0000E+00 0.9000E+01
       -2 -1    0    0    0  501 0.00000000E+00 0.00000000E+00 -.26045958E+03 0.26045977E+03 0.32000000E+00 0.0000E+00 0.9000E+01
       25  2    1    2    0    0 0.19378212E+03 0.36283301E+03 0.20282666E+03 0.54799966E+03 0.29994278E+03 0.0000E+00 0.0000E+00
       23  2    3    3    0    0 0.11430133E+03 0.20229269E+03 -.14445833E+02 0.25200477E+03 0.96491414E+02 0.0000E+00 0.0000E+00
       23  1    1    2    0    0 -.19378212E+03 -.36283301E+03 0.41715719E+03 0.59290360E+03 0.91188000E+02 0.0000E+00 0.9000E+01
      -11  1    4    4    0    0 0.26880537E+02 0.55728181E+02 -.47717407E+02 0.78135423E+02 0.51099893E-03 0.0000E+00 0.9000E+01
       11  1    4    4    0    0 0.87420798E+02 0.14656451E+03 0.33271573E+02 0.17386935E+03 0.51099893E-03 0.0000E+00 0.9000E+01
       23  1    3    3    0    0 0.79480781E+02 0.16054032E+03 0.21727249E+03 0.29599489E+03 0.91188000E+02 0.0000E+00 0.9000E+01
#aMCatNLO 1  0  0  1  2 0.77808890D+01 0.00000000D+00  -5  7  0 0.00000000D+00 0.00000000D+00 0.00000000D+00 0.00000000D+00 0.00000000D+00
  <mgrwgt>
 0.6296351908D-03   11    2    0
 0.478873749290855D+03 0.000000000000000D+00 0.000000000000000D+00 0.478873749290855D+03
 0.478873749290855D+03 0.000000000000000D+00 0.000000000000000D+00 -.478873749290855D+03
 0.436247472262491D+03 -.193782115594825D+03 -.362833011735831D+03 0.113125165112424D+03
 0.123966891534945D+03 0.268805365772408D+02 0.557281813525140D+02 -.107422515113442D+03
 0.185581551098823D+03 0.874207976457938D+02 0.146564512695059D+03 -.729174866933730D+02
 0.211951583685451D+03 0.794807813717906D+02 0.160540317688258D+03 0.672148366943910D+02
 0.000000000000000D+00 -.000000000000000D+00 -.000000000000000D+00 0.000000000000000D+00
 0.490786262631686D+03 0.000000000000000D+00 0.000000000000000D+00 0.490786262631686D+03
 0.480161799678046D+03 0.000000000000000D+00 0.000000000000000D+00 -.480161799678046D+03
 0.433563721200554D+03 -.190599430122645D+03 -.361298772835559D+03 0.113125165112424D+03
 0.124364298790213D+03 0.277891936256635D+02 0.561662067253891D+02 -.107422515113442D+03
 0.186744492348249D+03 0.887831584642094D+02 0.147221249586621D+03 -.729174866933730D+02
 0.213106592294587D+03 0.810360918710002D+02 0.161290067511401D+03 0.672148366943910D+02
 0.131689576761284D+02 -.700901383822806D+01 -.337875098785251D+01 0.106244629536402D+02
0.934856597278D-05 0.000000000000D+00 0.000000000000D+00 0.554351632954D-07 0.000000000000D+00  7 2 -2 23 -11 11 23 21 0 0.13545285D+00 0.40070724D-01 0.18269852D+06 0.18269852D+06 0.18269852D+06 0.11008562D+01  1  2  2  1  7  1        2 0.207914192171D-03 0.100000000000D+01
-.511209819567D-06 0.000000000000D+00 -.359009548694D-07 0.554351632954D-07 0.000000000000D+00  7 2 -2 23 -11 11 23 21 2 0.13545285D+00 0.40070724D-01 0.18269852D+06 0.18269852D+06 0.18269852D+06 0.11008562D+01  1  2  3  1  7  1        2 -.137784216985D-04 0.100000000000D+01
0.576095810091D-06 0.000000000000D+00 0.000000000000D+00 0.554351632954D-07 0.000000000000D+00  7 2 -2 23 -11 11 23 21 2 0.13545285D+00 0.40070724D-01 0.18269852D+06 0.18269852D+06 0.18269852D+06 0.11008562D+01  1  2 15  1  7  1        2 0.155272663128D-04 0.100000000000D+01
0.277347456106D-04 0.000000000000D+00 0.000000000000D+00 0.554351632954D-07 0.000000000000D+00  7 2 -2 23 -11 11 23 21 2 0.13900198D+00 0.40070724D-01 0.18625278D+06 0.18625278D+06 0.18625278D+06 0.11002086D+01  1  2 12  1  7  1        2 0.720945519019D-03 0.100000000000D+01
-.303069679882D-04 0.000000000000D+00 0.000000000000D+00 0.554351632954D-07 0.000000000000D+00  7 2 -2 23 -11 11 23 21 2 0.13545285D+00 0.40070724D-01 0.18269852D+06 0.18269852D+06 0.18269852D+06 0.11008562D+01  1  2  4  1  7  1        2 -.816850868977D-03 0.100000000000D+01
-.504691271815D-03 0.000000000000D+00 -.440487375819D-04 0.554351632954D-07 0.000000000000D+00  7 2 -2 23 -11 11 23 21 2 0.13901213D+00 0.40070724D-01 0.18269852D+06 0.18269852D+06 0.18269852D+06 0.11008562D+01  1  2  5  1  7  1        2 -.131391976853D-01 0.100000000000D+01
0.505678491435D-03 0.000000000000D+00 0.440339247260D-04 0.554351632954D-07 0.000000000000D+00  7 2 -2 23 -11 11 23 21 2 0.13545285D+00 0.40070724D-01 0.18269852D+06 0.18269852D+06 0.18269852D+06 0.11008562D+01  1  2  6  1  7  1        2 0.136293381546D-01 0.100000000000D+01
0.204745660912D-05 0.000000000000D+00 0.000000000000D+00 0.554351632954D-07 0.591356987236D-08  7 2 -2 23 -11 11 23 21 2 0.13882239D+00 0.40178504D-01 0.18625278D+06 0.18625278D+06 0.18625278D+06 0.11002086D+01  1  2 11  1  7  1        2 0.530469835293D-04 0.100000000000D+01
0.108625137904D-05 0.000000000000D+00 0.000000000000D+00 0.554351632954D-07 0.000000000000D+00  7 21 -2 23 -11 11 23 -2 2 0.13900198D+00 0.40070724D-01 0.18625278D+06 0.18625278D+06 0.18625278D+06 0.11002086D+01  1  2 12  3  7  1        2 0.235318707337D-04 0.100000000000D+01
-.235094382331D-05 0.000000000000D+00 -.206125796118D-06 0.554351632954D-07 0.000000000000D+00  7 21 -2 23 -11 11 23 -2 2 0.13901213D+00 0.40070724D-01 0.18269852D+06 0.18269852D+06 0.18269852D+06 0.11008562D+01  1  2  5  3  7  1        2 -.510454574921D-04 0.100000000000D+01
0.941234965659D-08 0.000000000000D+00 0.000000000000D+00 0.554351632954D-07 0.262370573700D-10  7 21 -2 23 -11 11 23 -2 2 0.13882239D+00 0.40178504D-01 0.18625278D+06 0.18625278D+06 0.18625278D+06 0.11002086D+01  1  2 11  3  7  1        2 0.203637914680D-06 0.100000000000D+01
  </mgrwgt>
  </event>
  <event>
  8     66 0.29152272E-05 0.13449917E+03 0.75467711E-02 0.10191541E+00
        2 -1    0    0  501    0 0.00000000E+00 0.00000000E+00 0.31312652E+04 0.31312652E+04 0.32000000E+00 0.0000E+00 0.9000E+01
       -2 -1    0    0    0  501 0.00000000E+00 0.00000000E+00 -.79971738E+02 0.79972378E+02 0.32000000E+00 0.0000E+00 0.9000E+01
       25  2    1    2    0    0 -.13300422E+03 -.95810776E+02 0.29963014E+04 0.30157658E+04 0.30025258E+03 0.0000E+00 0.0000E+00
       23  2    3    3    0    0 -.79844419E+02 0.61354403E+02 0.17492848E+04 0.17544600E+04 0.89403092E+02 0.0000E+00 0.0000E+00
       23  1    1    2    0    0 0.13300422E+03 0.95810776E+02 0.54992041E+02 0.19547175E+03 0.91188000E+02 0.0000E+00 0.9000E+01
      -13  1    4    4    0    0 -.69076301E+02 0.44474800E+02 0.67398159E+03 0.67897035E+03 0.10565837E+00 0.0000E+00 0.9000E+01
       13  1    4    4    0    0 -.10768118E+02 0.16879603E+02 0.10753032E+04 0.10754896E+04 0.10565837E+00 0.0000E+00 0.9000E+01
       23  1    3    3    0    0 -.53159805E+02 -.15716518E+03 0.12470166E+04 0.12613058E+04 0.91188000E+02 0.0000E+00 0.9000E+01
#aMCatNLO 1  0  0  1  2 0.63289486D+02 0.00000000D+00  -5  7  0 0.00000000D+00 0.00000000D+00 0.00000000D+00 0.00000000D+00 0.00000000D+00
  <mgrwgt>
 0.5299423299D-03    9    2    0
 0.500413602701919D+03 0.000000000000000D+00 0.000000000000000D+00 0.500413602701919D+03
 0.500413602701919D+03 0.000000000000000D+00 0.000000000000000D+00 -.500413602701919D+03
 0.459529243677343D+03 0.133004223736720D+03 0.958107760343102D+02 -.419502140774712D+03
 0.123717091598937D+03 -.690763824209506D+02 0.444748382534482D+02 0.925005994989438D+02
 0.172444406983524D+03 -.107680365974872D+02 0.168795645696740D+02 0.171278145680272D+03
 0.245136463144033D+03 -.531598047182817D+02 -.157165178857432D+03 0.155723395595496D+03
 0.000000000000000D+00 -.000000000000000D+00 -.000000000000000D+00 0.000000000000000D+00
 0.579264408050628D+03 0.000000000000000D+00 0.000000000000000D+00 0.579264408050628D+03
 0.514276028333844D+03 0.000000000000000D+00 0.000000000000000D+00 -.514276028333844D+03
 0.468876393665020D+03 0.162329674120016D+03 0.959002188623042D+02 -.419502140774712D+03
 0.119604616385134D+03 -.613906054419442D+02 0.444982799267848D+02 0.925005994989438D+02
 0.172111178973098D+03 0.115404146348228D+00 0.169127591397730D+02 0.171278145680272D+03
 0.242234143964341D+03 -.377652810508614D+02 -.157118225452985D+03 0.155723395595496D+03
 0.907141033968802D+02 -.632891917735582D+02 -.193032475876576D+00 0.649883797167840D+02
0.399350976367D-04 0.000000000000D+00 0.000000000000D+00 0.501050609012D-06 0.000000000000D+00  7 2 -2 23 -13 13 23 21 0 0.48173316D+00 0.12303395D-01 0.57378077D+05 0.57378077D+05 0.57378077D+05 0.11420743D+01  1  2  2  1  7  1        2 0.356396336496D-03 0.100000000000D+01
-.754498975821D-06 0.000000000000D+00 -.153361290078D-06 0.501050609012D-06 0.000000000000D+00  7 2 -2 23 -13 13 23 21 2 0.48173316D+00 0.12303395D-01 0.57378077D+05 0.57378077D+05 0.57378077D+05 0.11420743D+01  1  2  3  1  7  1        2 -.878265632482D-05 0.100000000000D+01
0.231133799389D-05 0.000000000000D+00 0.000000000000D+00 0.501050609012D-06 0.000000000000D+00  7 2 -2 23 -13 13 23 21 2 0.48173316D+00 0.12303395D-01 0.57378077D+05 0.57378077D+05 0.57378077D+05 0.11420743D+01  1  2 15  1  7  1        2 0.269048572647D-04 0.100000000000D+01
0.671665609517D-04 0.000000000000D+00 0.000000000000D+00 0.501050609012D-06 0.000000000000D+00  7 2 -2 23 -13 13 23 21 2 0.56360574D+00 0.12303395D-01 0.75901890D+05 0.75901890D+05 0.75901890D+05 0.11316832D+01  1  2 12  1  7  1        2 0.328734840239D-03 0.100000000000D+01
-.714627341992D-04 0.000000000000D+00 0.000000000000D+00 0.501050609012D-06 0.000000000000D+00  7 2 -2 23 -13 13 23 21 2 0.48173316D+00 0.12303395D-01 0.57378077D+05 0.57378077D+05 0.57378077D+05 0.11420743D+01  1  2  4  1  7  1        2 -.831853527462D-03 0.100000000000D+01
-.985414678554D-04 0.000000000000D+00 -.206623489241D-04 0.501050609012D-06 0.000000000000D+00  7 2 -2 23 -13 13 23 21 2 0.56103955D+00 0.12303395D-01 0.57378077D+05 0.57378077D+05 0.57378077D+05 0.11420743D+01  1  2  5  1  7  1        2 -.514179942123D-03 0.100000000000D+01
0.100755736983D-03 0.000000000000D+00 0.204246966415D-04 0.501050609012D-06 0.000000000000D+00  7 2 -2 23 -13 13 23 21 2 0.48173316D+00 0.12303395D-01 0.57378077D+05 0.57378077D+05 0.57378077D+05 0.11420743D+01  1  2  6  1  7  1        2 0.117283527087D-02 0.100000000000D+01
0.158923080803D-05 0.000000000000D+00 0.000000000000D+00 0.501050609012D-06 0.000000000000D+00  7 21 -2 23 -13 13 23 -2 2 0.56360574D+00 0.12303395D-01 0.75901890D+05 0.75901890D+05 0.75901890D+05 0.11316832D+01  1  2 12  3  7  1        2 0.233672707061D-06 0.100000000000D+01
-.212931393404D-05 0.000000000000D+00 -.477417454141D-06 0.501050609012D-06 0.000000000000D+00  7 21 -2 23 -13 13 23 -2 2 0.56103955D+00 0.12303395D-01 0.57378077D+05 0.57378077D+05 0.57378077D+05 0.11420743D+01  1  2  5  3  7  1        2 -.346521732274D-06 0.100000000000D+01
  </mgrwgt>
  </event>
  <event>
  8     66 0.29152272E-05 0.22723788E+03 0.75467711E-02 0.10036389E+00
        2 -1    0    0  501    0 0.00000000E+00 0.00000000E+00 0.18575387E+03 0.18575414E+03 0.32000000E+00 0.0000E+00 0.9000E+01
       -2 -1    0    0    0  501 0.00000000E+00 0.00000000E+00 -.34489772E+03 0.34489786E+03 0.32000000E+00 0.0000E+00 0.9000E+01
       25  2    1    2    0    0 -.14378909E+02 0.14532865E+03 -.11284704E+03 0.35236624E+03 0.30016719E+03 0.0000E+00 0.0000E+00
       23  2    3    3    0    0 -.82988088E+02 0.11648406E+03 0.24857035E+02 0.17121190E+03 0.90774907E+02 0.0000E+00 0.0000E+00
       23  1    1    2    0    0 0.14378909E+02 -.14532865E+03 -.46296809E+02 0.17828577E+03 0.91188000E+02 0.0000E+00 0.9000E+01
      -11  1    4    4    0    0 -.96047609E+02 0.77275551E+02 0.35974130E+02 0.12841648E+03 0.51099893E-03 0.0000E+00 0.9000E+01
       11  1    4    4    0    0 0.13059521E+02 0.39208514E+02 -.11117095E+02 0.42795425E+02 0.51099893E-03 0.0000E+00 0.9000E+01
       23  1    3    3    0    0 0.68609179E+02 0.28844586E+02 -.13770407E+03 0.18115433E+03 0.91188000E+02 0.0000E+00 0.9000E+01
#aMCatNLO 1  0  0  1  1 0.14039834D+03 0.00000000D+00  -5  7  0 0.00000000D+00 0.00000000D+00 0.00000000D+00 0.00000000D+00 0.00000000D+00
  <mgrwgt>
 0.2832795299D-03    4    2    0
 0.253113012743094D+03 0.000000000000000D+00 0.000000000000000D+00 0.253113012743094D+03
 0.253113012743094D+03 0.000000000000000D+00 0.000000000000000D+00 -.253113012743094D+03
 0.172333788978878D+03 0.143789089648337D+02 -.145328650397206D+03 0.751756812568475D+01
 0.145922018913834D+03 -.960476085767297D+02 0.772755509730690D+02 0.780806103484681D+02
 0.413654374949448D+02 0.130595206174198D+02 0.392085135722842D+02 0.180022327597897D+01
 0.146604780098530D+03 0.686091789944762D+02 0.288445858518528D+02 -.873984017501318D+02
 0.000000000000000D+00 -.000000000000000D+00 -.000000000000000D+00 -.000000000000000D+00
 0.321294399061212D+03 0.000000000000000D+00 0.000000000000000D+00 0.321294399061212D+03
 0.346722737924608D+03 0.000000000000000D+00 0.000000000000000D+00 -.346722737924608D+03
 0.138882250815886D+03 0.171628580917070D+02 -.103062848394978D+03 0.751756812568475D+01
 0.171064875011184D+03 -.932120369038982D+02 0.120325084360781D+03 0.780806103484681D+02
 0.540156233324741D+02 0.139127414899232D+02 0.521620780297997D+02 0.180022327597897D+01
 0.161371890409606D+03 0.713641506968469D+02 0.706704537781543D+02 -.873984017501318D+02
 0.142682497416670D+03 -.922771337457894D+01 -.140094767773757D+03 -.254283388633962D+02
0.552885223000D-05 0.000000000000D+00 0.000000000000D+00 0.214172224773D-06 0.000000000000D+00  7 2 -2 23 -11 11 23 21 0 0.28577551D-01 0.53061220D-01 0.51637054D+05 0.51637054D+05 0.51637054D+05 0.11460667D+01  1  2  2  1  7  1        2 0.425664783681D-03 0.100000000000D+01
-.302815424156D-06 0.000000000000D+00 -.212322483434D-07 0.214172224773D-06 0.000000000000D+00  7 2 -2 23 -11 11 23 21 2 0.28577551D-01 0.53061220D-01 0.51637054D+05 0.51637054D+05 0.51637054D+05 0.11460667D+01  1  2  3  1  7  1        2 -.306217881195D-04 0.100000000000D+01
0.352570867902D-06 0.000000000000D+00 0.000000000000D+00 0.214172224773D-06 0.000000000000D+00  7 2 -2 23 -11 11 23 21 2 0.28577551D-01 0.53061220D-01 0.51637054D+05 0.51637054D+05 0.51637054D+05 0.11460667D+01  1  2 15  1  7  1        2 0.356532380875D-04 0.100000000000D+01
-.145778723012D-05 0.000000000000D+00 0.000000000000D+00 0.214172224773D-06 0.000000000000D+00  7 2 -2 23 -11 11 23 21 2 0.28577551D-01 0.53061220D-01 0.51637054D+05 0.51637054D+05 0.51637054D+05 0.11460667D+01  1  2  4  1  7  1        2 -.147416703784D-03 0.100000000000D+01
  </mgrwgt>
  </event>
  <event>
  8     66 0.29152272E-05 0.11697417E+03 0.75467711E-02 0.10126742E+00
        2 -1    0    0  501    0 0.00000000E+00 0.00000000E+00 0.28833075E+04 0.28833076E+04 0.32000000E+00 0.0000E+00 0.9000E+01
       -2 -1    0    0    0  501 0.00000000E+00 0.00000000E+00 -.32327973E+02 0.32329557E+02 0.32000000E+00 0.0000E+00 0.9000E+01
       25  2    1    2    0    0 0.16800718E+03 0.11335812E+03 0.13317362E+04 0.13802244E+04 0.30070197E+03 0.0000E+00 0.0000E+00
       23  2    3    3    0    0 -.29313060E+02 0.79918852E+02 0.28299817E+03 0.30867407E+03 0.89137177E+02 0.0000E+00 0.0000E+00
       23  1    1    2    0    0 -.16800718E+03 -.11335812E+03 0.15192434E+04 0.15354127E+04 0.91188000E+02 0.0000E+00 0.9000E+01
      -13  1    4    4    0    0 -.40642290E+02 0.29197792E+02 0.53061577E+02 0.72937294E+02 0.10565837E+00 0.0000E+00 0.9000E+01
       13  1    4    4    0    0 0.11329230E+02 0.50721059E+02 0.22993660E+03 0.23573678E+03 0.10565837E+00 0.0000E+00 0.9000E+01
       23  1    3    3    0    0 0.19732024E+03 0.33439266E+02 0.10487380E+04 0.10715504E+04 0.91188000E+02 0.0000E+00 0.9000E+01
#aMCatNLO 1  0  0  1  2 0.31669918D+02 0.00000000D+00  -5  7  0 0.00000000D+00 0.00000000D+00 0.00000000D+00 0.00000000D+00 0.00000000D+00
  <mgrwgt>
 0.9548675350D-03    9    2    0
 0.305309389142072D+03 0.000000000000000D+00 0.000000000000000D+00 0.305309389142072D+03
 0.305309389142072D+03 0.000000000000000D+00 0.000000000000000D+00 -.305309389142072D+03
 0.238077241428037D+03 -.168007179547130D+03 -.113358118630532D+03 0.853759105553137D+02
 0.100523033624947D+03 -.406423618761724D+02 0.291977621105150D+02 -.871812445312997D+02
 0.520427971383804D+02 0.113293029785648D+02 0.507210894285529D+02 -.273326090727321D+01
 0.219975706092779D+03 0.197320238444737D+03 0.334392670914636D+02 0.453859488325922D+01
 0.000000000000000D+00 0.000000000000000D+00 -.000000000000000D+00 0.000000000000000D+00
 0.328083383700750D+03 0.000000000000000D+00 0.000000000000000D+00 0.328083383700750D+03
 0.316931976366085D+03 0.000000000000000D+00 0.000000000000000D+00 -.316931976366085D+03
 0.237262114342739D+03 -.173754110473816D+03 -.102462298181776D+03 0.853759105553137D+02
 0.102981005879554D+03 -.431027591568428D+02 0.338625209782969D+02 -.871812445312997D+02
 0.541654574279331D+02 0.100452277270073D+02 0.531556155368609D+02 -.273326090727321D+01
 0.217030933765513D+03 0.192036756352882D+03 0.434564176282393D+02 0.453859488325922D+01
 0.335758486510964D+02 0.147748855507693D+02 -.280122559616210D+02 0.111514073346651D+02
0.738692628586D-05 0.000000000000D+00 0.000000000000D+00 0.418834922867D-07 0.000000000000D+00  7 2 -2 23 -13 13 23 21 0 0.44358590D+00 0.49736575D-02 0.74034448D+05 0.74034448D+05 0.74034448D+05 0.11325966D+01  1  2  2  1  7  1        2 0.366189753094D-03 0.100000000000D+01
-.403764949661D-06 0.000000000000D+00 -.283677419600D-07 0.418834922867D-07 0.000000000000D+00  7 2 -2 23 -13 13 23 21 2 0.44358590D+00 0.49736575D-02 0.74034448D+05 0.74034448D+05 0.74034448D+05 0.11325966D+01  1  2  3  1  7  1        2 -.256756568889D-04 0.100000000000D+01
0.494414453917D-06 0.000000000000D+00 0.000000000000D+00 0.418834922867D-07 0.000000000000D+00  7 2 -2 23 -13 13 23 21 2 0.44358590D+00 0.49736575D-02 0.74034448D+05 0.74034448D+05 0.74034448D+05 0.11325966D+01  1  2 15  1  7  1        2 0.314401135867D-04 0.100000000000D+01
0.123875000346D-04 0.000000000000D+00 0.000000000000D+00 0.418834922867D-07 0.000000000000D+00  7 2 -2 23 -13 13 23 21 2 0.48463199D+00 0.49736575D-02 0.83790680D+05 0.83790680D+05 0.83790680D+05 0.11280797D+01  1  2 12  1  7  1        2 0.530946189945D-03 0.100000000000D+01
-.115662581340D-04 0.000000000000D+00 0.000000000000D+00 0.418834922867D-07 0.000000000000D+00  7 2 -2 23 -13 13 23 21 2 0.44358590D+00 0.49736575D-02 0.74034448D+05 0.74034448D+05 0.74034448D+05 0.11325966D+01  1  2  4  1  7  1        2 -.735505336920D-03 0.100000000000D+01
-.394494428973D-04 0.000000000000D+00 -.717372513110D-05 0.418834922867D-07 0.000000000000D+00  7 2 -2 23 -13 13 23 21 2 0.48226545D+00 0.49736575D-02 0.74034448D+05 0.74034448D+05 0.74034448D+05 0.11325966D+01  1  2  5  1  7  1        2 -.175100230080D-02 0.100000000000D+01
0.399345444870D-04 0.000000000000D+00 0.714872756229D-05 0.418834922867D-07 0.000000000000D+00  7 2 -2 23 -13 13 23 21 2 0.44358590D+00 0.49736575D-02 0.74034448D+05 0.74034448D+05 0.74034448D+05 0.11325966D+01  1  2  6  1  7  1        2 0.253946179113D-02 0.100000000000D+01
0.180889994039D-06 0.000000000000D+00 0.000000000000D+00 0.418834922867D-07 0.000000000000D+00  7 21 -2 23 -13 13 23 -2 2 0.48463199D+00 0.49736575D-02 0.83790680D+05 0.83790680D+05 0.83790680D+05 0.11280797D+01  1  2 12  3  7  1        2 0.464859438869D-06 0.100000000000D+01
-.531004402547D-06 0.000000000000D+00 -.996337601377D-07 0.418834922867D-07 0.000000000000D+00  7 21 -2 23 -13 13 23 -2 2 0.48226545D+00 0.49736575D-02 0.74034448D+05 0.74034448D+05 0.74034448D+05 0.11325966D+01  1  2  5  3  7  1        2 -.145187759445D-05 0.100000000000D+01
  </mgrwgt>
  </event>
  <event>
  9     66 0.29152272E-05 0.33839909E+03 0.75467711E-02 0.98904234E-01
       21 -1    0    0  501  502 0.00000000E+00 0.00000000E+00 0.88879094E+03 0.88879126E+03 0.75000000E+00 0.0000E+00 0.9000E+01
       -2 -1    0    0    0  501 0.00000000E+00 0.00000000E+00 -.16369547E+03 0.16369578E+03 0.32000000E+00 0.0000E+00 0.9000E+01
       25  2    1    2    0    0 -.17080996E+03 -.21455843E+03 0.36369129E+03 0.54558574E+03 0.30030166E+03 0.0000E+00 0.0000E+00
       23  2    3    3    0    0 -.20723005E+03 -.20188309E+03 0.23766012E+03 0.38531662E+03 0.91024651E+02 0.0000E+00 0.0000E+00
       23  1    1    2    0    0 0.15085659E+03 0.21241246E+03 0.38638702E+03 0.47485466E+03 0.91188000E+02 0.0000E+00 0.9000E+01
      -11  1    4    4    0    0 -.11211858E+03 -.49686203E+02 0.11337079E+03 0.16700967E+03 0.51099893E-03 0.0000E+00 0.9000E+01
       11  1    4    4    0    0 -.95111467E+02 -.15219689E+03 0.12428933E+03 0.21830694E+03 0.51099893E-03 0.0000E+00 0.9000E+01
       23  1    3    3    0    0 0.36420088E+02 -.12675341E+02 0.12603117E+03 0.16026913E+03 0.91188000E+02 0.0000E+00 0.9000E+01
       -2  1    1    2    0  502 0.19953375E+02 0.21459652E+01 -.24982835E+02 0.32046635E+02 0.32000000E+00 0.0000E+00 0.9000E+01
#aMCatNLO 2  0  0  1  2 0.20068442D+02 0.00000000D+00  -5  7  0 0.00000000D+00 0.00000000D+00 0.00000000D+00 0.00000000D+00 0.00000000D+00
  <mgrwgt>
 0.4230513128D-05    1    2    0
 0.345788376438968D+03 0.000000000000000D+00 0.000000000000000D+00 0.345788376438968D+03
 0.345788376438968D+03 0.000000000000000D+00 0.000000000000000D+00 -.345788376438968D+03
 0.286600558219483D+03 0.159049855302209D+03 0.213293642581804D+03 0.550780735887869D+02
 0.120077315720818D+03 -.108606710091186D+03 -.493085043995086D+02 -.138497533468978D+02
 0.184098278098647D+03 -.897557269760449D+02 -.151620881596960D+03 -.533591017320293D+02
 0.100800600838988D+03 0.393125817650220D+02 -.123642565853354D+02 0.121307814901402D+02
 0.000000000000000D+00 0.000000000000000D+00 0.000000000000000D+00 -.000000000000000D+00
 0.347313756291057D+03 0.000000000000000D+00 0.000000000000000D+00 0.347313756291057D+03
 0.418903915706510D+03 0.000000000000000D+00 0.000000000000000D+00 -.418903915706510D+03
 0.281470443195018D+03 0.150856586319745D+03 0.212412464846349D+03 0.550780735887869D+02
 0.123414387359067D+03 -.112118582750350D+03 -.496862027276888D+02 -.138497533468978D+02
 0.187235886065943D+03 -.951114671595836D+02 -.152196885999685D+03 -.533591017320293D+02
 0.997471518887512D+02 0.364200882600984D+02 -.126753413162214D+02 0.121307814901402D+02
 0.743498034887874D+02 0.199533753300898D+02 0.214596519724647D+01 -.715901594154537D+02
0.770457943848D-07 0.000000000000D+00 0.000000000000D+00 0.343935337307D-06 0.521666355175D-11  7 21 -2 23 -11 11 23 -2 2 0.13673698D+00 0.25183942D-01 0.12152569D+06 0.12152569D+06 0.12152569D+06 0.11148396D+01  1  2  1  3  7  1        2 0.423051312760D-05 0.100000000000D+01
  </mgrwgt>
  </event>
  <event>
  8     66 0.29152272E-05 0.78964780E+03 0.75467711E-02 0.88398046E-01
        2 -1    0    0  501    0 0.00000000E+00 0.00000000E+00 0.42081513E+03 0.42081525E+03 0.32000000E+00 0.0000E+00 0.9000E+01
       -2 -1    0    0    0  501 0.00000000E+00 0.00000000E+00 -.18298895E+04 0.18298895E+04 0.32000000E+00 0.0000E+00 0.9000E+01
       25  2    1    2    0    0 -.59524843E+03 0.47981699E+03 -.11980599E+04 0.14523393E+04 0.29899323E+03 0.0000E+00 0.0000E+00
       23  2    3    3    0    0 -.52968642E+03 0.34907504E+03 -.85745463E+03 0.10706077E+04 0.92473347E+02 0.0000E+00 0.0000E+00
       23  1    1    2    0    0 0.59524843E+03 -.47981699E+03 -.21101448E+03 0.79836546E+03 0.91188000E+02 0.0000E+00 0.9000E+01
      -13  1    4    4    0    0 -.24108103E+03 0.12484796E+03 -.30643242E+03 0.40939946E+03 0.10565837E+00 0.0000E+00 0.9000E+01
       13  1    4    4    0    0 -.28860538E+03 0.22422709E+03 -.55102221E+03 0.66120824E+03 0.10565837E+00 0.0000E+00 0.9000E+01
       23  1    3    3    0    0 -.65562018E+02 0.13074195E+03 -.34060524E+03 0.38173160E+03 0.91188000E+02 0.0000E+00 0.9000E+01
#aMCatNLO 1  0  0  1  2 0.20857559D+03 0.00000000D+00  -5  7  0 0.00000000D+00 0.00000000D+00 0.00000000D+00 0.00000000D+00 0.00000000D+00
  <mgrwgt>
 0.4756935855D-03    4    2    0
 0.877522276814007D+03 0.000000000000000D+00 0.000000000000000D+00 0.877522276814007D+03
 0.877522276814007D+03 0.000000000000000D+00 0.000000000000000D+00 -.877522276814007D+03
 0.854422663405478D+03 0.595248432778012D+03 -.479816992027775D+03 0.370375206829032D+03
 0.278996308632822D+03 -.241080968816863D+03 0.124847826020423D+03 -.642800672295692D+02
 0.405547291987382D+03 -.288605446312991D+03 0.224227216575385D+03 -.175777295870751D+03
 0.216078289602333D+03 -.655620176481584D+02 0.130741949431968D+03 -.130317843728712D+03
 0.000000000000000D+00 -.000000000000000D+00 0.000000000000000D+00 -.000000000000000D+00
 0.901823484364512D+03 0.000000000000000D+00 0.000000000000000D+00 0.901823484364512D+03
 0.148371738698510D+04 0.000000000000000D+00 0.000000000000000D+00 -.148371738698510D+04
 0.934211356942298D+03 0.700998609828883D+03 -.485652924710944D+03 0.370375206829032D+03
 0.251534698994080D+03 -.209714156294414D+03 0.123116816092388D+03 -.642800672295692D+02
 0.372686054817115D+03 -.242593622052003D+03 0.221688006556968D+03 -.175777295870751D+03
 0.208962910951000D+03 -.404321242764053D+02 0.129355130325441D+03 -.130317843728712D+03
 0.618145849645121D+03 -.208258707206061D+03 0.114929717361482D+02 -.581893902620590D+03
0.149869660739D-02 0.000000000000D+00 0.000000000000D+00 0.442750186331D-06 0.000000000000D+00  7 2 -2 23 -13 13 23 21 0 0.64740801D-01 0.28152147D+00 0.62354365D+06 0.62354365D+06 0.62354365D+06 0.10617982D+01  1  2  2  1  7  1        2 0.486240803491D-03 0.100000000000D+01
-.821338452943D-04 0.000000000000D+00 -.575538958827D-05 0.442750186331D-06 0.000000000000D+00  7 2 -2 23 -13 13 23 21 2 0.64740801D-01 0.28152147D+00 0.62354365D+06 0.62354365D+06 0.62354365D+06 0.10617982D+01  1  2  3  1  7  1        2 -.300430352748D-04 0.100000000000D+01
0.975965515850D-04 0.000000000000D+00 0.000000000000D+00 0.442750186331D-06 0.000000000000D+00  7 2 -2 23 -13 13 23 21 2 0.64740801D-01 0.28152147D+00 0.62354365D+06 0.62354365D+06 0.62354365D+06 0.10617982D+01  1  2 15  1  7  1        2 0.356990060731D-04 0.100000000000D+01
-.442974617070D-04 0.000000000000D+00 0.000000000000D+00 0.442750186331D-06 0.000000000000D+00  7 2 -2 23 -13 13 23 21 2 0.64740801D-01 0.28152147D+00 0.62354365D+06 0.62354365D+06 0.62354365D+06 0.10617982D+01  1  2  4  1  7  1        2 -.162031888301D-04 0.100000000000D+01
  </mgrwgt>
  </event>
  <event>
  8     66 0.29152272E-05 0.26881355E+03 0.75467711E-02 0.97468622E-01
        2 -1    0    0  501    0 0.00000000E+00 0.00000000E+00 0.76689002E+03 0.76689009E+03 0.32000000E+00 0.0000E+00 0.9000E+01
       -2 -1    0    0    0  501 0.00000000E+00 0.00000000E+00 -.63762614E+03 0.63762622E+03 0.32000000E+00 0.0000E+00 0.9000E+01
       25  2    1    2    0    0 0.13941892E+03 -.26385299E+03 -.52821466E+03 0.67674620E+03 0.29986440E+03 0.0000E+00 0.0000E+00
       23  2    3    3    0    0 -.21902300E+02 0.16427217E+01 -.77947972E+02 0.12215820E+03 0.91456715E+02 0.0000E+00 0.0000E+00
       23  1    1    2    0    0 -.13941892E+03 0.26385299E+03 0.65747854E+03 0.72777010E+03 0.91188000E+02 0.0000E+00 0.9000E+01
      -11  1    4    4    0    0 0.23437573E+02 -.25316605E+02 -.54339992E+02 0.64366800E+02 0.51099893E-03 0.0000E+00 0.9000E+01
       11  1    4    4    0    0 -.45339873E+02 0.26959326E+02 -.23607980E+02 0.57791401E+02 0.51099893E-03 0.0000E+00 0.9000E+01
       23  1    3    3    0    0 0.16132123E+03 -.26549571E+03 -.45026669E+03 0.55458800E+03 0.91188000E+02 0.0000E+00 0.9000E+01
#aMCatNLO 1  0  0  1  2 0.58223578D+02 0.00000000D+00  -5  7  0 0.00000000D+00 0.00000000D+00 0.00000000D+00 0.00000000D+00 0.00000000D+00
  <mgrwgt>
 0.9611907309D-03    9    2    0
 0.699277646191574D+03 0.000000000000000D+00 0.000000000000000D+00 0.699277646191574D+03
 0.699277646191574D+03 0.000000000000000D+00 0.000000000000000D+00 -.699277646191574D+03
 0.670103465650186D+03 -.139418924788479D+03 0.263852985376748D+03 0.593015487867721D+03
 0.696636159840808D+02 0.234375727349358D+02 -.253166046540254D+02 -.605208154692570D+02
 0.602197320165373D+02 -.453398730109779D+02 0.269593263206693D+02 -.290500733876462D+02
 0.598568478732344D+03 0.161321225064521D+03 -.265495707043392D+03 -.503444599010818D+03
 0.000000000000000D+00 0.000000000000000D+00 -.000000000000000D+00 0.000000000000000D+00
 0.731663271023178D+03 0.000000000000000D+00 0.000000000000000D+00 0.731663271023178D+03
 0.726551038956910D+03 0.000000000000000D+00 0.000000000000000D+00 -.726551038956910D+03
 0.682982934453178D+03 -.155957295146738D+03 0.286636338676371D+03 0.593015487867721D+03
 0.682978355105057D+02 0.217513111777979D+02 -.229936011186341D+02 -.605208154692570D+02
 0.622890049108440D+02 -.468372606598914D+02 0.290221360832195D+02 -.290500733876462D+02
 0.586196952425886D+03 0.146840191564620D+03 -.245546552729820D+03 -.503444599010818D+03
 0.584475826796751D+02 0.342030530642113D+02 -.471183209111363D+02 0.511223206626776D+01
0.108591604390D-03 0.000000000000D+00 0.000000000000D+00 0.587119498163D-05 0.000000000000D+00  7 2 -2 23 -11 11 23 21 0 0.11798309D+00 0.98096341D-01 0.13070552D+06 0.13070552D+06 0.13070552D+06 0.11123019D+01  1  2  2  1  7  1        2 0.444454125619D-03 0.100000000000D+01
-.284063830729D-05 0.000000000000D+00 -.417020353683D-06 0.587119498163D-05 0.000000000000D+00  7 2 -2 23 -11 11 23 21 2 0.11798309D+00 0.98096341D-01 0.13070552D+06 0.13070552D+06 0.13070552D+06 0.11123019D+01  1  2  3  1  7  1        2 -.143844077661D-04 0.100000000000D+01
0.656390820692D-05 0.000000000000D+00 0.000000000000D+00 0.587119498163D-05 0.000000000000D+00  7 2 -2 23 -11 11 23 21 2 0.11798309D+00 0.98096341D-01 0.13070552D+06 0.13070552D+06 0.13070552D+06 0.11123019D+01  1  2 15  1  7  1        2 0.332382802645D-04 0.100000000000D+01
0.241256118167D-03 0.000000000000D+00 0.000000000000D+00 0.587119498163D-05 0.000000000000D+00  7 2 -2 23 -11 11 23 21 2 0.12565101D+00 0.98096341D-01 0.15369462D+06 0.15369462D+06 0.15369462D+06 0.11067189D+01  1  2 12  1  7  1        2 0.110983711802D-02 0.100000000000D+01
-.198570211193D-03 0.000000000000D+00 0.000000000000D+00 0.587119498163D-05 0.000000000000D+00  7 2 -2 23 -11 11 23 21 2 0.11798309D+00 0.98096341D-01 0.13070552D+06 0.13070552D+06 0.13070552D+06 0.11123019D+01  1  2  4  1  7  1        2 -.100551868243D-02 0.100000000000D+01
-.795700253127D-03 0.000000000000D+00 -.186441936224D-03 0.587119498163D-05 0.000000000000D+00  7 2 -2 23 -11 11 23 21 2 0.12711802D+00 0.98096341D-01 0.13070552D+06 0.13070552D+06 0.13070552D+06 0.11123019D+01  1  2  5  1  7  1        2 -.366675706928D-02 0.100000000000D+01
0.807873847695D-03 0.000000000000D+00 0.185924697640D-03 0.587119498163D-05 0.000000000000D+00  7 2 -2 23 -11 11 23 21 2 0.11798309D+00 0.98096341D-01 0.13070552D+06 0.13070552D+06 0.13070552D+06 0.11123019D+01  1  2  6  1  7  1        2 0.409090689899D-02 0.100000000000D+01
0.275740500183D-05 0.000000000000D+00 0.000000000000D+00 0.587119498163D-05 0.000000000000D+00  7 21 -2 23 -11 11 23 -2 2 0.12565101D+00 0.98096341D-01 0.15369462D+06 0.15369462D+06 0.15369462D+06 0.11067189D+01  1  2 12  3  7  1        2 0.124179136909D-04 0.100000000000D+01
-.962920216848D-05 0.000000000000D+00 -.233907926428D-05 0.587119498163D-05 0.000000000000D+00  7 21 -2 23 -11 11 23 -2 2 0.12711802D+00 0.98096341D-01 0.13070552D+06 0.13070552D+06 0.13070552D+06 0.11123019D+01  1  2  5  3  7  1        2 -.430034461868D-04 0.100000000000D+01
  </mgrwgt>
  </event>
  <event>
  8     66 0.29152272E-05 0.29306823E+03 0.75467711E-02 0.91015167E-01
        2 -1    0    0  501    0 0.00000000E+00 0.00000000E+00 0.10187101E+03 0.10187151E+03 0.32000000E+00 0.0000E+00 0.9000E+01
       -2 -1    0    0    0  501 0.00000000E+00 0.00000000E+00 -.17449156E+04 0.17449157E+04 0.32000000E+00 0.0000E+00 0.9000E+01
       25  2    1    2    0    0 -.10552662E+03 -.21957645E+03 -.32969621E+03 0.50792609E+03 0.29989938E+03 0.0000E+00 0.0000E+00
       23  2    3    3    0    0 0.35036764E+02 0.82476634E+01 -.12433519E+03 0.15842603E+03 0.91345324E+02 0.0000E+00 0.0000E+00
       23  1    1    2    0    0 0.10552662E+03 0.21957645E+03 -.13133484E+04 0.13388611E+04 0.91188000E+02 0.0000E+00 0.9000E+01
      -11  1    4    4    0    0 0.91311061E+01 0.13960221E+02 0.11347074E+02 0.20174760E+02 0.51099893E-03 0.0000E+00 0.9000E+01
       11  1    4    4    0    0 0.25905658E+02 -.57125572E+01 -.13568226E+03 0.13825127E+03 0.51099893E-03 0.0000E+00 0.9000E+01
       23  1    3    3    0    0 -.14056339E+03 -.22782412E+03 -.20536102E+03 0.34950006E+03 0.91188000E+02 0.0000E+00 0.9000E+01
#aMCatNLO 1  0  0  1  2 0.58658363D+03 0.00000000D+00  -5  7  0 0.00000000D+00 0.00000000D+00 0.00000000D+00 0.00000000D+00 0.00000000D+00
  <mgrwgt>
 0.4970868528D-03    5    2    0
 0.421612152492075D+03 0.000000000000000D+00 0.000000000000000D+00 0.421612152492075D+03
 0.421612152492075D+03 0.000000000000000D+00 0.000000000000000D+00 -.421612152492075D+03
 0.373211991070524D+03 0.105526624534965D+03 0.219576453949840D+03 -.267623338518701D+03
 0.662958099857661D+02 0.913110609524293D+01 0.139602205906230D+02 0.641628363167291D+02
 0.384104847221527D+02 0.259056583063705D+02 -.571255716340101D+01 -.277782089948070D+02
 0.365306019205707D+03 -.140563388936579D+03 -.227824117377062D+03 0.231238711196779D+03
 0.000000000000000D+00 0.000000000000000D+00 0.000000000000000D+00 0.000000000000000D+00
 0.120931300780473D+04 0.000000000000000D+00 0.000000000000000D+00 0.120931300780473D+04
 0.637233816746246D+03 0.000000000000000D+00 0.000000000000000D+00 -.637233816746246D+03
 0.375690652896997D+03 -.129181749886263D+03 0.210992984496166D+03 -.267623338518701D+03
 0.740564085575440D+02 -.348557075794888D+02 0.123515882933199D+02 0.641628363167291D+02
 0.289263793047190D+02 0.480207959466848D+01 -.648433159915253D+01 -.277782089948070D+02
 0.548510856030947D+03 -.426956386789025D+03 -.238297734072139D+03 0.231238711196779D+03
 0.819362527760771D+03 0.586191764660108D+03 0.214374928818057D+02 0.572079191058485D+03
0.194690329453D-03 0.000000000000D+00 0.000000000000D+00 0.107578247246D-05 0.000000000000D+00  7 2 -2 23 -11 11 23 21 0 0.15672504D-01 0.26844860D+00 0.85888989D+05 0.85888989D+05 0.85888989D+05 0.11271839D+01  1  2  2  1  7  1        2 0.430057546854D-03 0.100000000000D+01
-.907675499367D-05 0.000000000000D+00 -.747662128239D-06 0.107578247246D-05 0.000000000000D+00  7 2 -2 23 -11 11 23 21 2 0.15672504D-01 0.26844860D+00 0.85888989D+05 0.85888989D+05 0.85888989D+05 0.11271839D+01  1  2  3  1  7  1        2 -.254743053528D-04 0.100000000000D+01
0.122277857416D-04 0.000000000000D+00 0.000000000000D+00 0.107578247246D-05 0.000000000000D+00  7 2 -2 23 -11 11 23 21 2 0.15672504D-01 0.26844860D+00 0.85888989D+05 0.85888989D+05 0.85888989D+05 0.11271839D+01  1  2 15  1  7  1        2 0.343178093919D-04 0.100000000000D+01
0.821324720217D-04 0.000000000000D+00 -.810786496971D-04 0.107578247246D-05 0.000000000000D+00  7 2 -2 23 -11 11 23 21 2 0.70421394D-01 0.26844860D+00 0.85888989D+05 0.85888989D+05 0.85888989D+05 0.11271839D+01  1  2  5  1  7  1        2 0.421327732570D-04 0.100000000000D+01
0.142316099884D-04 0.000000000000D+00 -.147285680306D-04 0.107578247246D-05 0.000000000000D+00  7 21 -2 23 -11 11 23 -2 2 0.70421394D-01 0.26844860D+00 0.85888989D+05 0.85888989D+05 0.85888989D+05 0.11271839D+01  1  2  5  3  7  1        2 0.160530286843D-04 0.100000000000D+01
  </mgrwgt>
  </event>
  <event>
  8     66 0.29152272E-05 0.79593006E+02 0.75467711E-02 0.10775033E+00
        4 -1    0    0  501    0 0.00000000E+00 0.00000000E+00 0.59152510E+02 0.59172815E+02 0.15500000E+01 0.0000E+00 0.9000E+01
       -4 -1    0    0    0  501 0.00000000E+00 0.00000000E+00 -.65083086E+03 0.65083271E+03 0.15500000E+01 0.0000E+00 0.9000E+01
       25  2    1    2    0    0 0.12934155E+01 0.66947135E+01 -.44353485E+03 0.53591290E+03 0.30072077E+03 0.0000E+00 0.0000E+00
       23  2    3    3    0    0 0.47636337E+02 -.83166511E+02 -.34052808E+03 0.36518402E+03 0.90631687E+02 0.0000E+00 0.0000E+00
       23  1    1    2    0    0 -.12934155E+01 -.66947135E+01 -.14814350E+03 0.17409262E+03 0.91188000E+02 0.0000E+00 0.9000E+01
      -13  1    4    4    0    0 -.44019841E+01 0.58368395E+01 0.19143689E+01 0.75579185E+01 0.10565837E+00 0.0000E+00 0.9000E+01
       13  1    4    4    0    0 0.52038321E+02 -.89003351E+02 -.34244245E+03 0.35762610E+03 0.10565837E+00 0.0000E+00 0.9000E+01
       23  1    3    3    0    0 -.46342922E+02 0.89861224E+02 -.10300676E+03 0.17072888E+03 0.91188000E+02 0.0000E+00 0.9000E+01
#aMCatNLO 1  0  0  2  1 0.24329197D+02 0.00000000D+00  -5  7  0 0.00000000D+00 0.00000000D+00 0.00000000D+00 0.00000000D+00 0.00000000D+00
  <mgrwgt>
 0.2295407885D-04    9    2    0
 0.196229820544337D+03 0.000000000000000D+00 0.000000000000000D+00 0.196229820544337D+03
 0.196229820544337D+03 0.000000000000000D+00 0.000000000000000D+00 -.196229820544337D+03
 0.916608780821373D+02 -.136856503018790D+01 -.708368701745315D+01 -.586631356009338D+01
 0.165867421126491D+02 -.438085020119098D+01 0.586660653511554D+01 0.148832487444237D+02
 0.130490411483697D+03 0.520377520686538D+02 -.888130094755667D+02 -.802001820242255D+02
 0.153721609410189D+03 -.462883368372749D+02 0.900300899579043D+02 0.711832468398951D+02
 0.000000000000000D+00 0.000000000000000D+00 -.000000000000000D+00 -.000000000000000D+00
 0.207945285337160D+03 0.000000000000000D+00 0.000000000000000D+00 0.207945285337160D+03
 0.209657079093248D+03 0.000000000000000D+00 0.000000000000000D+00 -.209657079093248D+03
 0.917408405003542D+02 -.658351179923423D+01 -.483468813011099D+01 -.586631356009338D+01
 0.170119757071358D+02 -.533621488529876D+01 0.627861728167151D+01 0.148832487444237D+02
 0.125598460318175D+03 0.447559782395214D+02 -.856726703762683D+02 -.802001820242255D+02
 0.158861744276308D+03 -.551765062773659D+02 0.938632035190862D+02 0.711832468398951D+02
 0.243893436284351D+02 0.223402547223775D+02 -.963446229437842D+01 -.171179375608760D+01
0.117108879083D-05 0.000000000000D+00 0.000000000000D+00 0.435124767362D-07 0.000000000000D+00  7 4 -4 23 -13 13 23 21 0 0.91020901D-02 0.10012953D+00 0.28557148D+05 0.28557148D+05 0.28557148D+05 0.11693273D+01  1  2  2  2  7  2       -4 0.176508466021D-04 0.100000000000D+01
-.632935510960D-07 0.000000000000D+00 -.449728931153D-08 0.435124767362D-07 0.000000000000D+00  7 4 -4 23 -13 13 23 21 2 0.91020901D-02 0.10012953D+00 0.28557148D+05 0.28557148D+05 0.28557148D+05 0.11693273D+01  1  2  3  2  7  2       -4 -.130438960658D-05 0.100000000000D+01
0.757303805451D-07 0.000000000000D+00 0.000000000000D+00 0.435124767362D-07 0.000000000000D+00  7 4 -4 23 -13 13 23 21 2 0.91020901D-02 0.10012953D+00 0.28557148D+05 0.28557148D+05 0.28557148D+05 0.11693273D+01  1  2 15  2  7  2       -4 0.156069488241D-05 0.100000000000D+01
0.175081499280D-05 0.000000000000D+00 0.000000000000D+00 0.435124767362D-07 0.000000000000D+00  7 4 -4 23 -13 13 23 21 2 0.91020901D-02 0.10978225D+00 0.32906327D+05 0.32906327D+05 0.32906327D+05 0.11636282D+01  1  2 12  2  7  2       -4 0.278615386226D-04 0.100000000000D+01
-.143316361354D-05 0.000000000000D+00 0.000000000000D+00 0.435124767362D-07 0.000000000000D+00  7 4 -4 23 -13 13 23 21 2 0.91020901D-02 0.10012953D+00 0.28557148D+05 0.28557148D+05 0.28557148D+05 0.11693273D+01  1  2  4  2  7  2       -4 -.295354532911D-04 0.100000000000D+01
-.580538092900D-05 0.000000000000D+00 -.130659529179D-05 0.435124767362D-07 0.000000000000D+00  7 4 -4 23 -13 13 23 21 2 0.91020901D-02 0.11203871D+00 0.28557148D+05 0.28557148D+05 0.28557148D+05 0.11693273D+01  1  2  5  2  7  2       -4 -.873867628859D-04 0.100000000000D+01
0.592298257726D-05 0.000000000000D+00 0.129838784909D-05 0.435124767362D-07 0.000000000000D+00  7 4 -4 23 -13 13 23 21 2 0.91020901D-02 0.10012953D+00 0.28557148D+05 0.28557148D+05 0.28557148D+05 0.11693273D+01  1  2  6  2  7  2       -4 0.122064203697D-03 0.100000000000D+01
0.264587894908D-07 0.000000000000D+00 0.000000000000D+00 0.435124767362D-07 0.000000000000D+00  7 4 21 23 -13 13 23 4 2 0.91020901D-02 0.10978225D+00 0.32906327D+05 0.32906327D+05 0.32906327D+05 0.11636282D+01  1  2 12  4  7  2       -4 0.108262589023D-04 0.100000000000D+01
-.988546949105D-07 0.000000000000D+00 -.234538477273D-07 0.435124767362D-07 0.000000000000D+00  7 4 21 23 -13 13 23 4 2 0.91020901D-02 0.11203871D+00 0.28557148D+05 0.28557148D+05 0.28557148D+05 0.11693273D+01  1  2  5  4  7  2       -4 -.387828580772D-04 0.100000000000D+01
  </mgrwgt>
  </event>
  <event>
  8     66 0.29152272E-05 0.18858564E+03 0.75467711E-02 0.98173986E-01
        2 -1    0    0  501    0 0.00000000E+00 0.00000000E+00 0.26260931E+04 0.26260931E+04 0.32000000E+00 0.0000E+00 0.9000E+01
       -2 -1    0    0    0  501 0.00000000E+00 0.00000000E+00 -.57966890E+02 0.57967774E+02 0.32000000E+00 0.0000E+00 0.9000E+01
       25  2    1    2    0    0 -.62195611E+02 -.28527682E+03 0.96415996E+03 0.10511879E+04 0.30023400E+03 0.0000E+00 0.0000E+00
       23  2    3    3    0    0 -.95569817E+01 -.28369865E+03 0.57562833E+03 0.64863930E+03 0.93854702E+02 0.0000E+00 0.0000E+00
       23  1    1    2    0    0 0.62195611E+02 0.28527682E+03 0.16039663E+04 0.16328730E+04 0.91188000E+02 0.0000E+00 0.9000E+01
      -13  1    4    4    0    0 -.39945963E+02 -.95521647E+02 0.14984978E+03 0.18214015E+03 0.10565837E+00 0.0000E+00 0.9000E+01
       13  1    4    4    0    0 0.30388981E+02 -.18817700E+03 0.42577855E+03 0.46649915E+03 0.10565837E+00 0.0000E+00 0.9000E+01
       23  1    3    3    0    0 -.52638629E+02 -.15781750E+01 0.38853162E+03 0.40254862E+03 0.91188000E+02 0.0000E+00 0.9000E+01
#aMCatNLO 1  0  0  1  2 0.33399578D+02 0.00000000D+00  -5  7  0 0.00000000D+00 0.00000000D+00 0.00000000D+00 0.00000000D+00 0.00000000D+00
  <mgrwgt>
 0.4492412598D-03    9    2    0
 0.390163636522080D+03 0.000000000000000D+00 0.000000000000000D+00 0.390163636522080D+03
 0.390163636522080D+03 0.000000000000000D+00 0.000000000000000D+00 -.390163636522080D+03
 0.337733579901203D+03 0.621956109721235D+02 0.285276824069927D+03 0.143169686991565D+03
 0.133331268444877D+03 -.399460505185096D+02 -.955215303889034D+02 -.840070081913063D+02
 0.203323851998773D+03 0.303890691385540D+02 -.188177119012777D+03 -.707563788542241D+02
 0.105938572699307D+03 -.526386295921679D+02 -.157817466824685D+01 0.115937000539659D+02
 0.000000000000000D+00 -.000000000000000D+00 0.000000000000000D+00 0.000000000000000D+00
 0.473822227625719D+03 0.000000000000000D+00 0.000000000000000D+00 0.473822227625719D+03
 0.393868745108111D+03 0.000000000000000D+00 0.000000000000000D+00 -.393868745108111D+03
 0.327762559567644D+03 0.676100850192493D+02 0.272110935540563D+03 0.143169686991565D+03
 0.136584289161001D+03 -.377500185734724D+02 -.100861423339472D+03 -.840070081913063D+02
 0.211453768197055D+03 0.337636982711457D+02 -.196382900516380D+03 -.707563788542241D+02
 0.105241113624493D+03 -.509204724713873D+02 -.575606247992407D+01 0.115937000539659D+02
 0.866492421836382D+02 -.127032922455352D+02 0.308894507952127D+02 0.799534825176080D+02
0.948547408328D-05 0.000000000000D+00 0.000000000000D+00 0.112244896318D-06 0.000000000000D+00  7 2 -2 23 -13 13 23 21 0 0.40401439D+00 0.89180526D-02 0.12437660D+06 0.12437660D+06 0.12437660D+06 0.11140296D+01  1  2  2  1  7  1        2 0.272857676742D-03 0.100000000000D+01
-.520430714823D-06 0.000000000000D+00 -.364267180625D-07 0.112244896318D-06 0.000000000000D+00  7 2 -2 23 -13 13 23 21 2 0.40401439D+00 0.89180526D-02 0.12437660D+06 0.12437660D+06 0.12437660D+06 0.11140296D+01  1  2  3  1  7  1        2 -.185794771927D-04 0.100000000000D+01
0.598746069701D-06 0.000000000000D+00 0.000000000000D+00 0.112244896318D-06 0.000000000000D+00  7 2 -2 23 -13 13 23 21 2 0.40401439D+00 0.89180526D-02 0.12437660D+06 0.12437660D+06 0.12437660D+06 0.11140296D+01  1  2 15  1  7  1        2 0.213753505114D-04 0.100000000000D+01
0.497962867975D-04 0.000000000000D+00 0.000000000000D+00 0.112244896318D-06 0.000000000000D+00  7 2 -2 23 -13 13 23 21 2 0.49229011D+00 0.89180526D-02 0.13682563D+06 0.13682563D+06 0.13682563D+06 0.11107163D+01  1  2 12  1  7  1        2 0.780688744861D-03 0.100000000000D+01
-.497119200373D-04 0.000000000000D+00 0.000000000000D+00 0.112244896318D-06 0.000000000000D+00  7 2 -2 23 -13 13 23 21 2 0.40401439D+00 0.89180526D-02 0.12437660D+06 0.12437660D+06 0.12437660D+06 0.11140296D+01  1  2  4  1  7  1        2 -.177472516174D-02 0.100000000000D+01
-.593806522239D-04 0.000000000000D+00 -.450593786182D-05 0.112244896318D-06 0.000000000000D+00  7 2 -2 23 -13 13 23 21 2 0.49174309D+00 0.89180526D-02 0.12437660D+06 0.12437660D+06 0.12437660D+06 0.11140296D+01  1  2  5  1  7  1        2 -.945783689523D-03 0.100000000000D+01
0.592049451897D-04 0.000000000000D+00 0.442031853725D-05 0.112244896318D-06 0.000000000000D+00  7 2 -2 23 -13 13 23 21 2 0.40401439D+00 0.89180526D-02 0.12437660D+06 0.12437660D+06 0.12437660D+06 0.11140296D+01  1  2  6  1  7  1        2 0.211362799604D-02 0.100000000000D+01
0.141195980608D-05 0.000000000000D+00 0.000000000000D+00 0.112244896318D-06 0.000000000000D+00  7 21 -2 23 -13 13 23 -2 2 0.49229011D+00 0.89180526D-02 0.13682563D+06 0.13682563D+06 0.13682563D+06 0.11107163D+01  1  2 12  3  7  1        2 0.120943806074D-05 0.100000000000D+01
-.162609037815D-05 0.000000000000D+00 -.127211410551D-06 0.112244896318D-06 0.000000000000D+00  7 21 -2 23 -13 13 23 -2 2 0.49174309D+00 0.89180526D-02 0.12437660D+06 0.12437660D+06 0.12437660D+06 0.11140296D+01  1  2  5  3  7  1        2 -.142961795749D-05 0.100000000000D+01
  </mgrwgt>
  </event>
  <event>
  9     66 0.29152272E-05 0.53073001E+03 0.75467711E-02 0.93411263E-01
        2 -1    0    0  501    0 0.00000000E+00 0.00000000E+00 0.14241877E+04 0.14241877E+04 0.32000000E+00 0.0000E+00 0.9000E+01
       -2 -1    0    0    0  502 0.00000000E+00 0.00000000E+00 -.24942579E+03 0.24942600E+03 0.32000000E+00 0.0000E+00 0.9000E+01
       25  2    1    2    0    0 0.22694721E+03 0.41221901E+03 0.79560390E+03 0.97526665E+03 0.31101435E+03 0.0000E+00 0.0000E+00
       23  2    3    3    0    0 0.23430282E+03 0.29244630E+03 0.69242725E+03 0.79261868E+03 0.91467100E+02 0.0000E+00 0.0000E+00
       23  1    1    2    0    0 -.22745351E+03 -.46488760E+03 0.30573994E+03 0.60798663E+03 0.91188000E+02 0.0000E+00 0.9000E+01
      -13  1    4    4    0    0 0.16713316E+03 0.13610118E+03 0.39178885E+03 0.44716389E+03 0.10565837E+00 0.0000E+00 0.9000E+01
       13  1    4    4    0    0 0.67169660E+02 0.15634512E+03 0.30063840E+03 0.34545480E+03 0.10565837E+00 0.0000E+00 0.9000E+01
       23  1    3    3    0    0 -.73556124E+01 0.11977271E+03 0.10317665E+03 0.18264797E+03 0.91188000E+02 0.0000E+00 0.9000E+01
       21  1    1    2  501  502 0.50630063E+00 0.52668591E+02 0.73418077E+02 0.90360463E+02 0.75000000E+00 0.0000E+00 0.9000E+01
#aMCatNLO 2  0  0  2  1 0.52671025D+02 0.00000000D+00  -5  7  0 0.00000000D+00 0.00000000D+00 0.00000000D+00 0.00000000D+00 0.00000000D+00
  <mgrwgt>
 0.2695529392D-03    2    2    0
 0.568101763345707D+03 0.000000000000000D+00 0.000000000000000D+00 0.568101763345707D+03
 0.568101763345707D+03 0.000000000000000D+00 0.000000000000000D+00 -.568101763345707D+03
 0.529193832956669D+03 -.227213140568522D+03 -.439882187265877D+03 -.163121769162021D+03
 0.249719692665398D+03 0.167243027298497D+03 0.147516747362761D+03 0.112376616662215D+03
 0.197239836195267D+03 0.672557026399305D+02 0.165309973402603D+03 0.839811653787670D+02
 0.160050164874080D+03 -.728558936990540D+01 0.127055466500513D+03 -.332360128789608D+02
 0.000000000000000D+00 0.000000000000000D+00 0.000000000000000D+00 0.000000000000000D+00
 0.603404502809384D+03 0.000000000000000D+00 0.000000000000000D+00 0.603404502809384D+03
 0.588703385981543D+03 0.000000000000000D+00 0.000000000000000D+00 -.588703385981543D+03
 0.550254078679642D+03 -.227453516454785D+03 -.464887605811756D+03 -.163121769162021D+03
 0.243075221775643D+03 0.167133289706689D+03 0.136101149666899D+03 0.112376616662215D+03
 0.189758758656335D+03 0.671695242062913D+02 0.156345148202040D+03 0.839811653787670D+02
 0.154335648610857D+03 -.735559809170687D+01 0.119772716896448D+03 -.332360128789608D+02
 0.546841810684492D+02 0.506300633511152D+00 0.526685910463687D+02 0.147011168278407D+02
-.176770654670D-06 0.000000000000D+00 0.000000000000D+00 0.421783997040D-08 0.000000000000D+00  7 2 -2 23 -13 13 23 21 2 0.20628594D+00 0.37030190D-01 0.28167435D+06 0.28167435D+06 0.28167435D+06 0.10865829D+01  1  2  8  2  7  2       -2 -.281800598357D-05 0.100000000000D+01
0.205057193560D-04 0.000000000000D+00 0.000000000000D+00 0.421783997040D-08 0.955931535290D-11  7 2 -2 23 -13 13 23 21 2 0.21910487D+00 0.38373051D-01 0.31058742D+06 0.31058742D+06 0.31058742D+06 0.10834392D+01  1  2  1  2  7  2       -2 0.272370945207D-03 0.100000000000D+01
  </mgrwgt>
  </event>
  <event>
  9     66 0.29152272E-05 0.19075106E+03 0.75467711E-02 0.10590351E+00
        2 -1    0    0  502    0 0.00000000E+00 0.00000000E+00 0.40594230E+03 0.40594242E+03 0.32000000E+00 0.0000E+00 0.9000E+01
       -2 -1    0    0    0  501 0.00000000E+00 0.00000000E+00 -.19819579E+03 0.19819604E+03 0.32000000E+00 0.0000E+00 0.9000E+01
       25  2    1    2    0    0 -.10616027E+03 0.10603519E+02 0.24173519E+03 0.40259164E+03 0.30374609E+03 0.0000E+00 0.0000E+00
       23  2    3    3    0    0 -.66916734E+02 -.65404052E+01 -.22410874E+02 0.11988620E+03 0.96694509E+02 0.0000E+00 0.0000E+00
       23  1    1    2    0    0 0.13671867E+03 -.19449998E+02 -.37035223E+02 0.16957935E+03 0.91188000E+02 0.0000E+00 0.9000E+01
      -11  1    4    4    0    0 -.36596291E+02 -.49391848E+02 0.30416109E+01 0.61547498E+02 0.51099893E-03 0.0000E+00 0.9000E+01
       11  1    4    4    0    0 -.30320443E+02 0.42851443E+02 -.25452485E+02 0.58338704E+02 0.51099893E-03 0.0000E+00 0.9000E+01
       23  1    3    3    0    0 -.39243538E+02 0.17143924E+02 0.26414606E+03 0.28270544E+03 0.91188000E+02 0.0000E+00 0.9000E+01
       21  1    1    2  502  501 -.30558397E+02 0.88464789E+01 0.30465447E+01 0.31967479E+02 0.75000000E+00 0.0000E+00 0.9000E+01
#aMCatNLO 2  0  0  1  1 0.31813139D+02 0.00000000D+00  -5  7  0 0.00000000D+00 0.00000000D+00 0.00000000D+00 0.00000000D+00 0.00000000D+00
  <mgrwgt>
 0.2408783688D-03    1    2    0
 0.266676530552126D+03 0.000000000000000D+00 0.000000000000000D+00 0.266676530552126D+03
 0.266676530552126D+03 0.000000000000000D+00 0.000000000000000D+00 -.266676530552126D+03
 0.187979657870619D+03 0.125734482404411D+03 -.162701396153782D+02 -.104628977441940D+03
 0.661371570233016D+02 -.403423870913864D+02 -.483073744653871D+02 -.203227191870197D+02
 0.748012301935106D+02 -.345286251268312D+02 0.440696868951135D+02 -.496070638344983D+02
 0.204435016016820D+03 -.508634701861933D+02 0.205078271856519D+02 0.174558760463458D+03
 0.000000000000000D+00 -.000000000000000D+00 0.000000000000000D+00 -.000000000000000D+00
 0.279186926082692D+03 0.000000000000000D+00 0.000000000000000D+00 0.279186926082692D+03
 0.288171609151057D+03 0.000000000000000D+00 0.000000000000000D+00 -.288171609151057D+03
 0.195787566079473D+03 0.136718668612776D+03 -.194499979313116D+02 -.104628977441940D+03
 0.647445443999474D+02 -.365962907861752D+02 -.493918476582525D+02 -.203227191870197D+02
 0.722248999242194D+02 -.303204429530495D+02 0.428514425184777D+02 -.496070638344983D+02
 0.201543994261987D+03 -.392435381875970D+02 0.171439241440067D+02 0.174558760463458D+03
 0.330575305681227D+02 -.305583966859542D+02 0.884647892707965D+01 -.898468306836494D+01
0.198328959122D-05 0.000000000000D+00 0.000000000000D+00 0.279435742063D-09 0.196600312471D-11  7 2 -2 23 -11 11 23 21 2 0.62451750D-01 0.30491230D-01 0.42437678D+05 0.42437678D+05 0.42437678D+05 0.11536129D+01  1  2  1  1  7  1        2 0.240878368839D-03 0.100000000000D+01
  </mgrwgt>
  </event>
  <event>
  8     66 0.29152272E-05 0.18478830E+03 0.75467711E-02 0.96078359E-01
        2 -1    0    0  501    0 0.00000000E+00 0.00000000E+00 0.33498967E+03 0.33498982E+03 0.32000000E+00 0.0000E+00 0.9000E+01
       -2 -1    0    0    0  501 0.00000000E+00 0.00000000E+00 -.65147396E+03 0.65147404E+03 0.32000000E+00 0.0000E+00 0.9000E+01
       25  2    1    2    0    0 0.11508766E+03 0.25843267E+01 -.59202959E+03 0.67422628E+03 0.30138048E+03 0.0000E+00 0.0000E+00
       23  2    3    3    0    0 0.25966632E+02 -.27504142E+01 -.32860726E+02 0.10067934E+03 0.91513236E+02 0.0000E+00 0.0000E+00
       23  1    1    2    0    0 -.11508766E+03 -.25843267E+01 0.27554530E+03 0.31223759E+03 0.91188000E+02 0.0000E+00 0.9000E+01
      -11  1    4    4    0    0 0.58456462E+02 0.11578755E+02 -.18797603E+02 0.62486602E+02 0.51099893E-03 0.0000E+00 0.9000E+01
       11  1    4    4    0    0 -.32489830E+02 -.14329169E+02 -.14063123E+02 0.38192742E+02 0.51099893E-03 0.0000E+00 0.9000E+01
       23  1    3    3    0    0 0.89121030E+02 0.53347409E+01 -.55916886E+03 0.57354693E+03 0.91188000E+02 0.0000E+00 0.9000E+01
#aMCatNLO 1  0  0  2  1 0.36485662D+03 0.00000000D+00  -5  7  0 0.00000000D+00 0.00000000D+00 0.00000000D+00 0.00000000D+00 0.00000000D+00
  <mgrwgt>
 0.5848126787D-03    3    2    0
 0.467158605180255D+03 0.000000000000000D+00 0.000000000000000D+00 0.467158605180255D+03
 0.467158605180255D+03 0.000000000000000D+00 0.000000000000000D+00 -.467158605180255D+03
 0.423000722253114D+03 -.115087662273256D+03 -.258432667647422D+01 0.396689438894915D+03
 0.596067675058214D+02 0.584564621769931D+02 0.115787550886919D+02 0.131954266278423D+01
 0.355607307075579D+02 -.324898298959039D+02 -.143291693025530D+02 -.191087123832560D+01
 0.416148989894017D+03 0.891210299921663D+02 0.533474089033526D+01 -.396098110319374D+03
 0.000000000000000D+00 -.000000000000000D+00 0.000000000000000D+00 0.000000000000000D+00
 0.837205443336183D+03 0.000000000000000D+00 0.000000000000000D+00 0.837205443336183D+03
 0.600654164642480D+03 0.000000000000000D+00 0.000000000000000D+00 -.600654164642480D+03
 0.429720651181808D+03 -.249550318164402D+02 -.135496576209125D+03 0.396689438894915D+03
 0.730602971818029D+02 0.724793680027407D+02 -.909983765666934D+01 0.131954266278423D+01
 0.356862559797013D+02 -.249590249667666D+02 -.254343175585198D+02 -.191087123832560D+01
 0.464562708443408D+03 0.182212237176853D+03 -.131940313614537D+03 -.396098110319374D+03
 0.434829695191942D+03 -.204777548396387D+03 0.301971045038852D+03 0.236551278693703D+03
0.523904029519D-04 0.000000000000D+00 0.000000000000D+00 0.223026333361D-06 0.000000000000D+00  7 2 -2 23 -11 11 23 21 0 0.51536890D-01 0.10022678D+00 0.34146715D+05 0.34146715D+05 0.34146715D+05 0.11621547D+01  1  2  2  2  7  2       -2 0.539407123195D-03 0.100000000000D+01
0.133454211821D-06 0.000000000000D+00 -.201192942045D-06 0.223026333361D-06 0.000000000000D+00  7 2 -2 23 -11 11 23 21 2 0.51536890D-01 0.10022678D+00 0.34146715D+05 0.34146715D+05 0.34146715D+05 0.11621547D+01  1  2  3  2  7  2       -2 0.185577408948D-05 0.100000000000D+01
0.313179377825D-05 0.000000000000D+00 0.000000000000D+00 0.223026333361D-06 0.000000000000D+00  7 2 -2 23 -11 11 23 21 2 0.51536890D-01 0.10022678D+00 0.34146715D+05 0.34146715D+05 0.34146715D+05 0.11621547D+01  1  2 15  2  7  2       -2 0.435497813665D-04 0.100000000000D+01
  </mgrwgt>
  </event>
  <event>
  8     66 0.29152272E-05 0.21648673E+03 0.75467711E-02 0.96013024E-01
        2 -1    0    0  501    0 0.00000000E+00 0.00000000E+00 0.48036319E+03 0.48036330E+03 0.32000000E+00 0.0000E+00 0.9000E+01
       -2 -1    0    0    0  501 0.00000000E+00 0.00000000E+00 -.37447441E+03 0.37447455E+03 0.32000000E+00 0.0000E+00 0.9000E+01
       25  2    1    2    0    0 -.35147706E+03 0.64531035E+02 -.13425912E+02 0.46721480E+03 0.30068095E+03 0.0000E+00 0.0000E+00
       23  2    3    3    0    0 -.21158791E+03 0.82482271E+02 0.10098734E+03 0.26399850E+03 0.89016828E+02 0.0000E+00 0.0000E+00
       23  1    1    2    0    0 0.35147706E+03 -.64531035E+02 0.11931469E+03 0.38762305E+03 0.91188000E+02 0.0000E+00 0.9000E+01
      -13  1    4    4    0    0 -.18368037E+03 0.86733841E+02 0.55689500E+02 0.21062423E+03 0.10565837E+00 0.0000E+00 0.9000E+01
       13  1    4    4    0    0 -.27907544E+02 -.42515699E+01 0.45297837E+02 0.53374264E+02 0.10565837E+00 0.0000E+00 0.9000E+01
       23  1    3    3    0    0 -.13988915E+03 -.17951236E+02 -.11441325E+03 0.20321630E+03 0.91188000E+02 0.0000E+00 0.9000E+01
#aMCatNLO 1  0  0  2  1 0.10506870D+03 0.00000000D+00  -5  7  0 0.00000000D+00 0.00000000D+00 0.00000000D+00 0.00000000D+00 0.00000000D+00
  <mgrwgt>
 0.4156611271D-03    9    2    0
 0.424127136610647D+03 0.000000000000000D+00 0.000000000000000D+00 0.424127136610647D+03
 0.424127136610647D+03 0.000000000000000D+00 0.000000000000000D+00 -.424127136610647D+03
 0.375737294607824D+03 0.351477064225843D+03 -.645310351081826D+02 0.718531978846848D+02
 0.205307379226940D+03 -.183680586583943D+03 0.867339694833470D+02 0.298291906506824D+02
 0.481337041141425D+02 -.279073243428263D+02 -.425169810051755D+01 0.389866359543135D+02
 0.219075895272388D+03 -.139889153299074D+03 -.179512362746468D+02 -.140669024489681D+03
 0.000000000000000D+00 0.000000000000000D+00 0.000000000000000D+00 -.000000000000000D+00
 0.450866892412445D+03 0.000000000000000D+00 0.000000000000000D+00 0.450866892412445D+03
 0.544816253204732D+03 0.000000000000000D+00 0.000000000000000D+00 -.544816253204732D+03
 0.340589119856727D+03 0.310053566393210D+03 -.799349807116740D+02 0.718531978846848D+02
 0.224456638030712D+03 -.208532844546151D+03 0.774922866269033D+02 0.298291906506824D+02
 0.519250641605924D+02 -.336934912174105D+02 -.640337056789191D+01 0.389866359543135D+02
 0.237765829668603D+03 -.166307252395831D+03 -.277752005153853D+02 -.140669024489681D+03
 0.140946493900543D+03 0.984800217661826D+02 0.366212651680479D+02 -.939493607922876D+02
0.135867482699D-04 0.000000000000D+00 0.000000000000D+00 0.741516735774D-07 0.000000000000D+00  7 2 -2 23 -13 13 23 21 0 0.73902048D-01 0.57611467D-01 0.14749787D+06 0.14749787D+06 0.14749787D+06 0.11081289D+01  1  2  2  2  7  2       -2 0.308643622323D-03 0.100000000000D+01
-.745779216024D-06 0.000000000000D+00 -.521766908294D-07 0.741516735774D-07 0.000000000000D+00  7 2 -2 23 -13 13 23 21 2 0.73902048D-01 0.57611467D-01 0.14749787D+06 0.14749787D+06 0.14749787D+06 0.11081289D+01  1  2  3  2  7  2       -2 -.208033172552D-04 0.100000000000D+01
0.852669989206D-06 0.000000000000D+00 0.000000000000D+00 0.741516735774D-07 0.000000000000D+00  7 2 -2 23 -13 13 23 21 2 0.73902048D-01 0.57611467D-01 0.14749787D+06 0.14749787D+06 0.14749787D+06 0.11081289D+01  1  2 15  2  7  2       -2 0.237850075710D-04 0.100000000000D+01
0.177480048960D-04 0.000000000000D+00 0.000000000000D+00 0.741516735774D-07 0.000000000000D+00  7 2 -2 23 -13 13 23 21 2 0.73902048D-01 0.75439933D-01 0.19644569D+06 0.19644569D+06 0.19644569D+06 0.10984240D+01  1  2 12  2  7  2       -2 0.273122137132D-03 0.100000000000D+01
-.186976559336D-04 0.000000000000D+00 0.000000000000D+00 0.741516735774D-07 0.000000000000D+00  7 2 -2 23 -13 13 23 21 2 0.73902048D-01 0.57611467D-01 0.14749787D+06 0.14749787D+06 0.14749787D+06 0.11081289D+01  1  2  4  2  7  2       -2 -.521566249041D-03 0.100000000000D+01
-.278541732411D-04 0.000000000000D+00 -.684809186468D-05 0.741516735774D-07 0.000000000000D+00  7 2 -2 23 -13 13 23 21 2 0.73902048D-01 0.77394164D-01 0.14749787D+06 0.14749787D+06 0.14749787D+06 0.11081289D+01  1  2  5  2  7  2       -2 -.415110018542D-03 0.100000000000D+01
0.288954590989D-04 0.000000000000D+00 0.656019266198D-05 0.741516735774D-07 0.000000000000D+00  7 2 -2 23 -13 13 23 21 2 0.73902048D-01 0.57611467D-01 0.14749787D+06 0.14749787D+06 0.14749787D+06 0.11081289D+01  1  2  6  2  7  2       -2 0.806031315908D-03 0.100000000000D+01
0.634879821180D-06 0.000000000000D+00 0.000000000000D+00 0.741516735774D-07 0.000000000000D+00  7 2 21 23 -13 13 23 2 2 0.73902048D-01 0.75439933D-01 0.19644569D+06 0.19644569D+06 0.19644569D+06 0.10984240D+01  1  2 12  4  7  2       -2 0.958149568434D-04 0.100000000000D+01
-.914468521349D-06 0.000000000000D+00 -.261639301806D-06 0.741516735774D-07 0.000000000000D+00  7 2 21 23 -13 13 23 2 2 0.73902048D-01 0.77394164D-01 0.14749787D+06 0.14749787D+06 0.14749787D+06 0.11081289D+01  1  2  5  4  7  2       -2 -.134256327873D-03 0.100000000000D+01
  </mgrwgt>
  </event>
  <event>
  8     66 0.29152272E-05 0.20424035E+03 0.75467711E-02 0.95295960E-01
        2 -1    0    0  501    0 0.00000000E+00 0.00000000E+00 0.49032506E+03 0.49032517E+03 0.32000000E+00 0.0000E+00 0.9000E+01
       -2 -1    0    0    0  501 0.00000000E+00 0.00000000E+00 -.27610723E+03 0.27610741E+03 0.32000000E+00 0.0000E+00 0.9000E+01
       25  2    1    2    0    0 -.17300124E+03 0.23464892E+03 0.53842569E+02 0.42143255E+03 0.29952768E+03 0.0000E+00 0.0000E+00
       23  2    3    3    0    0 0.26057597E+02 0.11480748E+03 0.85185074E+02 0.16986945E+03 0.87973731E+02 0.0000E+00 0.0000E+00
       23  1    1    2    0    0 0.17300124E+03 -.23464892E+03 0.16037527E+03 0.34500003E+03 0.91188000E+02 0.0000E+00 0.9000E+01
      -13  1    4    4    0    0 0.15994160E+01 0.91760814E+02 0.16282079E+02 0.93207953E+02 0.10565837E+00 0.0000E+00 0.9000E+01
       13  1    4    4    0    0 0.24458181E+02 0.23046669E+02 0.68902995E+02 0.76661499E+02 0.10565837E+00 0.0000E+00 0.9000E+01
       23  1    3    3    0    0 -.19905883E+03 0.11984143E+03 -.31342505E+02 0.25156310E+03 0.91188000E+02 0.0000E+00 0.9000E+01
#aMCatNLO 1  0  0  1  2 0.22217261D+03 0.00000000D+00  -5  7  0 0.00000000D+00 0.00000000D+00 0.00000000D+00 0.00000000D+00 0.00000000D+00
  <mgrwgt>
 0.3744148319D-03    9    2    0
 0.367943479627126D+03 0.000000000000000D+00 0.000000000000000D+00 0.367943479627126D+03
 0.367943479627126D+03 0.000000000000000D+00 0.000000000000000D+00 -.367943479627126D+03
 0.312634999463891D+03 0.173001236116518D+03 -.234648917204070D+03 0.666021734097426D+02
 0.923371903540015D+02 0.159938317958542D+01 0.917609132529937D+02 -.101751410256827D+02
 0.597857931012416D+02 0.244582139590572D+02 0.230465700809866D+02 0.494468647558127D+02
 0.271128976335119D+03 -.199058833255161D+03 0.119841433870090D+03 -.105873897139873D+03
 0.000000000000000D+00 -.000000000000000D+00 -.000000000000000D+00 0.000000000000000D+00
 0.525274409338234D+03 0.000000000000000D+00 0.000000000000000D+00 0.525274409338234D+03
 0.471910904825254D+03 0.000000000000000D+00 0.000000000000000D+00 -.471910904825254D+03
 0.273192830804578D+03 0.197228607363952D+03 -.151605073771934D+03 0.666021734097426D+02
 0.123183929804444D+03 0.105124288219348D+02 0.122312043182336D+03 -.101751410256827D+02
 0.711987676019651D+02 0.298751836144324D+02 0.416142460926900D+02 0.494468647558127D+02
 0.301118355561228D+03 -.175393094212254D+03 0.200960177943207D+03 -.105873897139873D+03
 0.228491430391272D+03 -.622231255880652D+02 -.213281393446298D+03 0.533635045129804D+02
0.861284353049D-05 0.000000000000D+00 0.000000000000D+00 0.386184453859D-07 0.000000000000D+00  7 2 -2 23 -13 13 23 21 0 0.75434647D-01 0.42478057D-01 0.11575031D+06 0.11575031D+06 0.11575031D+06 0.11165463D+01  1  2  2  1  7  1        2 0.348861988292D-03 0.100000000000D+01
-.474921403278D-06 0.000000000000D+00 -.330755869709D-07 0.386184453859D-07 0.000000000000D+00  7 2 -2 23 -13 13 23 21 2 0.75434647D-01 0.42478057D-01 0.11575031D+06 0.11575031D+06 0.11575031D+06 0.11165463D+01  1  2  3  1  7  1        2 -.239818291995D-04 0.100000000000D+01
0.552636540925D-06 0.000000000000D+00 0.000000000000D+00 0.386184453859D-07 0.000000000000D+00  7 2 -2 23 -13 13 23 21 2 0.75434647D-01 0.42478057D-01 0.11575031D+06 0.11575031D+06 0.11575031D+06 0.11165463D+01  1  2 15  1  7  1        2 0.279061651936D-04 0.100000000000D+01
0.107141363109D-05 0.000000000000D+00 0.000000000000D+00 0.386184453859D-07 0.000000000000D+00  7 2 -2 23 -13 13 23 21 2 0.11461970D+00 0.42478057D-01 0.22231459D+06 0.22231459D+06 0.22231459D+06 0.10943146D+01  1  2 12  1  7  1        2 0.315378334242D-04 0.100000000000D+01
-.344843722808D-05 0.000000000000D+00 0.000000000000D+00 0.386184453859D-07 0.000000000000D+00  7 2 -2 23 -13 13 23 21 2 0.75434647D-01 0.42478057D-01 0.11575031D+06 0.11575031D+06 0.11575031D+06 0.11165463D+01  1  2  4  1  7  1        2 -.174133724103D-03 0.100000000000D+01
-.427419303332D-05 0.000000000000D+00 -.303292946457D-05 0.386184453859D-07 0.000000000000D+00  7 2 -2 23 -13 13 23 21 2 0.13075160D+00 0.42478057D-01 0.11575031D+06 0.11575031D+06 0.11575031D+06 0.11165463D+01  1  2  5  1  7  1        2 -.112388867177D-03 0.100000000000D+01
0.549699738585D-05 0.000000000000D+00 0.262563950722D-05 0.386184453859D-07 0.000000000000D+00  7 2 -2 23 -13 13 23 21 2 0.75434647D-01 0.42478057D-01 0.11575031D+06 0.11575031D+06 0.11575031D+06 0.11165463D+01  1  2  6  1  7  1        2 0.277578671981D-03 0.100000000000D+01
0.527148760663D-07 0.000000000000D+00 0.000000000000D+00 0.386184453859D-07 0.000000000000D+00  7 21 -2 23 -13 13 23 -2 2 0.11461970D+00 0.42478057D-01 0.22231459D+06 0.22231459D+06 0.22231459D+06 0.10943146D+01  1  2 12  3  7  1        2 0.171152667873D-05 0.100000000000D+01
-.108983971818D-06 0.000000000000D+00 -.184780103712D-06 0.386184453859D-07 0.000000000000D+00  7 21 -2 23 -13 13 23 -2 2 0.13075160D+00 0.42478057D-01 0.11575031D+06 0.11575031D+06 0.11575031D+06 0.11165463D+01  1  2  5  3  7  1        2 -.267693315037D-05 0.100000000000D+01
  </mgrwgt>
  </event>
  <event>
  8     66 0.29152272E-05 0.65705759E+03 0.75467711E-02 0.86003479E-01
        2 -1    0    0  501    0 0.00000000E+00 0.00000000E+00 0.20177334E+04 0.20177334E+04 0.32000000E+00 0.0000E+00 0.9000E+01
       -2 -1    0    0    0  501 0.00000000E+00 0.00000000E+00 -.23771704E+03 0.23771725E+03 0.32000000E+00 0.0000E+00 0.9000E+01
       25  2    1    2    0    0 0.11119807E+02 -.63160683E+03 0.63818958E+03 0.94734729E+03 0.30187763E+03 0.0000E+00 0.0000E+00
       23  2    3    3    0    0 -.70307048E+02 -.23667096E+03 0.37143189E+03 0.45533144E+03 0.91699772E+02 0.0000E+00 0.0000E+00
       23  1    1    2    0    0 -.11119807E+02 0.63160683E+03 0.11418268E+04 0.13081034E+04 0.91188000E+02 0.0000E+00 0.9000E+01
      -13  1    4    4    0    0 -.53575378E+02 -.44797584E+02 0.11640692E+03 0.13574877E+03 0.10565837E+00 0.0000E+00 0.9000E+01
       13  1    4    4    0    0 -.16731670E+02 -.19187338E+03 0.25502497E+03 0.31958268E+03 0.10565837E+00 0.0000E+00 0.9000E+01
       23  1    3    3    0    0 0.81426855E+02 -.39493587E+03 0.26675769E+03 0.49201584E+03 0.91188000E+02 0.0000E+00 0.9000E+01
#aMCatNLO 1  0  0  2  2 0.78300504D+03 0.00000000D+00  -5  7  0 0.00000000D+00 0.00000000D+00 0.00000000D+00 0.00000000D+00 0.00000000D+00
  <mgrwgt>
 0.3402423838D-03    5    2    0
 0.692567601024671D+03 0.000000000000000D+00 0.000000000000000D+00 0.692567601024671D+03
 0.692567601024671D+03 0.000000000000000D+00 0.000000000000000D+00 -.692567601024671D+03
 0.662673461171602D+03 -.111198070833928D+02 0.631606831420265D+03 0.178241479995064D+03
 0.714502066677821D+02 -.535754268772481D+02 -.447973884810840D+02 0.150996573823468D+02
 0.192655974207420D+03 -.167316210336992D+02 -.191873571741394D+03 0.457271501351040D+01
 0.458355560002538D+03 0.814268549943401D+02 -.394935871197787D+03 -.197913852390921D+03
 0.000000000000000D+00 -.000000000000000D+00 0.000000000000000D+00 -.000000000000000D+00
 0.979550813119112D+03 0.000000000000000D+00 0.000000000000000D+00 0.979550813119112D+03
 0.162864281644712D+04 0.000000000000000D+00 0.000000000000000D+00 -.162864281644712D+04
 0.492343792467134D+03 0.192838808099040D+03 0.406362310674885D+03 0.178241479995064D+03
 0.805194454772084D+02 -.267398798725598D+02 -.744335963882839D+02 0.150996573823468D+02
 0.295359814626557D+03 0.694446020176605D+02 -.287043476888516D+03 0.457271501351040D+01
 0.722907493565381D+03 0.290020082336070D+03 -.625298690053438D+03 -.197913852390921D+03
 0.101706308342995D+04 -.525563612580211D+03 0.580413452655353D+03 -.649092003328005D+03
0.583598207731D-04 0.000000000000D+00 0.000000000000D+00 0.158825402318D-06 0.000000000000D+00  7 2 -2 23 -13 13 23 21 0 0.31042054D+00 0.36571871D-01 0.43172467D+06 0.43172467D+06 0.43172467D+06 0.10730462D+01  1  2  2  2  7  2       -2 0.336350266157D-03 0.100000000000D+01
-.323129135637D-05 0.000000000000D+00 -.224117078262D-06 0.158825402318D-06 0.000000000000D+00  7 2 -2 23 -13 13 23 21 2 0.31042054D+00 0.36571871D-01 0.43172467D+06 0.43172467D+06 0.43172467D+06 0.10730462D+01  1  2  3  2  7  2       -2 -.214432595822D-04 0.100000000000D+01
0.371632506529D-05 0.000000000000D+00 0.000000000000D+00 0.158825402318D-06 0.000000000000D+00  7 2 -2 23 -13 13 23 21 2 0.31042054D+00 0.36571871D-01 0.43172467D+06 0.43172467D+06 0.43172467D+06 0.10730462D+01  1  2 15  2  7  2       -2 0.246620048389D-04 0.100000000000D+01
-.223900562074D-05 0.000000000000D+00 -.191302938171D-04 0.158825402318D-06 0.000000000000D+00  7 2 -2 23 -13 13 23 21 2 0.31042054D+00 0.12222545D+00 0.43172467D+06 0.43172467D+06 0.43172467D+06 0.10730462D+01  1  2  5  2  7  2       -2 -.108272887456D-05 0.100000000000D+01
0.413902646869D-06 0.000000000000D+00 -.267913993055D-05 0.158825402318D-06 0.000000000000D+00  7 2 21 23 -13 13 23 2 2 0.31042054D+00 0.12222545D+00 0.43172467D+06 0.43172467D+06 0.43172467D+06 0.10730462D+01  1  2  5  4  7  2       -2 0.175610124986D-05 0.100000000000D+01
  </mgrwgt>
  </event>
  <event>
  8     66 0.29152272E-05 0.34440791E+03 0.75467711E-02 0.95938831E-01
        2 -1    0    0  501    0 0.00000000E+00 0.00000000E+00 0.86267689E+03 0.86267695E+03 0.32000000E+00 0.0000E+00 0.9000E+01
       -2 -1    0    0    0  501 0.00000000E+00 0.00000000E+00 -.14992946E+03 0.14992980E+03 0.32000000E+00 0.0000E+00 0.9000E+01
       25  2    1    2    0    0 0.18097610E+03 0.22470384E+03 0.42758016E+03 0.59681860E+03 0.30020574E+03 0.0000E+00 0.0000E+00
       23  2    3    3    0    0 -.48972388E+02 0.76957621E+02 0.10780249E+03 0.16637899E+03 0.87976249E+02 0.0000E+00 0.0000E+00
       23  1    1    2    0    0 -.18097610E+03 -.22470384E+03 0.28516727E+03 0.41578815E+03 0.91188000E+02 0.0000E+00 0.9000E+01
      -11  1    4    4    0    0 -.35132917E+02 0.76575541E+02 0.12087392E+03 0.14733852E+03 0.51099893E-03 0.0000E+00 0.9000E+01
       11  1    4    4    0    0 -.13839471E+02 0.38207945E+00 -.13071432E+02 0.19040464E+02 0.51099893E-03 0.0000E+00 0.9000E+01
       23  1    3    3    0    0 0.22994848E+03 0.14774622E+03 0.31977767E+03 0.43043961E+03 0.91188000E+02 0.0000E+00 0.9000E+01
#aMCatNLO 1  0  0  1  2 0.17630983D+03 0.00000000D+00  -5  7  0 0.00000000D+00 0.00000000D+00 0.00000000D+00 0.00000000D+00 0.00000000D+00
  <mgrwgt>
 0.4278056899D-03    7    2    0
 0.359639935451066D+03 0.000000000000000D+00 0.000000000000000D+00 0.359639935451066D+03
 0.359639935451066D+03 0.000000000000000D+00 0.000000000000000D+00 -.359639935451066D+03
 0.302771783496074D+03 -.180976095373452D+03 -.224703840181761D+03 -.105517130524957D+02
 0.876479497007745D+02 -.351329170249463D+02 0.765755412602537D+02 0.241666652388556D+02
 0.397580044927434D+02 -.138394710800134D+02 0.382079444722407D+00 -.372695851434974D+02
 0.289102133212539D+03 0.229948483478412D+03 0.147746219476785D+03 0.236546329571375D+02
 0.000000000000000D+00 0.000000000000000D+00 -.000000000000000D+00 0.000000000000000D+00
 0.459763159880989D+03 0.000000000000000D+00 0.000000000000000D+00 0.459763159880989D+03
 0.457139406368237D+03 0.000000000000000D+00 0.000000000000000D+00 -.457139406368237D+03
 0.315135226637452D+03 -.241279254705066D+03 -.180742751789563D+03 -.105517130524957D+02
 0.108258819588888D+03 -.542519704243622D+02 0.905133582135065D+02 0.241666652388556D+02
 0.437314033536989D+02 -.219874204984513D+02 0.632194608801651D+01 -.372695851434974D+02
 0.273447766477341D+03 0.175047769169228D+03 0.187768917811191D+03 0.236546329571375D+02
 0.176329350191847D+03 0.142470876458652D+03 -.103861470323151D+03 0.262375351275281D+01
0.625906132768D-05 0.000000000000D+00 0.000000000000D+00 0.539133099693D-07 0.000000000000D+00  7 2 -2 23 -11 11 23 21 0 0.13271955D+00 0.23066102D-01 0.11861681D+06 0.11861681D+06 0.11861681D+06 0.11156878D+01  1  2  2  1  7  1        2 0.383325971455D-03 0.100000000000D+01
-.346933812724D-06 0.000000000000D+00 -.240364435470D-07 0.539133099693D-07 0.000000000000D+00  7 2 -2 23 -11 11 23 21 2 0.13271955D+00 0.23066102D-01 0.11861681D+06 0.11861681D+06 0.11861681D+06 0.11156878D+01  1  2  3  1  7  1        2 -.264478903115D-04 0.100000000000D+01
0.403929523348D-06 0.000000000000D+00 0.000000000000D+00 0.539133099693D-07 0.000000000000D+00  7 2 -2 23 -11 11 23 21 2 0.13271955D+00 0.23066102D-01 0.11861681D+06 0.11861681D+06 0.11861681D+06 0.11156878D+01  1  2 15  1  7  1        2 0.307928582780D-04 0.100000000000D+01
-.226974058401D-05 0.000000000000D+00 0.000000000000D+00 0.539133099693D-07 0.000000000000D+00  7 2 -2 23 -11 11 23 21 2 0.13271955D+00 0.23066102D-01 0.11861681D+06 0.11861681D+06 0.11861681D+06 0.11156878D+01  1  2  4  1  7  1        2 -.173029689813D-03 0.100000000000D+01
-.459722284714D-05 0.000000000000D+00 -.242399825021D-05 0.539133099693D-07 0.000000000000D+00  7 2 -2 23 -11 11 23 21 2 0.20099440D+00 0.23066102D-01 0.11861681D+06 0.11861681D+06 0.11861681D+06 0.11156878D+01  1  2  5  1  7  1        2 -.190648885299D-03 0.100000000000D+01
0.533216585758D-05 0.000000000000D+00 0.222922614195D-05 0.539133099693D-07 0.000000000000D+00  7 2 -2 23 -11 11 23 21 2 0.13271955D+00 0.23066102D-01 0.11861681D+06 0.11861681D+06 0.11861681D+06 0.11156878D+01  1  2  6  1  7  1        2 0.406488305699D-03 0.100000000000D+01
-.137928723402D-06 0.000000000000D+00 -.118563020537D-06 0.539133099693D-07 0.000000000000D+00  7 21 -2 23 -11 11 23 -2 2 0.20099440D+00 0.23066102D-01 0.11861681D+06 0.11861681D+06 0.11861681D+06 0.11156878D+01  1  2  5  3  7  1        2 -.267498012891D-05 0.100000000000D+01
  </mgrwgt>
  </event>
  <event>
  9     66 0.29152272E-05 0.37370909E+03 0.75467711E-02 0.91703753E-01
        2 -1    0    0  502    0 0.00000000E+00 0.00000000E+00 0.37438094E+04 0.37438094E+04 0.32000000E+00 0.0000E+00 0.9000E+01
       -2 -1    0    0    0  501 0.00000000E+00 0.00000000E+00 -.19442292E+03 0.19442318E+03 0.32000000E+00 0.0000E+00 0.9000E+01
       25  2    1    2    0    0 -.19370685E+03 -.58362470E+03 0.59828343E+03 0.90882121E+03 0.29978792E+03 0.0000E+00 0.0000E+00
       23  2    3    3    0    0 -.19360808E+03 -.27545027E+03 0.40315398E+03 0.53283950E+03 0.89598376E+02 0.0000E+00 0.0000E+00
       23  1    1    2    0    0 0.84440087E+01 0.18108632E+03 0.51883708E+03 0.55710925E+03 0.91188000E+02 0.0000E+00 0.9000E+01
      -13  1    4    4    0    0 -.13743238E+02 -.30225988E+02 0.79028684E+01 0.34131414E+02 0.10565837E+00 0.0000E+00 0.9000E+01
       13  1    4    4    0    0 -.17986484E+03 -.24522428E+03 0.39525111E+03 0.49870809E+03 0.10565837E+00 0.0000E+00 0.9000E+01
       23  1    3    3    0    0 -.98772147E-01 -.30817443E+03 0.19512945E+03 0.37598171E+03 0.91188000E+02 0.0000E+00 0.9000E+01
       21  1    1    2  502  501 0.18526284E+03 0.40253838E+03 0.24322660E+04 0.24723022E+04 0.75000000E+00 0.0000E+00 0.9000E+01
#aMCatNLO 2  0  0  1  1 0.44312466D+03 0.00000000D+00  -5  7  0 0.00000000D+00 0.00000000D+00 0.00000000D+00 0.00000000D+00 0.00000000D+00
  <mgrwgt>
 0.1817509138D-04    1    2    0
 0.419712532338850D+03 0.000000000000000D+00 0.000000000000000D+00 0.419712532338850D+03
 0.419712532338850D+03 0.000000000000000D+00 0.000000000000000D+00 -.419712532338850D+03
 0.371133123003765D+03 0.727554951109384D+02 0.320822068231960D+03 0.145617245246081D+03
 0.315601841180107D+02 -.597770509067511D+01 -.133532711410910D+02 -.279643060569033D+02
 0.187621261231723D+03 -.128838136117806D+03 -.134353453118375D+03 0.234866341360535D+02
 0.249110496324201D+03 0.620603460975423D+02 -.173115343972494D+03 -.141139573325232D+03
 0.000000000000000D+00 0.000000000000000D+00 0.000000000000000D+00 0.000000000000000D+00
 0.137575655723153D+04 0.000000000000000D+00 0.000000000000000D+00 0.137575655723153D+04
 0.529077999634255D+03 0.000000000000000D+00 0.000000000000000D+00 -.529077999634255D+03
 0.249766271328527D+03 0.844400870753049D+01 0.181086320723696D+03 0.145617245246081D+03
 0.434104241682272D+02 -.137430070050707D+02 -.302256889363968D+02 -.279643060569033D+02
 0.305021572383849D+03 -.179865070891796D+03 -.245224578518475D+03 0.234866341360535D+02
 0.351008721070256D+03 -.987721786021680D-01 -.308174434385795D+03 -.141139573325232D+03
 0.955627567914923D+03 0.185262841367939D+03 0.402538381116971D+03 0.846678557597272D+03
0.234685231011D-04 0.000000000000D+00 0.000000000000D+00 0.401022747405D-06 0.307664963853D-10  7 2 -2 23 -13 13 23 21 2 0.57597056D+00 0.29911232D-01 0.42559456D+06 0.42559456D+06 0.42559456D+06 0.10734912D+01  1  2  1  1  7  1        2 0.181750913752D-04 0.100000000000D+01
  </mgrwgt>
  </event>
  <event>
  8     66 0.29152272E-05 0.84643045E+02 0.75467711E-02 0.10657342E+00
        2 -1    0    0  501    0 0.00000000E+00 0.00000000E+00 0.13225540E+04 0.13225540E+04 0.32000000E+00 0.0000E+00 0.9000E+01
       -2 -1    0    0    0  501 0.00000000E+00 0.00000000E+00 -.32146893E+02 0.32148485E+02 0.32000000E+00 0.0000E+00 0.9000E+01
       25  2    1    2    0    0 -.15723573E+02 -.10324057E+01 0.77831178E+03 0.83431308E+03 0.30010130E+03 0.0000E+00 0.0000E+00
       23  2    3    3    0    0 -.12119797E+03 -.30468978E+02 0.33881883E+03 0.37229505E+03 0.90488091E+02 0.0000E+00 0.0000E+00
       23  1    1    2    0    0 0.15723573E+02 0.10324057E+01 0.51209532E+03 0.52038943E+03 0.91188000E+02 0.0000E+00 0.9000E+01
      -11  1    4    4    0    0 -.50777855E+02 0.29309971E+02 0.95848822E+02 0.11235863E+03 0.51099893E-03 0.0000E+00 0.9000E+01
       11  1    4    4    0    0 -.70420116E+02 -.59778949E+02 0.24297001E+03 0.25993642E+03 0.51099893E-03 0.0000E+00 0.9000E+01
       23  1    3    3    0    0 0.10547440E+03 0.29436573E+02 0.43949294E+03 0.46201803E+03 0.91188000E+02 0.0000E+00 0.9000E+01
#aMCatNLO 1  0  0  1  2 0.72758107D+01 0.00000000D+00  -5  7  0 0.00000000D+00 0.00000000D+00 0.00000000D+00 0.00000000D+00 0.00000000D+00
  <mgrwgt>
 0.9488801896D-03   11    2    0
 0.206196764923766D+03 0.000000000000000D+00 0.000000000000000D+00 0.206196764923766D+03
 0.206196764923766D+03 0.000000000000000D+00 0.000000000000000D+00 -.206196764923766D+03
 0.107085678869471D+03 0.157235729006513D+02 0.103240566923112D+01 0.538868691677998D+02
 0.691778984384029D+02 -.507778550120790D+02 0.293099710121768D+02 -.367167083490829D+02
 0.936151761467255D+02 -.704201156858126D+02 -.597789491855197D+02 -.152080816033534D+02
 0.142514776392933D+03 0.105474397797240D+03 0.294365725041118D+02 -.196207921536345D+01
 0.000000000000000D+00 -.000000000000000D+00 0.000000000000000D+00 0.000000000000000D+00
 0.211889246822314D+03 0.000000000000000D+00 0.000000000000000D+00 0.211889246822314D+03
 0.208566917021330D+03 0.000000000000000D+00 0.000000000000000D+00 -.208566917021330D+03
 0.107348831369253D+03 0.174543123821826D+02 0.269375020794829D+00 0.538868691677998D+02
 0.681603201275780D+02 -.496693735604195D+02 0.288212750935450D+02 -.367167083490829D+02
 0.929183702112325D+02 -.689145698995847D+02 -.604426987502432D+02 -.152080816033534D+02
 0.144030186282508D+03 0.107787153703854D+03 0.284169484313216D+02 -.196207921536345D+01
 0.799845585307375D+01 -.665752262603188D+01 0.293510020458183D+01 0.332232980098410D+01
0.900752688640D-06 0.000000000000D+00 0.000000000000D+00 0.830986088108D-07 0.000000000000D+00  7 2 -2 23 -11 11 23 21 0 0.20346997D+00 0.49458013D-02 0.37257150D+05 0.37257150D+05 0.37257150D+05 0.11587056D+01  1  2  2  1  7  1        2 0.324804837495D-03 0.100000000000D+01
-.497765299820D-07 0.000000000000D+00 -.345912749801D-08 0.830986088108D-07 0.000000000000D+00  7 2 -2 23 -11 11 23 21 2 0.20346997D+00 0.49458013D-02 0.37257150D+05 0.37257150D+05 0.37257150D+05 0.11587056D+01  1  2  3  1  7  1        2 -.240983751342D-04 0.100000000000D+01
0.553661023876D-07 0.000000000000D+00 0.000000000000D+00 0.830986088108D-07 0.000000000000D+00  7 2 -2 23 -11 11 23 21 2 0.20346997D+00 0.49458013D-02 0.37257150D+05 0.37257150D+05 0.37257150D+05 0.11587056D+01  1  2 15  1  7  1        2 0.268044619730D-04 0.100000000000D+01
0.158419834057D-05 0.000000000000D+00 0.000000000000D+00 0.830986088108D-07 0.000000000000D+00  7 2 -2 23 -11 11 23 21 2 0.21023341D+00 0.49458013D-02 0.38656973D+05 0.38656973D+05 0.38656973D+05 0.11572558D+01  1  2 12  1  7  1        2 0.724610370774D-03 0.100000000000D+01
-.166190788738D-05 0.000000000000D+00 0.000000000000D+00 0.830986088108D-07 0.000000000000D+00  7 2 -2 23 -11 11 23 21 2 0.20346997D+00 0.49458013D-02 0.37257150D+05 0.37257150D+05 0.37257150D+05 0.11587056D+01  1  2  4  1  7  1        2 -.804581591426D-03 0.100000000000D+01
-.232174895647D-04 0.000000000000D+00 -.303342391895D-05 0.830986088108D-07 0.000000000000D+00  7 2 -2 23 -11 11 23 21 2 0.21041639D+00 0.49458013D-02 0.37257150D+05 0.37257150D+05 0.37257150D+05 0.11587056D+01  1  2  5  1  7  1        2 -.106273133863D-01 0.100000000000D+01
0.233078953408D-04 0.000000000000D+00 0.303171547569D-05 0.830986088108D-07 0.000000000000D+00  7 2 -2 23 -11 11 23 21 2 0.20346997D+00 0.49458013D-02 0.37257150D+05 0.37257150D+05 0.37257150D+05 0.11587056D+01  1  2  6  1  7  1        2 0.112840811867D-01 0.100000000000D+01
0.145805279718D-06 0.000000000000D+00 0.000000000000D+00 0.830986088108D-07 0.112163416999D-07  7 2 -2 23 -11 11 23 21 2 0.20908717D+00 0.50026513D-02 0.38656973D+05 0.38656973D+05 0.38656973D+05 0.11572558D+01  1  2 11  1  7  1        2 0.661851837694D-04 0.100000000000D+01
0.340474800131D-07 0.000000000000D+00 0.000000000000D+00 0.830986088108D-07 0.000000000000D+00  7 21 -2 23 -11 11 23 -2 2 0.21023341D+00 0.49458013D-02 0.38656973D+05 0.38656973D+05 0.38656973D+05 0.11572558D+01  1  2 12  3  7  1        2 0.714273871514D-05 0.100000000000D+01
-.137824065502D-06 0.000000000000D+00 -.181676096886D-07 0.830986088108D-07 0.000000000000D+00  7 21 -2 23 -11 11 23 -2 2 0.21041639D+00 0.49458013D-02 0.37257150D+05 0.37257150D+05 0.37257150D+05 0.11587056D+01  1  2  5  3  7  1        2 -.289478700378D-04 0.100000000000D+01
0.916553557135D-09 0.000000000000D+00 0.000000000000D+00 0.830986088108D-07 0.554375628786D-10  7 21 -2 23 -11 11 23 -2 2 0.20908717D+00 0.50026513D-02 0.38656973D+05 0.38656973D+05 0.38656973D+05 0.11572558D+01  1  2 11  3  7  1        2 0.192633111582D-06 0.100000000000D+01
  </mgrwgt>
  </event>
  <event>
  8     66 0.29152272E-05 0.33191251E+03 0.75467711E-02 0.89254155E-01
        2 -1    0    0  501    0 0.00000000E+00 0.00000000E+00 0.62112592E+03 0.62112600E+03 0.32000000E+00 0.0000E+00 0.9000E+01
       -2 -1    0    0    0  501 0.00000000E+00 0.00000000E+00 -.59616772E+03 0.59616780E+03 0.32000000E+00 0.0000E+00 0.9000E+01
       25  2    1    2    0    0 -.17109654E+03 0.52433124E+03 0.14653461E+03 0.64519823E+03 0.30101675E+03 0.0000E+00 0.0000E+00
       23  2    3    3    0    0 0.34686365E+02 0.23429829E+03 0.10902317E+03 0.27616154E+03 0.90996213E+02 0.0000E+00 0.0000E+00
       23  1    1    2    0    0 0.17109654E+03 -.52433124E+03 -.12157640E+03 0.57209558E+03 0.91188000E+02 0.0000E+00 0.9000E+01
      -11  1    4    4    0    0 0.30996013E+02 0.19929254E+02 0.30495985E+02 0.47832344E+02 0.51099893E-03 0.0000E+00 0.9000E+01
       11  1    4    4    0    0 0.36903511E+01 0.21436903E+03 0.78527187E+02 0.22832919E+03 0.51099893E-03 0.0000E+00 0.9000E+01
       23  1    3    3    0    0 -.20578290E+03 0.29003296E+03 0.37511433E+02 0.36903669E+03 0.91188000E+02 0.0000E+00 0.9000E+01
#aMCatNLO 1  0  0  2  1 0.41030081D+03 0.00000000D+00  -5  7  0 0.00000000D+00 0.00000000D+00 0.00000000D+00 0.00000000D+00 0.00000000D+00
  <mgrwgt>
 0.4393656927D-03    8    2    0
 0.608518959427370D+03 0.000000000000000D+00 0.000000000000000D+00 0.608518959427370D+03
 0.608518959427370D+03 0.000000000000000D+00 0.000000000000000D+00 -.608518959427370D+03
 0.574709072050750D+03 0.171096539606400D+03 -.524331243959365D+03 -.133334117525015D+03
 0.472170091930077D+02 0.309960134290183D+02 0.199292540660916D+02 0.295214827034460D+02
 0.226766814830706D+03 0.369035114806923D+01 0.214369031741927D+03 0.738612743384276D+02
 0.368345022780276D+03 -.205782904183487D+03 0.290032958151346D+03 0.299513604831418D+02
 0.000000000000000D+00 0.000000000000000D+00 -.000000000000000D+00 -.000000000000000D+00
 0.752556493110716D+03 0.000000000000000D+00 0.000000000000000D+00 0.752556493110716D+03
 0.102343563655426D+04 0.000000000000000D+00 0.000000000000000D+00 -.102343563655426D+04
 0.439059857921115D+03 0.558853153947059D+02 -.404421997572795D+03 -.133334117525015D+03
 0.474329620178827D+02 0.202393816834480D+02 0.311245140339853D+02 0.295214827034460D+02
 0.290558504393294D+03 -.551018268141774D+02 0.275558605944565D+03 0.738612743384276D+02
 0.507288215806907D+03 -.305295499603904D+03 0.393603425390794D+03 0.299513604831418D+02
 0.491652589525775D+03 0.284272629339928D+03 -.295864547796550D+03 -.270879143443543D+03
0.450062028501D-04 0.000000000000D+00 0.000000000000D+00 0.371079366415D-06 0.000000000000D+00  7 2 -2 23 -11 11 23 21 0 0.95557847D-01 0.91718123D-01 0.34657025D+06 0.34657025D+06 0.34657025D+06 0.10799455D+01  1  2  2  2  7  2       -2 0.269412997942D-03 0.100000000000D+01
-.249701234739D-05 0.000000000000D+00 -.172835669350D-06 0.371079366415D-06 0.000000000000D+00  7 2 -2 23 -11 11 23 21 2 0.95557847D-01 0.91718123D-01 0.34657025D+06 0.34657025D+06 0.34657025D+06 0.10799455D+01  1  2  3  2  7  2       -2 -.174329359005D-04 0.100000000000D+01
0.281349352669D-05 0.000000000000D+00 0.000000000000D+00 0.371079366415D-06 0.000000000000D+00  7 2 -2 23 -11 11 23 21 2 0.95557847D-01 0.91718123D-01 0.34657025D+06 0.34657025D+06 0.34657025D+06 0.10799455D+01  1  2 15  2  7  2       -2 0.196424548555D-04 0.100000000000D+01
0.485971987621D-05 0.000000000000D+00 0.000000000000D+00 0.371079366415D-06 0.000000000000D+00  7 2 -2 23 -11 11 23 21 2 0.95557847D-01 0.15903237D+00 0.68324191D+06 0.68324191D+06 0.68324191D+06 0.10590566D+01  1  2 12  2  7  2       -2 0.766947425200D-05 0.100000000000D+01
-.222167822849D-04 0.000000000000D+00 -.136048541933D-04 0.371079366415D-06 0.000000000000D+00  7 2 -2 23 -11 11 23 21 2 0.95557847D-01 0.17687506D+00 0.34657025D+06 0.34657025D+06 0.34657025D+06 0.10799455D+01  1  2  5  2  7  2       -2 -.276499697381D-04 0.100000000000D+01
0.274920671084D-04 0.000000000000D+00 0.111195686995D-04 0.371079366415D-06 0.000000000000D+00  7 2 -2 23 -11 11 23 21 2 0.95557847D-01 0.91718123D-01 0.34657025D+06 0.34657025D+06 0.34657025D+06 0.10799455D+01  1  2  6  2  7  2       -2 0.191936353127D-03 0.100000000000D+01
0.296236073463D-06 0.000000000000D+00 0.000000000000D+00 0.371079366415D-06 0.000000000000D+00  7 2 21 23 -11 11 23 2 2 0.95557847D-01 0.15903237D+00 0.68324191D+06 0.68324191D+06 0.68324191D+06 0.10590566D+01  1  2 12  4  7  2       -2 0.381886834313D-05 0.100000000000D+01
-.793235578249D-06 0.000000000000D+00 -.969217639534D-06 0.371079366415D-06 0.000000000000D+00  7 2 21 23 -11 11 23 2 2 0.95557847D-01 0.17687506D+00 0.34657025D+06 0.34657025D+06 0.34657025D+06 0.10799455D+01  1  2  5  4  7  2       -2 -.803155019909D-05 0.100000000000D+01
  </mgrwgt>
  </event>
  <event>
  8     66 0.29152272E-05 0.71143009E+02 0.75467711E-02 0.10849985E+00
        2 -1    0    0  501    0 0.00000000E+00 0.00000000E+00 0.26201012E+04 0.26201012E+04 0.32000000E+00 0.0000E+00 0.9000E+01
       -2 -1    0    0    0  501 0.00000000E+00 0.00000000E+00 -.44055079E+02 0.44056241E+02 0.32000000E+00 0.0000E+00 0.9000E+01
       25  2    1    2    0    0 0.89228808E+01 0.35139419E+02 0.48817841E+03 0.57398493E+03 0.29971009E+03 0.0000E+00 0.0000E+00
       23  2    3    3    0    0 -.83950395E+02 0.47564081E+02 0.10374272E+03 0.16792351E+03 0.90142910E+02 0.0000E+00 0.0000E+00
       23  1    1    2    0    0 -.89228808E+01 -.35139419E+02 0.20878677E+04 0.20901725E+04 0.91188000E+02 0.0000E+00 0.9000E+01
      -13  1    4    4    0    0 -.83694879E+02 0.37526765E+02 0.11863775E+03 0.14996005E+03 0.10565837E+00 0.0000E+00 0.9000E+01
       13  1    4    4    0    0 -.25551665E+00 0.10037316E+02 -.14895027E+02 0.17963463E+02 0.10565837E+00 0.0000E+00 0.9000E+01
       23  1    3    3    0    0 0.92873276E+02 -.12424662E+02 0.38443569E+03 0.40606141E+03 0.91188000E+02 0.0000E+00 0.9000E+01
#aMCatNLO 1  0  0  1  2 0.13576554D+02 0.00000000D+00  -5  7  0 0.00000000D+00 0.00000000D+00 0.00000000D+00 0.00000000D+00 0.00000000D+00
  <mgrwgt>
 0.7963827722D-03    9    2    0
 0.339750404347604D+03 0.000000000000000D+00 0.000000000000000D+00 0.339750404347604D+03
 0.339750404347604D+03 0.000000000000000D+00 0.000000000000000D+00 -.339750404347604D+03
 0.279771898625078D+03 -.892288077791652D+01 -.351394194175865D+02 0.261997456701204D+03
 0.138190992017414D+03 -.836949932270987D+02 0.375268022534091D+02 -.103361682920251D+03
 0.126898687451931D+03 -.255402225971402D+00 0.100372787267387D+02 -.126500848544536D+03
 0.134639230600786D+03 0.928732762309867D+02 -.124246615625612D+02 -.321349252364177D+02
 0.000000000000000D+00 0.000000000000000D+00 0.000000000000000D+00 0.000000000000000D+00
 0.350497636837241D+03 0.000000000000000D+00 0.000000000000000D+00 0.350497636837241D+03
 0.344133118463987D+03 0.000000000000000D+00 0.000000000000000D+00 -.344133118463987D+03
 0.280342994047092D+03 -.137140297101442D+02 -.380289500051993D+02 0.261997456701204D+03
 0.139263320992663D+03 -.860683008340047D+02 0.360954660497189D+02 -.103361682920251D+03
 0.126824812878193D+03 -.242571959048262D+01 0.872836545806553D+01 -.126500848544536D+03
 0.133205298289686D+03 0.905821694502432D+02 -.138064226424380D+02 -.321349252364177D+02
 0.149943290935928D+02 0.116258806843884D+02 0.701154113985293D+01 0.636451837325332D+01
0.519009869423D-05 0.000000000000D+00 0.000000000000D+00 0.352394076716D-06 0.000000000000D+00  7 2 -2 23 -13 13 23 21 0 0.40309258D+00 0.67777953D-02 0.27331104D+05 0.27331104D+05 0.27331104D+05 0.11711090D+01  1  2  2  1  7  1        2 0.238545979621D-03 0.100000000000D+01
-.106437165146D-06 0.000000000000D+00 -.199313455702D-07 0.352394076716D-06 0.000000000000D+00  7 2 -2 23 -13 13 23 21 2 0.40309258D+00 0.67777953D-02 0.27331104D+05 0.27331104D+05 0.27331104D+05 0.11711090D+01  1  2  3  1  7  1        2 -.670941087305D-05 0.100000000000D+01
0.315127644709D-06 0.000000000000D+00 0.000000000000D+00 0.352394076716D-06 0.000000000000D+00  7 2 -2 23 -13 13 23 21 2 0.40309258D+00 0.67777953D-02 0.27331104D+05 0.27331104D+05 0.27331104D+05 0.11711090D+01  1  2 15  1  7  1        2 0.198644979214D-04 0.100000000000D+01
0.894022404391D-05 0.000000000000D+00 0.000000000000D+00 0.352394076716D-06 0.000000000000D+00  7 2 -2 23 -13 13 23 21 2 0.41838461D+00 0.67777953D-02 0.29753636D+05 0.29753636D+05 0.29753636D+05 0.11676683D+01  1  2 12  1  7  1        2 0.490258369633D-03 0.100000000000D+01
-.858581042687D-05 0.000000000000D+00 0.000000000000D+00 0.352394076716D-06 0.000000000000D+00  7 2 -2 23 -13 13 23 21 2 0.40309258D+00 0.67777953D-02 0.27331104D+05 0.27331104D+05 0.27331104D+05 0.11711090D+01  1  2  4  1  7  1        2 -.541218189650D-03 0.100000000000D+01
-.772827985003D-04 0.000000000000D+00 -.123630952746D-04 0.352394076716D-06 0.000000000000D+00  7 2 -2 23 -13 13 23 21 2 0.41770292D+00 0.67777953D-02 0.27331104D+05 0.27331104D+05 0.27331104D+05 0.11711090D+01  1  2  5  1  7  1        2 -.429917151849D-02 0.100000000000D+01
0.776815664412D-04 0.000000000000D+00 0.123552633193D-04 0.352394076716D-06 0.000000000000D+00  7 2 -2 23 -13 13 23 21 2 0.40309258D+00 0.67777953D-02 0.27331104D+05 0.27331104D+05 0.27331104D+05 0.11711090D+01  1  2  6  1  7  1        2 0.489676275951D-02 0.100000000000D+01
0.162809107163D-06 0.000000000000D+00 0.000000000000D+00 0.352394076716D-06 0.000000000000D+00  7 21 -2 23 -13 13 23 -2 2 0.41838461D+00 0.67777953D-02 0.29753636D+05 0.29753636D+05 0.29753636D+05 0.11676683D+01  1  2 12  3  7  1        2 0.952471512449D-06 0.100000000000D+01
-.483831978021D-06 0.000000000000D+00 -.782985092674D-07 0.352394076716D-06 0.000000000000D+00  7 21 -2 23 -13 13 23 -2 2 0.41770292D+00 0.67777953D-02 0.27331104D+05 0.27331104D+05 0.27331104D+05 0.11711090D+01  1  2  5  3  7  1        2 -.290218696381D-05 0.100000000000D+01
  </mgrwgt>
  </event>
  <event>
  8     66 0.29152272E-05 0.63474944E+03 0.75467711E-02 0.88817452E-01
        2 -1    0    0  501    0 0.00000000E+00 0.00000000E+00 0.22176059E+04 0.22176060E+04 0.32000000E+00 0.0000E+00 0.9000E+01
       -2 -1    0    0    0  501 0.00000000E+00 0.00000000E+00 -.34602119E+03 0.34602134E+03 0.32000000E+00 0.0000E+00 0.9000E+01
       25  2    1    2    0    0 0.78258632E+03 -.79583537E+02 0.49827885E+03 0.97836416E+03 0.30023282E+03 0.0000E+00 0.0000E+00
       23  2    3    3    0    0 0.25236980E+03 0.49998316E+02 0.79897669E+02 0.28462136E+03 0.91844083E+02 0.0000E+00 0.0000E+00
       23  1    1    2    0    0 -.78258632E+03 0.79583537E+02 0.13733059E+04 0.15852631E+04 0.91188000E+02 0.0000E+00 0.9000E+01
      -11  1    4    4    0    0 0.11826116E+03 0.29191304E+02 0.85451753E+02 0.14879461E+03 0.51099893E-03 0.0000E+00 0.9000E+01
       11  1    4    4    0    0 0.13410863E+03 0.20807012E+02 -.55540840E+01 0.13582675E+03 0.51099893E-03 0.0000E+00 0.9000E+01
       23  1    3    3    0    0 0.53021652E+03 -.12958185E+03 0.41838118E+03 0.69374280E+03 0.91188000E+02 0.0000E+00 0.9000E+01
#aMCatNLO 1  0  0  1  2 0.11826594D+03 0.00000000D+00  -5  7  0 0.00000000D+00 0.00000000D+00 0.00000000D+00 0.00000000D+00 0.00000000D+00
  <mgrwgt>
 0.6484958221D-03    9    2    0
 0.875978806772225D+03 0.000000000000000D+00 0.000000000000000D+00 0.875978806772225D+03
 0.875978806772225D+03 0.000000000000000D+00 0.000000000000000D+00 -.875978806772225D+03
 0.852626502845546D+03 -.782586315360401D+03 0.795835373157156D+02 0.316040854336231D+03
 0.126443547403187D+03 0.118261162880852D+03 0.291913040062226D+02 -.339136521829627D+02
 0.204687655297437D+03 0.134108633778437D+03 0.208070119979294D+02 -.153228518327894D+03
 0.568199907998279D+03 0.530216518701113D+03 -.129581853319868D+03 -.128898683825374D+03
 0.000000000000000D+00 -.000000000000000D+00 -.000000000000000D+00 0.000000000000000D+00
 0.942077388952157D+03 0.000000000000000D+00 0.000000000000000D+00 0.942077388952157D+03
 0.932519031169173D+03 0.000000000000000D+00 0.000000000000000D+00 -.932519031169173D+03
 0.806187600545862D+03 -.729562611489636D+03 0.973641116466533D+02 0.316040854336231D+03
 0.134926821581945D+03 0.126615821198095D+03 0.319928929631427D+02 -.339136521829627D+02
 0.214183334985331D+03 0.147497772020871D+03 0.252968259937048D+02 -.153228518327894D+03
 0.600647091900940D+03 0.567578509454735D+03 -.117053161334001D+03 -.128898683825374D+03
 0.118651571107252D+03 -.112129491184066D+03 -.376006692694994D+02 0.955835778298444D+01
0.132440632215D-03 0.000000000000D+00 0.000000000000D+00 0.324290911272D-05 0.000000000000D+00  7 2 -2 23 -11 11 23 21 0 0.34117016D+00 0.53234043D-01 0.64224212D+06 0.64224212D+06 0.64224212D+06 0.10609098D+01  1  2  2  1  7  1        2 0.279247649884D-03 0.100000000000D+01
-.728698075576D-05 0.000000000000D+00 -.508606900124D-06 0.324290911272D-05 0.000000000000D+00  7 2 -2 23 -11 11 23 21 2 0.34117016D+00 0.53234043D-01 0.64224212D+06 0.64224212D+06 0.64224212D+06 0.10609098D+01  1  2  3  1  7  1        2 -.172931000790D-04 0.100000000000D+01
0.792276551251D-05 0.000000000000D+00 0.000000000000D+00 0.324290911272D-05 0.000000000000D+00  7 2 -2 23 -11 11 23 21 2 0.34117016D+00 0.53234043D-01 0.64224212D+06 0.64224212D+06 0.64224212D+06 0.10609098D+01  1  2 15  1  7  1        2 0.188019128227D-04 0.100000000000D+01
0.171934651858D-03 0.000000000000D+00 0.000000000000D+00 0.324290911272D-05 0.000000000000D+00  7 2 -2 23 -11 11 23 21 2 0.37716853D+00 0.53234043D-01 0.74548010D+06 0.74548010D+06 0.74548010D+06 0.10564625D+01  1  2 12  1  7  1        2 0.294337070447D-03 0.100000000000D+01
-.142059158598D-03 0.000000000000D+00 0.000000000000D+00 0.324290911272D-05 0.000000000000D+00  7 2 -2 23 -11 11 23 21 2 0.34117016D+00 0.53234043D-01 0.64224212D+06 0.64224212D+06 0.64224212D+06 0.10609098D+01  1  2  4  1  7  1        2 -.337127725338D-03 0.100000000000D+01
-.611438380582D-03 0.000000000000D+00 -.127558246622D-03 0.324290911272D-05 0.000000000000D+00  7 2 -2 23 -11 11 23 21 2 0.37736193D+00 0.53234043D-01 0.64224212D+06 0.64224212D+06 0.64224212D+06 0.10609098D+01  1  2  5  1  7  1        2 -.106365020772D-02 0.100000000000D+01
0.621781844428D-03 0.000000000000D+00 0.126912643699D-03 0.324290911272D-05 0.000000000000D+00  7 2 -2 23 -11 11 23 21 2 0.34117016D+00 0.53234043D-01 0.64224212D+06 0.64224212D+06 0.64224212D+06 0.10609098D+01  1  2  6  1  7  1        2 0.147558172903D-02 0.100000000000D+01
0.280010762663D-05 0.000000000000D+00 0.000000000000D+00 0.324290911272D-05 0.000000000000D+00  7 21 -2 23 -11 11 23 -2 2 0.37716853D+00 0.53234043D-01 0.74548010D+06 0.74548010D+06 0.74548010D+06 0.10564625D+01  1  2 12  3  7  1        2 0.561525723768D-06 0.100000000000D+01
-.957452328275D-05 0.000000000000D+00 -.208655968949D-05 0.324290911272D-05 0.000000000000D+00  7 21 -2 23 -11 11 23 -2 2 0.37736193D+00 0.53234043D-01 0.64224212D+06 0.64224212D+06 0.64224212D+06 0.10609098D+01  1  2  5  3  7  1        2 -.196303271318D-05 0.100000000000D+01
  </mgrwgt>
  </event>
  <event>
  8     66 0.29152272E-05 0.31391215E+03 0.75467711E-02 0.99107197E-01
        2 -1    0    0  501    0 0.00000000E+00 0.00000000E+00 0.11965504E+04 0.11965505E+04 0.32000000E+00 0.0000E+00 0.9000E+01
       -2 -1    0    0    0  501 0.00000000E+00 0.00000000E+00 -.14924496E+03 0.14924530E+03 0.32000000E+00 0.0000E+00 0.9000E+01
       25  2    1    2    0    0 0.33590215E+02 0.27946443E+03 0.94873723E+03 0.10339310E+04 0.29947016E+03 0.0000E+00 0.0000E+00
       23  2    3    3    0    0 -.89920262E+02 0.12162164E+03 0.28655127E+03 0.33609532E+03 0.89280214E+02 0.0000E+00 0.0000E+00
       23  1    1    2    0    0 -.33590215E+02 -.27946443E+03 0.98568249E+02 0.31186475E+03 0.91188000E+02 0.0000E+00 0.9000E+01
      -13  1    4    4    0    0 -.63263737E+01 -.11163049E+02 0.54393872E+02 0.55886861E+02 0.10565837E+00 0.0000E+00 0.9000E+01
       13  1    4    4    0    0 -.83593889E+02 0.13278469E+03 0.23215740E+03 0.28020846E+03 0.10565837E+00 0.0000E+00 0.9000E+01
       23  1    3    3    0    0 0.12351048E+03 0.15784279E+03 0.66218596E+03 0.69783571E+03 0.91188000E+02 0.0000E+00 0.9000E+01
#aMCatNLO 1  0  0  1  2 0.12095721D+00 0.00000000D+00  -5  7  0 0.00000000D+00 0.00000000D+00 0.00000000D+00 0.00000000D+00 0.00000000D+00
  <mgrwgt>
 0.4335028148D-03    9    2    0
 0.422586537984067D+03 0.000000000000000D+00 0.000000000000000D+00 0.422586537984067D+03
 0.422586537984067D+03 0.000000000000000D+00 0.000000000000000D+00 -.422586537984067D+03
 0.374450169552711D+03 -.335902147638609D+02 -.279464434333982D+03 -.229497288760803D+03
 0.215874584978422D+02 -.632626554709228D+01 -.111632506318053D+02 0.173602581765143D+02
 0.158504589927451D+03 -.835939967806099D+02 0.132784893237597D+03 0.224481816233031D+02
 0.290630857990128D+03 0.123510477091563D+03 0.157842791728190D+03 0.189688848960986D+03
 0.000000000000000D+00 0.000000000000000D+00 -.000000000000000D+00 0.000000000000000D+00
 0.423559449031216D+03 0.000000000000000D+00 0.000000000000000D+00 0.423559449031216D+03
 0.422590301831190D+03 0.000000000000000D+00 0.000000000000000D+00 -.422590301831190D+03
 0.374414505016038D+03 -.336092799785665D+02 -.279414353556090D+03 -.229497288760803D+03
 0.215862877392173D+02 -.632736469994273D+01 -.111603633614219D+02 0.173602581765143D+02
 0.158526608100721D+03 -.836020680224030D+02 0.132806094890650D+03 0.224481816233031D+02
 0.290645683767572D+03 0.123495678473804D+03 0.157881664948373D+03 0.189688848960986D+03
 0.976666238858123D+00 0.430342271079051D-01 -.113042921511367D+00 0.969147200026225D+00
0.366099305177D-05 0.000000000000D+00 0.000000000000D+00 0.188589020534D-06 0.000000000000D+00  7 2 -2 23 -13 13 23 21 0 0.18408471D+00 0.22960793D-01 0.11758321D+06 0.11758321D+06 0.11758321D+06 0.11159947D+01  1  2  2  1  7  1        2 0.141760610851D-03 0.100000000000D+01
-.192592437406D-06 0.000000000000D+00 -.140591772804D-07 0.188589020534D-06 0.000000000000D+00  7 2 -2 23 -13 13 23 21 2 0.18408471D+00 0.22960793D-01 0.11758321D+06 0.11758321D+06 0.11758321D+06 0.11159947D+01  1  2  3  1  7  1        2 -.928795641266D-05 0.100000000000D+01
0.235733670187D-06 0.000000000000D+00 0.000000000000D+00 0.188589020534D-06 0.000000000000D+00  7 2 -2 23 -13 13 23 21 2 0.18408471D+00 0.22960793D-01 0.11758321D+06 0.11758321D+06 0.11758321D+06 0.11159947D+01  1  2 15  1  7  1        2 0.113684840546D-04 0.100000000000D+01
-.235573874625D-01 0.000000000000D+00 0.000000000000D+00 0.188589020534D-06 0.000000000000D+00  7 2 -2 23 -13 13 23 21 2 0.18408471D+00 0.22960793D-01 0.11758321D+06 0.11758321D+06 0.11758321D+06 0.11159947D+01  1  2  4  1  7  1        2 -.113607777592D+01 0.100000000000D+01
-.254710005880D-01 0.000000000000D+00 -.181117871734D-03 0.188589020534D-06 0.000000000000D+00  7 2 -2 23 -13 13 23 21 2 0.18450920D+00 0.22960793D-01 0.11758321D+06 0.11758321D+06 0.11758321D+06 0.11159947D+01  1  2  5  1  7  1        2 -.122392164109D+01 0.100000000000D+01
0.254713506691D-01 0.000000000000D+00 0.181117391313D-03 0.188589020534D-06 0.000000000000D+00  7 2 -2 23 -13 13 23 21 2 0.18408471D+00 0.22960793D-01 0.11758321D+06 0.11758321D+06 0.11758321D+06 0.11159947D+01  1  2  6  1  7  1        2 0.122838050119D+01 0.100000000000D+01
0.235574453157D-01 0.000000000000D+00 0.000000000000D+00 0.188589020534D-06 0.856185230884D-04  7 2 -2 23 -13 13 23 21 2 0.18450853D+00 0.22960997D-01 0.11762288D+06 0.11762288D+06 0.11762288D+06 0.11159829D+01  1  2 11  1  7  1        2 0.113193031386D+01 0.100000000000D+01
-.109617495787D-04 0.000000000000D+00 -.779487959030D-07 0.188589020534D-06 0.000000000000D+00  7 21 -2 23 -13 13 23 -2 2 0.18450920D+00 0.22960793D-01 0.11758321D+06 0.11758321D+06 0.11758321D+06 0.11159947D+01  1  2  5  3  7  1        2 -.284894295518D-03 0.100000000000D+01
0.101258873078D-04 0.000000000000D+00 0.000000000000D+00 0.188589020534D-06 0.367932339259D-07  7 21 -2 23 -13 13 23 -2 2 0.18450853D+00 0.22960997D-01 0.11762288D+06 0.11762288D+06 0.11762288D+06 0.11159829D+01  1  2 11  3  7  1        2 0.263157937945D-03 0.100000000000D+01
  </mgrwgt>
  </event>
  <event>
  8     66 0.29152272E-05 0.38779009E+03 0.75467711E-02 0.95811481E-01
        2 -1    0    0  501    0 0.00000000E+00 0.00000000E+00 0.72545268E+03 0.72545275E+03 0.32000000E+00 0.0000E+00 0.9000E+01
       -2 -1    0    0    0  501 0.00000000E+00 0.00000000E+00 -.22677446E+03 0.22677468E+03 0.32000000E+00 0.0000E+00 0.9000E+01
       25  2    1    2    0    0 0.29801948E+03 0.14143908E+03 0.39261630E+03 0.59391889E+03 0.29961888E+03 0.0000E+00 0.0000E+00
       23  2    3    3    0    0 0.29819437E+03 0.16014318E+03 0.28733070E+03 0.45338355E+03 0.91825882E+02 0.0000E+00 0.0000E+00
       23  1    1    2    0    0 -.29801948E+03 -.14143908E+03 0.10606192E+03 0.35830854E+03 0.91188000E+02 0.0000E+00 0.9000E+01
      -11  1    4    4    0    0 0.25663704E+02 0.25830247E+02 0.18234890E+01 0.36457543E+02 0.51099893E-03 0.0000E+00 0.9000E+01
       11  1    4    4    0    0 0.27253067E+03 0.13431293E+03 0.28550721E+03 0.41692601E+03 0.51099893E-03 0.0000E+00 0.9000E+01
       23  1    3    3    0    0 -.17489154E+00 -.18704100E+02 0.10528559E+03 0.14053534E+03 0.91188000E+02 0.0000E+00 0.9000E+01
#aMCatNLO 1  0  0  1  2 0.11767276D+03 0.00000000D+00  -5  7  0 0.00000000D+00 0.00000000D+00 0.00000000D+00 0.00000000D+00 0.00000000D+00
  <mgrwgt>
 0.4918634441D-03    4    2    0
 0.405603596275425D+03 0.000000000000000D+00 0.000000000000000D+00 0.405603596275425D+03
 0.405603596275425D+03 0.000000000000000D+00 0.000000000000000D+00 -.405603596275425D+03
 0.355396805480915D+03 -.298019482166884D+03 -.141439075512191D+03 -.957654121762039D+02
 0.416743575095790D+02 0.256637042389000D+02 0.258302466637680D+02 -.202712781013770D+02
 0.313892869573835D+03 0.272530669463179D+03 0.134312929173758D+03 0.788403756206986D+02
 0.100243159986520D+03 -.174891535195030D+00 -.187041003253349D+02 0.371963146568823D+02
 0.000000000000000D+00 -.000000000000000D+00 -.000000000000000D+00 -.000000000000000D+00
 0.447163142419369D+03 0.000000000000000D+00 0.000000000000000D+00 0.447163142419369D+03
 0.502620447240185D+03 0.000000000000000D+00 0.000000000000000D+00 -.502620447240185D+03
 0.316090193358374D+03 -.267754661524919D+03 -.103605917088418D+03 -.957654121762039D+02
 0.473619394325803D+02 0.296766896909446D+02 0.308467612552665D+02 -.202712781013770D+02
 0.357087577537750D+03 0.302772659138631D+03 0.172117547280597D+03 0.788403756206986D+02
 0.991577874628472D+02 0.881237690160954D+01 -.746938148827227D+01 0.371963146568823D+02
 0.130086091868001D+03 -.735070642062654D+02 -.918890099591736D+02 -.554573048208161D+02
0.200140474937D-04 0.000000000000D+00 0.000000000000D+00 0.131882501911D-05 0.000000000000D+00  7 2 -2 23 -11 11 23 21 0 0.11160813D+00 0.34888401D-01 0.15038115D+06 0.15038115D+06 0.15038115D+06 0.11074649D+01  1  2  2  1  7  1        2 0.737831482555D-03 0.100000000000D+01
-.110916461500D-05 0.000000000000D+00 -.768592121954D-07 0.131882501911D-05 0.000000000000D+00  7 2 -2 23 -11 11 23 21 2 0.11160813D+00 0.34888401D-01 0.15038115D+06 0.15038115D+06 0.15038115D+06 0.11074649D+01  1  2  3  1  7  1        2 -.501508419908D-04 0.100000000000D+01
0.129981286002D-05 0.000000000000D+00 0.000000000000D+00 0.131882501911D-05 0.000000000000D+00  7 2 -2 23 -11 11 23 21 2 0.11160813D+00 0.34888401D-01 0.15038115D+06 0.15038115D+06 0.15038115D+06 0.11074649D+01  1  2 15  1  7  1        2 0.587709961885D-04 0.100000000000D+01
-.563061762126D-05 0.000000000000D+00 0.000000000000D+00 0.131882501911D-05 0.000000000000D+00  7 2 -2 23 -11 11 23 21 2 0.11160813D+00 0.34888401D-01 0.15038115D+06 0.15038115D+06 0.15038115D+06 0.11074649D+01  1  2  4  1  7  1        2 -.254588192606D-03 0.100000000000D+01
  </mgrwgt>
  </event>
  <event>
  8     66 0.29152272E-05 0.28423125E+03 0.75467711E-02 0.95850894E-01
        2 -1    0    0  501    0 0.00000000E+00 0.00000000E+00 0.36816923E+04 0.36816923E+04 0.32000000E+00 0.0000E+00 0.9000E+01
       -2 -1    0    0    0  501 0.00000000E+00 0.00000000E+00 -.63921495E+02 0.63922296E+02 0.32000000E+00 0.0000E+00 0.9000E+01
       25  2    1    2    0    0 -.20638435E+03 0.38135396E+03 0.19376793E+04 0.20080738E+04 0.29955632E+03 0.0000E+00 0.0000E+00
       23  2    3    3    0    0 -.86193885E+01 0.62840669E+02 0.79750316E+03 0.80438008E+03 0.83622852E+02 0.0000E+00 0.0000E+00
       23  1    1    2    0    0 0.20638435E+03 -.38135396E+03 0.16800915E+04 0.17375408E+04 0.91188000E+02 0.0000E+00 0.9000E+01
      -13  1    4    4    0    0 0.73247737E+01 0.29706246E+02 0.69156939E+03 0.69224587E+03 0.10565837E+00 0.0000E+00 0.9000E+01
       13  1    4    4    0    0 -.15944162E+02 0.33134423E+02 0.10593377E+03 0.11213421E+03 0.10565837E+00 0.0000E+00 0.9000E+01
       23  1    3    3    0    0 -.19776496E+03 0.31851329E+03 0.11401761E+04 0.12036937E+04 0.91188000E+02 0.0000E+00 0.9000E+01
#aMCatNLO 1  0  0  1  2 0.27339299D+01 0.00000000D+00  -5  7  0 0.00000000D+00 0.00000000D+00 0.00000000D+00 0.00000000D+00 0.00000000D+00
  <mgrwgt>
 0.1372776823D-02   11    2    0
 0.485119367734712D+03 0.000000000000000D+00 0.000000000000000D+00 0.485119367734712D+03
 0.485119367734712D+03 0.000000000000000D+00 0.000000000000000D+00 -.485119367734712D+03
 0.443161273274619D+03 0.206384348522422D+03 -.381353955231925D+03 0.716409801188613D+01
 0.937365018228226D+02 0.732481086774607D+01 0.297062402721118D+02 0.886025857897349D+02
 0.378951568836982D+02 -.159441992155244D+02 0.331344284328650D+02 -.916160897676391D+01
 0.395445803488285D+03 -.197764960174644D+03 0.318513286526948D+03 -.866050748248572D+02
 0.000000000000000D+00 0.000000000000000D+00 0.000000000000000D+00 0.000000000000000D+00
 0.489830397891485D+03 0.000000000000000D+00 0.000000000000000D+00 0.489830397891485D+03
 0.485518098025153D+03 0.000000000000000D+00 0.000000000000000D+00 -.485518098025153D+03
 0.444122369378743D+03 0.206170637515109D+03 -.382585639517322D+03 0.716409801188613D+01
 0.936508717419173D+02 0.727967677258508D+01 0.294461181733753D+02 0.886025857897349D+02
 0.378109965682803D+02 -.159624337884798D+02 0.330293368082343D+02 -.916160897676391D+01
 0.394658349594334D+03 -.197955264544431D+03 0.317416502113940D+03 -.866050748248572D+02
 0.510590863336306D+01 0.467384045216775D+00 0.269368242177194D+01 0.431229986633177D+01
0.582603352980D-04 0.000000000000D+00 0.000000000000D+00 0.231406441795D-07 0.000000000000D+00  7 2 -2 23 -13 13 23 21 0 0.56641426D+00 0.98341388D-02 0.20084564D+06 0.20084564D+06 0.20084564D+06 0.10976847D+01  1  2  2  1  7  1        2 0.288381207542D-03 0.100000000000D+01
-.321196977805D-05 0.000000000000D+00 -.223735027843D-06 0.231406441795D-07 0.000000000000D+00  7 2 -2 23 -13 13 23 21 2 0.56641426D+00 0.98341388D-02 0.20084564D+06 0.20084564D+06 0.20084564D+06 0.10976847D+01  1  2  3  1  7  1        2 -.191566969899D-04 0.100000000000D+01
0.357583472024D-05 0.000000000000D+00 0.000000000000D+00 0.231406441795D-07 0.000000000000D+00  7 2 -2 23 -13 13 23 21 2 0.56641426D+00 0.98341388D-02 0.20084564D+06 0.20084564D+06 0.20084564D+06 0.10976847D+01  1  2 15  1  7  1        2 0.213268451931D-04 0.100000000000D+01
0.283015591404D-06 0.000000000000D+00 0.000000000000D+00 0.231406441795D-07 0.000000000000D+00  7 2 -2 23 -13 13 23 21 2 0.57214629D+00 0.98341388D-02 0.20198466D+06 0.20198466D+06 0.20198466D+06 0.10974962D+01  1  2 12  1  7  1        2 0.158217354333D-05 0.100000000000D+01
-.241373566548D-02 0.000000000000D+00 0.000000000000D+00 0.231406441795D-07 0.000000000000D+00  7 2 -2 23 -13 13 23 21 2 0.56641426D+00 0.98341388D-02 0.20084564D+06 0.20084564D+06 0.20084564D+06 0.10976847D+01  1  2  4  1  7  1        2 -.143959021885D-01 0.100000000000D+01
-.531419411454D-02 0.000000000000D+00 -.359755412747D-03 0.231406441795D-07 0.000000000000D+00  7 2 -2 23 -13 13 23 21 2 0.57201742D+00 0.98341388D-02 0.20084564D+06 0.20084564D+06 0.20084564D+06 0.10976847D+01  1  2  5  1  7  1        2 -.297720457911D-01 0.100000000000D+01
0.532567108084D-02 0.000000000000D+00 0.360896244646D-03 0.231406441795D-07 0.000000000000D+00  7 2 -2 23 -13 13 23 21 2 0.56641426D+00 0.98341388D-02 0.20084564D+06 0.20084564D+06 0.20084564D+06 0.10976847D+01  1  2  6  1  7  1        2 0.317631466711D-01 0.100000000000D+01
0.240919694079D-02 0.000000000000D+00 0.000000000000D+00 0.231406441795D-07 0.198896720553D-07  7 2 -2 23 -13 13 23 21 2 0.57191475D+00 0.98422217D-02 0.20198466D+06 0.20198466D+06 0.20198466D+06 0.10974962D+01  1  2 11  1  7  1        2 0.134862247771D-01 0.100000000000D+01
0.393345249526D-07 0.000000000000D+00 0.000000000000D+00 0.231406441795D-07 0.000000000000D+00  7 21 -2 23 -13 13 23 -2 2 0.57214629D+00 0.98341388D-02 0.20198466D+06 0.20198466D+06 0.20198466D+06 0.10974962D+01  1  2 12  3  7  1        2 0.587884747699D-08 0.100000000000D+01
-.965224436532D-05 0.000000000000D+00 -.654302856739D-06 0.231406441795D-07 0.000000000000D+00  7 21 -2 23 -13 13 23 -2 2 0.57201742D+00 0.98341388D-02 0.20084564D+06 0.20084564D+06 0.20084564D+06 0.10976847D+01  1  2  5  3  7  1        2 -.144755828989D-05 0.100000000000D+01
0.441192374690D-05 0.000000000000D+00 0.000000000000D+00 0.231406441795D-07 0.355426546092D-10  7 21 -2 23 -13 13 23 -2 2 0.57191475D+00 0.98422217D-02 0.20198466D+06 0.20198466D+06 0.20198466D+06 0.10974962D+01  1  2 11  3  7  1        2 0.661504763824D-06 0.100000000000D+01
  </mgrwgt>
  </event>
  <event>
  8     66 0.29152272E-05 0.13685293E+03 0.75467711E-02 0.10113808E+00
        2 -1    0    0  501    0 0.00000000E+00 0.00000000E+00 0.81448942E+03 0.81448948E+03 0.32000000E+00 0.0000E+00 0.9000E+01
       -2 -1    0    0    0  501 0.00000000E+00 0.00000000E+00 -.10969297E+03 0.10969343E+03 0.32000000E+00 0.0000E+00 0.9000E+01
       25  2    1    2    0    0 -.14088922E+03 0.15629751E+03 0.39817512E+03 0.54128531E+03 0.30027934E+03 0.0000E+00 0.0000E+00
       23  2    3    3    0    0 -.54445472E+02 -.22865690E+02 0.25962328E+03 0.28227984E+03 0.93757717E+02 0.0000E+00 0.0000E+00
       23  1    1    2    0    0 0.14088922E+03 -.15629751E+03 0.30662133E+03 0.38289761E+03 0.91188000E+02 0.0000E+00 0.9000E+01
      -13  1    4    4    0    0 -.62341309E+02 -.78311008E+01 0.79374513E+02 0.10123285E+03 0.10565837E+00 0.0000E+00 0.9000E+01
       13  1    4    4    0    0 0.78958368E+01 -.15034590E+02 0.18024877E+03 0.18104699E+03 0.10565837E+00 0.0000E+00 0.9000E+01
       23  1    3    3    0    0 -.86443748E+02 0.17916320E+03 0.13855184E+03 0.25900548E+03 0.91188000E+02 0.0000E+00 0.9000E+01
#aMCatNLO 1  0  0  2  1 0.55990132D+02 0.00000000D+00  -5  7  0 0.00000000D+00 0.00000000D+00 0.00000000D+00 0.00000000D+00 0.00000000D+00
  <mgrwgt>
 0.3124200450D-03    9    2    0
 0.298904677839165D+03 0.000000000000000D+00 0.000000000000000D+00 0.298904677839165D+03
 0.298904677839165D+03 0.000000000000000D+00 0.000000000000000D+00 -.298904677839165D+03
 0.230444367117302D+03 0.140889220402862D+03 -.156297507456776D+03 0.225980470210815D+02
 0.629210416191769D+02 -.623413935780885D+02 -.783109345713766D+01 0.335888381008314D+01
 0.673824281149829D+02 0.789592329101369D+01 -.150346004214652D+02 0.652074137212951D+02
 0.237061518826868D+03 -.864437501157868D+02 0.179163201335379D+03 -.911643445524597D+02
 0.000000000000000D+00 -.000000000000000D+00 -.000000000000000D+00 -.000000000000000D+00
 0.320069806201184D+03 0.000000000000000D+00 0.000000000000000D+00 0.320069806201184D+03
 0.339681197628028D+03 0.000000000000000D+00 0.000000000000000D+00 -.339681197628028D+03
 0.220843717503785D+03 0.146488780298040D+03 -.135967134758798D+03 0.225980470210815D+02
 0.609388469648236D+02 -.608045462994403D+02 -.225124815863614D+01 0.335888381008314D+01
 0.665161233544686D+02 0.955732979471156D+01 -.900251681930465D+01 0.652074137212951D+02
 0.252126928445926D+03 -.803739244237717D+02 0.201200972310323D+03 -.911643445524597D+02
 0.593253875602091D+02 -.148676393695395D+02 -.539800725735845D+02 -.196113914268439D+02
0.210038426675D-05 0.000000000000D+00 0.000000000000D+00 0.486960982292D-07 0.000000000000D+00  7 2 -2 23 -13 13 23 21 0 0.12530611D+00 0.16875882D-01 0.69690297D+05 0.69690297D+05 0.69690297D+05 0.11348234D+01  1  2  2  2  7  2       -2 0.232580054969D-03 0.100000000000D+01
-.114498910106D-06 0.000000000000D+00 -.806602862818D-08 0.486960982292D-07 0.000000000000D+00  7 2 -2 23 -13 13 23 21 2 0.12530611D+00 0.16875882D-01 0.69690297D+05 0.69690297D+05 0.69690297D+05 0.11348234D+01  1  2  3  2  7  2       -2 -.163279477135D-04 0.100000000000D+01
0.137526603995D-06 0.000000000000D+00 0.000000000000D+00 0.486960982292D-07 0.000000000000D+00  7 2 -2 23 -13 13 23 21 2 0.12530611D+00 0.16875882D-01 0.69690297D+05 0.69690297D+05 0.69690297D+05 0.11348234D+01  1  2 15  2  7  2       -2 0.196117779389D-04 0.100000000000D+01
0.253752060971D-05 0.000000000000D+00 0.000000000000D+00 0.486960982292D-07 0.000000000000D+00  7 2 -2 23 -13 13 23 21 2 0.12530611D+00 0.19711603D-01 0.85473981D+05 0.85473981D+05 0.85473981D+05 0.11273592D+01  1  2 12  2  7  2       -2 0.277079848733D-03 0.100000000000D+01
-.242546621892D-05 0.000000000000D+00 0.000000000000D+00 0.486960982292D-07 0.000000000000D+00  7 2 -2 23 -13 13 23 21 2 0.12530611D+00 0.16875882D-01 0.69690297D+05 0.69690297D+05 0.69690297D+05 0.11348234D+01  1  2  4  2  7  2       -2 -.345880022499D-03 0.100000000000D+01
-.584438027492D-05 0.000000000000D+00 -.155927893185D-05 0.486960982292D-07 0.000000000000D+00  7 2 -2 23 -13 13 23 21 2 0.12530611D+00 0.20498414D-01 0.69690297D+05 0.69690297D+05 0.69690297D+05 0.11348234D+01  1  2  5  2  7  2       -2 -.606902553321D-03 0.100000000000D+01
0.606165196800D-05 0.000000000000D+00 0.153025400085D-05 0.486960982292D-07 0.000000000000D+00  7 2 -2 23 -13 13 23 21 2 0.12530611D+00 0.16875882D-01 0.69690297D+05 0.69690297D+05 0.69690297D+05 0.11348234D+01  1  2  6  2  7  2       -2 0.864412912748D-03 0.100000000000D+01
0.595349236329D-07 0.000000000000D+00 0.000000000000D+00 0.486960982292D-07 0.000000000000D+00  7 2 21 23 -13 13 23 2 2 0.12530611D+00 0.19711603D-01 0.85473981D+05 0.85473981D+05 0.85473981D+05 0.11273592D+01  1  2 12  4  7  2       -2 0.839745526085D-04 0.100000000000D+01
-.146565894417D-06 0.000000000000D+00 -.436683658204D-07 0.486960982292D-07 0.000000000000D+00  7 2 21 23 -13 13 23 2 2 0.12530611D+00 0.20498414D-01 0.69690297D+05 0.69690297D+05 0.69690297D+05 0.11348234D+01  1  2  5  4  7  2       -2 -.196128578418D-03 0.100000000000D+01
  </mgrwgt>
  </event>
  <event>
  8     66 0.29152272E-05 0.54796910E+03 0.75467711E-02 0.87551081E-01
        2 -1    0    0  501    0 0.00000000E+00 0.00000000E+00 0.12657780E+04 0.12657781E+04 0.32000000E+00 0.0000E+00 0.9000E+01
       -2 -1    0    0    0  501 0.00000000E+00 0.00000000E+00 -.61184441E+03 0.61184450E+03 0.32000000E+00 0.0000E+00 0.9000E+01
       25  2    1    2    0    0 0.80474696E+03 -.36581099E+02 0.63270955E+03 0.10666222E+04 0.29733102E+03 0.0000E+00 0.0000E+00
       23  2    3    3    0    0 0.64284445E+03 -.39242897E+02 0.38155026E+03 0.75418703E+03 0.91806778E+02 0.0000E+00 0.0000E+00
       23  1    1    2    0    0 -.80474696E+03 0.36581099E+02 0.21224070E+02 0.81100035E+03 0.91188000E+02 0.0000E+00 0.9000E+01
      -13  1    4    4    0    0 0.49150267E+03 0.91881021E+01 0.28389195E+03 0.56767416E+03 0.10565837E+00 0.0000E+00 0.9000E+01
       13  1    4    4    0    0 0.15134178E+03 -.48430999E+02 0.97658308E+02 0.18651287E+03 0.10565837E+00 0.0000E+00 0.9000E+01
       23  1    3    3    0    0 0.16190251E+03 0.26617976E+01 0.25115929E+03 0.31243519E+03 0.91188000E+02 0.0000E+00 0.9000E+01
#aMCatNLO 1  0  0  2  1 0.29497456D+03 0.00000000D+00  -5  7  0 0.00000000D+00 0.00000000D+00 0.00000000D+00 0.00000000D+00 0.00000000D+00
  <mgrwgt>
 0.9200248489D-03    9    2    0
 0.880033710358755D+03 0.000000000000000D+00 0.000000000000000D+00 0.880033710358755D+03
 0.880033710358755D+03 0.000000000000000D+00 0.000000000000000D+00 -.880033710358755D+03
 0.857281602969320D+03 -.804746962362861D+03 0.365810992790825D+02 -.278676596055228D+03
 0.500112720337662D+03 0.491503123212519D+03 0.918817844970770D+01 0.919401451633185D+02
 0.162685778338815D+03 0.151341325276825D+03 -.484310753220249D+02 0.348840462147489D+02
 0.239987319071712D+03 0.161902513873517D+03 0.266179759323465D+01 0.151852404677160D+03
 0.000000000000000D+00 0.000000000000000D+00 -.000000000000000D+00 -.000000000000000D+00
 0.967781822784224D+03 0.000000000000000D+00 0.000000000000000D+00 0.967781822784224D+03
 0.118051580017731D+04 0.000000000000000D+00 0.000000000000000D+00 -.118051580017731D+04
 0.990423339225737D+03 -.939542694176395D+03 0.110553245858682D+03 -.278676596055228D+03
 0.435614934055886D+03 0.423238926331444D+03 0.466496700703093D+02 0.919401451633185D+02
 0.138814176787742D+03 0.129345980584641D+03 -.363606422322757D+02 0.348840462147489D+02
 0.219761603216579D+03 0.128362422587778D+03 0.210676663511113D+02 0.151852404677160D+03
 0.363683569675592D+03 0.258595364672533D+03 -.141909940047827D+03 -.212733977393088D+03
0.341706630930D-03 0.000000000000D+00 0.000000000000D+00 0.137101351796D-06 0.000000000000D+00  7 2 -2 23 -13 13 23 21 0 0.19473509D+00 0.94129919D-01 0.67819230D+06 0.67819230D+06 0.67819230D+06 0.10592782D+01  1  2  2  2  7  2       -2 0.699332755143D-03 0.100000000000D+01
-.188820373948D-04 0.000000000000D+00 -.131224343620D-05 0.137101351796D-06 0.000000000000D+00  7 2 -2 23 -13 13 23 21 2 0.19473509D+00 0.94129919D-01 0.67819230D+06 0.67819230D+06 0.67819230D+06 0.10592782D+01  1  2  3  2  7  2       -2 -.433610088409D-04 0.100000000000D+01
0.205581311901D-04 0.000000000000D+00 0.000000000000D+00 0.137101351796D-06 0.000000000000D+00  7 2 -2 23 -13 13 23 21 2 0.19473509D+00 0.94129919D-01 0.67819230D+06 0.67819230D+06 0.67819230D+06 0.10592782D+01  1  2 15  2  7  2       -2 0.472100170998D-04 0.100000000000D+01
0.274146169881D-03 0.000000000000D+00 0.000000000000D+00 0.137101351796D-06 0.000000000000D+00  7 2 -2 23 -13 13 23 21 2 0.19473509D+00 0.12973095D+00 0.96472060D+06 0.96472060D+06 0.96472060D+06 0.10489039D+01  1  2 12  2  7  2       -2 0.270315465849D-03 0.100000000000D+01
-.312371161113D-03 0.000000000000D+00 0.000000000000D+00 0.137101351796D-06 0.000000000000D+00  7 2 -2 23 -13 13 23 21 2 0.19473509D+00 0.94129919D-01 0.67819230D+06 0.67819230D+06 0.67819230D+06 0.10592782D+01  1  2  4  2  7  2       -2 -.717334067053D-03 0.100000000000D+01
-.465696464371D-03 0.000000000000D+00 -.143998061750D-03 0.137101351796D-06 0.000000000000D+00  7 2 -2 23 -13 13 23 21 2 0.19473509D+00 0.13438562D+00 0.67819230D+06 0.67819230D+06 0.67819230D+06 0.10592782D+01  1  2  5  2  7  2       -2 -.434922419474D-03 0.100000000000D+01
0.493991548358D-03 0.000000000000D+00 0.135329692702D-03 0.137101351796D-06 0.000000000000D+00  7 2 -2 23 -13 13 23 21 2 0.19473509D+00 0.94129919D-01 0.67819230D+06 0.67819230D+06 0.67819230D+06 0.10592782D+01  1  2  6  2  7  2       -2 0.113440999230D-02 0.100000000000D+01
0.111218529146D-04 0.000000000000D+00 0.000000000000D+00 0.137101351796D-06 0.000000000000D+00  7 2 21 23 -13 13 23 2 2 0.19473509D+00 0.12973095D+00 0.96472060D+06 0.96472060D+06 0.96472060D+06 0.10489039D+01  1  2 12  4  7  2       -2 0.927152084274D-04 0.100000000000D+01
-.161927360480D-04 0.000000000000D+00 -.629781162242D-05 0.137101351796D-06 0.000000000000D+00  7 2 21 23 -13 13 23 2 2 0.19473509D+00 0.13438562D+00 0.67819230D+06 0.67819230D+06 0.67819230D+06 0.10592782D+01  1  2  5  4  7  2       -2 -.128341094566D-03 0.100000000000D+01
  </mgrwgt>
  </event>
  <event>
  9     66 -.29152272E-05 0.35407393E+03 0.75467711E-02 0.98624836E-01
        2 -1    0    0  502    0 0.00000000E+00 0.00000000E+00 0.38756390E+04 0.38756390E+04 0.32000000E+00 0.0000E+00 0.9000E+01
       -2 -1    0    0    0  501 0.00000000E+00 0.00000000E+00 -.56570044E+02 0.56570949E+02 0.32000000E+00 0.0000E+00 0.9000E+01
       25  2    1    2    0    0 -.11467582E+03 0.28905415E+03 0.96169411E+03 0.10554483E+04 0.30399468E+03 0.0000E+00 0.0000E+00
       23  2    3    3    0    0 0.16724001E+02 0.17188074E+03 0.25287082E+03 0.31941760E+03 0.90891544E+02 0.0000E+00 0.0000E+00
       23  1    1    2    0    0 0.11892561E+03 -.29166247E+03 0.27913452E+04 0.28105398E+04 0.91188000E+02 0.0000E+00 0.9000E+01
      -13  1    4    4    0    0 0.28732222E+02 0.38469652E+02 0.12633348E+03 0.13515034E+03 0.10565837E+00 0.0000E+00 0.9000E+01
       13  1    4    4    0    0 -.12008222E+02 0.13341108E+03 0.12653734E+03 0.18426727E+03 0.10565837E+00 0.0000E+00 0.9000E+01
       23  1    3    3    0    0 -.13139982E+03 0.11717341E+03 0.70882329E+03 0.73603072E+03 0.91188000E+02 0.0000E+00 0.9000E+01
       21  1    1    2  502  501 -.42497874E+01 0.26083251E+01 0.66029572E+02 0.66221832E+02 0.75000000E+00 0.0000E+00 0.9000E+01
#aMCatNLO 2  0  0  1  2 0.49863867D+01 0.00000000D+00  -5  7  0 0.00000000D+00 0.00000000D+00 0.00000000D+00 0.00000000D+00 0.00000000D+00
  <mgrwgt>
 -.2825626579D-03    3    2    0
 0.463825058220909D+03 0.000000000000000D+00 0.000000000000000D+00 0.463825058220909D+03
 0.463825058220909D+03 0.000000000000000D+00 0.000000000000000D+00 -.463825058220909D+03
 0.418496810810584D+03 0.117005274678452D+03 -.290483864072943D+03 0.262208351745901D+03
 0.521026810399231D+02 0.284935309016040D+02 0.386160548939107D+02 -.202881337914004D+02
 0.256427169573515D+03 -.131820317555977D+02 0.134131609048089D+03 -.218150954131421D+03
 0.200623455017795D+03 -.132316773824458D+03 0.117736200130943D+03 -.237692638230800D+02
 0.000000000000000D+00 -.000000000000000D+00 0.000000000000000D+00 0.000000000000000D+00
 0.471866808409397D+03 0.000000000000000D+00 0.000000000000000D+00 0.471866808409397D+03
 0.464605371295608D+03 0.000000000000000D+00 0.000000000000000D+00 -.464605371295608D+03
 0.419855655452933D+03 0.118925607528936D+03 -.291662476538178D+03 0.262208351745901D+03
 0.521253905488052D+02 0.287322760569758D+02 0.384695240380412D+02 -.202881337914004D+02
 0.255993338812436D+03 -.120082796941275D+02 0.133411213721625D+03 -.218150954131421D+03
 0.199689133163645D+03 -.131399816524894D+03 0.117173413683228D+03 -.237692638230800D+02
 0.880866172718557D+01 -.424978736688989D+01 0.260832509528411D+01 0.726143711378939D+01
-.210483895071D-04 0.000000000000D+00 0.000000000000D+00 0.256146436292D-07 0.000000000000D+00  7 2 -2 23 -13 13 23 21 2 0.59672000D+00 0.86882396D-02 0.12713944D+06 0.12713944D+06 0.12713944D+06 0.11132638D+01  1  2 13  1  7  1        2 -.113762042842D-03 0.100000000000D+01
-.405562330650D-03 0.000000000000D+00 0.000000000000D+00 0.256146436292D-07 0.000000000000D+00  7 2 -2 23 -13 13 23 21 2 0.58607057D+00 0.86882396D-02 0.12536835D+06 0.12536835D+06 0.12536835D+06 0.11137526D+01  1  2  8  1  7  1        2 -.248415442107D-02 0.100000000000D+01
0.427045289856D-03 0.000000000000D+00 0.000000000000D+00 0.256146436292D-07 0.681016065617D-08  7 2 -2 23 -13 13 23 21 2 0.59623180D+00 0.87028562D-02 0.12713944D+06 0.12713944D+06 0.12713944D+06 0.11132638D+01  1  2  1  1  7  1        2 0.231535380604D-02 0.100000000000D+01
  </mgrwgt>
  </event>
  <event>
  7     66 0.29152272E-05 0.32524721E+03 0.75467711E-02 0.99355208E-01
        2 -1    0    0  501    0 0.00000000E+00 0.00000000E+00 0.25151061E+04 0.25151061E+04 0.32000000E+00 0.0000E+00 0.9000E+01
       -2 -1    0    0    0  501 0.00000000E+00 0.00000000E+00 -.52148158E+02 0.52149139E+02 0.32000000E+00 0.0000E+00 0.9000E+01
       23  2    1    2    0    0 0.94592551E+02 0.12425421E+02 0.23879770E+03 0.27279982E+03 0.91067344E+02 0.0000E+00 0.0000E+00
       23  1    1    2    0    0 -.14928679E+03 -.24186243E+03 0.96332938E+03 0.10085151E+04 0.91188000E+02 0.0000E+00 0.9000E+01
      -13  1    3    3    0    0 0.67077689E+02 0.21019618E+02 0.62191155E+02 0.93856229E+02 0.10565837E+00 0.0000E+00 0.9000E+01
       13  1    3    3    0    0 0.27514862E+02 -.85941975E+01 0.17660654E+03 0.17894360E+03 0.10565837E+00 0.0000E+00 0.9000E+01
       23  1    1    2    0    0 0.54694236E+02 0.22943701E+03 0.12608308E+04 0.12859403E+04 0.91188000E+02 0.0000E+00 0.9000E+01
#aMCatNLO 1  0  0  2  2 0.23599783D+02 0.00000000D+00  -5  7  0 0.00000000D+00 0.00000000D+00 0.00000000D+00 0.00000000D+00 0.00000000D+00
  <mgrwgt>
 0.5123323525D-03    4    2    0
 0.362159405542547D+03 0.000000000000000D+00 0.000000000000000D+00 0.362159405542547D+03
 0.362159405542547D+03 0.000000000000000D+00 0.000000000000000D+00 -.362159405542547D+03
 0.298868546583386D+03 -.149286891467492D+03 -.241862603254028D+03 -.149352594896458D+02
 0.121187942911901D+03 0.670777063920200D+02 0.210198180230858D+02 -.987181141568277D+02
 0.337134930445203D+02 0.275148139352622D+02 -.859415836589436D+01 0.174835656933233D+02
 0.270548828545287D+03 0.546943711402100D+02 0.229436943596837D+03 0.961698079531502D+02
 0.000000000000000D+00 0.000000000000000D+00 0.000000000000000D+00 0.000000000000000D+00
 0.400902572211754D+03 0.000000000000000D+00 0.000000000000000D+00 0.400902572211754D+03
 0.365963360514333D+03 0.000000000000000D+00 0.000000000000000D+00 -.365963360514333D+03
 0.305475472035524D+03 -.158898288843222D+03 -.243984189032813D+03 -.149352594896458D+02
 0.118970476114101D+03 0.632582626194800D+02 0.201767275468611D+02 -.987181141568277D+02
 0.329163246343833D+02 0.264551432261058D+02 -.882806632109117D+01 0.174835656933233D+02
 0.267340900821794D+03 0.461398528956429D+02 0.227548649570220D+03 0.961698079531502D+02
 0.421627591202850D+02 0.230450301019929D+02 0.508687823682266D+01 0.349392116974203D+02
0.158864708377D-04 0.000000000000D+00 0.000000000000D+00 0.976892699801D-09 0.000000000000D+00  7 2 -2 23 -13 13 23 21 0 0.38693948D+00 0.80228706D-02 0.10578575D+06 0.10578575D+06 0.10578575D+06 0.11197230D+01  1  2  2  2  7  2       -2 0.625554765148D-03 0.100000000000D+01
-.870181058915D-06 0.000000000000D+00 -.610082310205D-07 0.976892699801D-09 0.000000000000D+00  7 2 -2 23 -13 13 23 21 2 0.38693948D+00 0.80228706D-02 0.10578575D+06 0.10578575D+06 0.10578575D+06 0.11197230D+01  1  2  3  2  7  2       -2 -.429604416364D-04 0.100000000000D+01
0.997350746277D-06 0.000000000000D+00 0.000000000000D+00 0.976892699801D-09 0.000000000000D+00  7 2 -2 23 -13 13 23 21 2 0.38693948D+00 0.80228706D-02 0.10578575D+06 0.10578575D+06 0.10578575D+06 0.11197230D+01  1  2 15  2  7  2       -2 0.492387510478D-04 0.100000000000D+01
-.242053528493D-05 0.000000000000D+00 0.000000000000D+00 0.976892699801D-09 0.000000000000D+00  7 2 -2 23 -13 13 23 21 2 0.38693948D+00 0.80228706D-02 0.10578575D+06 0.10578575D+06 0.10578575D+06 0.11197230D+01  1  2  4  2  7  2       -2 -.119500722030D-03 0.100000000000D+01
  </mgrwgt>
  </event>
  <event>
  8     66 0.29152272E-05 0.28785400E+03 0.75467711E-02 0.97378756E-01
        2 -1    0    0  501    0 0.00000000E+00 0.00000000E+00 0.56309143E+03 0.56309152E+03 0.32000000E+00 0.0000E+00 0.9000E+01
       -2 -1    0    0    0  501 0.00000000E+00 0.00000000E+00 -.18854412E+03 0.18854440E+03 0.32000000E+00 0.0000E+00 0.9000E+01
       25  2    1    2    0    0 0.18181061E+03 0.14415032E+03 0.32110636E+03 0.49667396E+03 0.29956854E+03 0.0000E+00 0.0000E+00
       23  2    3    3    0    0 -.17736139E+00 -.40703269E+01 0.46682782E+01 0.92276513E+02 0.92068252E+02 0.0000E+00 0.0000E+00
       23  1    1    2    0    0 -.18181061E+03 -.14415032E+03 0.53440943E+02 0.25496196E+03 0.91188000E+02 0.0000E+00 0.9000E+01
      -11  1    4    4    0    0 0.37014313E+02 0.12613139E+01 0.29407578E+02 0.47291182E+02 0.51099893E-03 0.0000E+00 0.9000E+01
       11  1    4    4    0    0 -.37191674E+02 -.53316409E+01 -.24739300E+02 0.44985331E+02 0.51099893E-03 0.0000E+00 0.9000E+01
       23  1    3    3    0    0 0.18198797E+03 0.14822065E+03 0.31643808E+03 0.40439745E+03 0.91188000E+02 0.0000E+00 0.9000E+01
#aMCatNLO 1  0  0  1  2 0.18591141D+03 0.00000000D+00  -5  7  0 0.00000000D+00 0.00000000D+00 0.00000000D+00 0.00000000D+00 0.00000000D+00
  <mgrwgt>
 0.7491830722D-03    3    2    0
 0.325833879772314D+03 0.000000000000000D+00 0.000000000000000D+00 0.325833879772314D+03
 0.325833879772314D+03 0.000000000000000D+00 0.000000000000000D+00 -.325833879772314D+03
 0.263358745432552D+03 -.181810611849604D+03 -.144150322212893D+03 -.849009038620864D+02
 0.376437557826318D+02 0.370143128413566D+02 0.126131394772809D+01 0.673810666507121D+01
 0.661052010805881D+02 -.371916742341892D+02 -.533164085526194D+01 -.543898021999845D+02
 0.284560057248856D+03 0.181987973242437D+03 0.148220649120427D+03 0.132552599397000D+03
 0.000000000000000D+00 0.000000000000000D+00 0.000000000000000D+00 -.000000000000000D+00
 0.351297786650996D+03 0.000000000000000D+00 0.000000000000000D+00 0.351297786650996D+03
 0.103210359714393D+04 0.000000000000000D+00 0.000000000000000D+00 -.103210359714393D+04
 0.331006606654453D+03 -.264106629719956D+03 -.155851361772243D+03 -.849009038620864D+02
 0.286405086789981D+02 0.278365722588960D+02 -.435985911751764D-01 0.673810666507121D+01
 0.794613783330714D+02 -.573468696517695D+02 -.819735349860129D+01 -.543898021999845D+02
 0.238559509227652D+03 0.109556669769048D+03 0.137922197637481D+03 0.132552599397000D+03
 0.705733380900751D+03 0.184060257343781D+03 0.261701162245388D+02 -.680805810492933D+03
0.106773323809D-04 0.000000000000D+00 0.000000000000D+00 0.249220666204D-06 0.000000000000D+00  7 2 -2 23 -11 11 23 21 0 0.86629479D-01 0.29006816D-01 0.82859928D+05 0.82859928D+05 0.82859928D+05 0.11284850D+01  1  2  2  1  7  1        2 0.740518926484D-03 0.100000000000D+01
-.582107307527D-06 0.000000000000D+00 -.410037677488D-07 0.249220666204D-06 0.000000000000D+00  7 2 -2 23 -11 11 23 21 2 0.86629479D-01 0.29006816D-01 0.82859928D+05 0.82859928D+05 0.82859928D+05 0.11284850D+01  1  2  3  1  7  1        2 -.514124227794D-04 0.100000000000D+01
0.680205437378D-06 0.000000000000D+00 0.000000000000D+00 0.249220666204D-06 0.000000000000D+00  7 2 -2 23 -11 11 23 21 2 0.86629479D-01 0.29006816D-01 0.82859928D+05 0.82859928D+05 0.82859928D+05 0.11284850D+01  1  2 15  1  7  1        2 0.600765684799D-04 0.100000000000D+01
  </mgrwgt>
  </event>
  <event>
  8     66 0.29152272E-05 0.23860374E+03 0.75467711E-02 0.10154972E+00
        2 -1    0    0  501    0 0.00000000E+00 0.00000000E+00 0.29650885E+04 0.29650885E+04 0.32000000E+00 0.0000E+00 0.9000E+01
       -2 -1    0    0    0  501 0.00000000E+00 0.00000000E+00 -.89305401E+02 0.89305975E+02 0.32000000E+00 0.0000E+00 0.9000E+01
       25  2    1    2    0    0 0.66779072E+02 -.14882618E+03 0.28443913E+04 0.28648968E+04 0.30077101E+03 0.0000E+00 0.0000E+00
       23  2    3    3    0    0 0.35165892E+02 -.16611989E+03 0.10519273E+04 0.10697531E+04 0.94806205E+02 0.0000E+00 0.0000E+00
       23  1    1    2    0    0 -.66779072E+02 0.14882618E+03 0.31391805E+02 0.18949769E+03 0.91188000E+02 0.0000E+00 0.9000E+01
      -11  1    4    4    0    0 0.46449856E+02 -.17295632E+03 0.92771500E+03 0.94484210E+03 0.51099893E-03 0.0000E+00 0.9000E+01
       11  1    4    4    0    0 -.11283964E+02 0.68364306E+01 0.12421227E+03 0.12491098E+03 0.51099893E-03 0.0000E+00 0.9000E+01
       23  1    3    3    0    0 0.31613180E+02 0.17293709E+02 0.17924640E+04 0.17951437E+04 0.91188000E+02 0.0000E+00 0.9000E+01
#aMCatNLO 1  0  0  1  2 0.93268848D+02 0.00000000D+00  -5  7  0 0.00000000D+00 0.00000000D+00 0.00000000D+00 0.00000000D+00 0.00000000D+00
  <mgrwgt>
 0.5822579216D-03    4    2    0
 0.514586553320558D+03 0.000000000000000D+00 0.000000000000000D+00 0.514586553320558D+03
 0.514586553320558D+03 0.000000000000000D+00 0.000000000000000D+00 -.514586553320558D+03
 0.474676867167344D+03 -.667790723000352D+02 0.148826179176062D+03 -.436341839358095D+03
 0.211833552931978D+03 0.464498561925133D+02 -.172956318374311D+03 0.113145821583848D+03
 0.236304845138263D+02 -.112839641856034D+02 0.683643056361375D+01 0.196044680561623D+02
 0.319032202027967D+03 0.316131802931254D+02 0.172937086346356D+02 0.303591549718085D+03
 0.000000000000000D+00 0.000000000000000D+00 0.000000000000000D+00 -.000000000000000D+00
 0.532417683726179D+03 0.000000000000000D+00 0.000000000000000D+00 0.532417683726179D+03
 0.655018982977989D+03 0.000000000000000D+00 0.000000000000000D+00 -.655018982977989D+03
 0.471051742320541D+03 -.963238775747818D+02 0.117906753130471D+03 -.436341839358095D+03
 0.221125858290812D+03 0.329240927037963D+02 -.187111390306940D+03 0.113145821583848D+03
 0.239858627496294D+02 -.127715111347809D+02 0.527967304036316D+01 0.196044680561623D+02
 0.317227247530726D+03 0.117362712593506D+02 -.350800635957529D+01 0.303591549718085D+03
 0.154045955812461D+03 0.644350247464158D+02 0.674329704956806D+02 -.122601299251811D+03
0.686888055033D-04 0.000000000000D+00 0.000000000000D+00 0.111921264165D-06 0.000000000000D+00  7 2 -2 23 -11 11 23 21 0 0.45616751D+00 0.13739338D-01 0.56931744D+05 0.56931744D+05 0.56931744D+05 0.11423686D+01  1  2  2  1  7  1        2 0.654837193001D-03 0.100000000000D+01
-.107541698406D-05 0.000000000000D+00 -.263783099310D-06 0.111921264165D-06 0.000000000000D+00  7 2 -2 23 -11 11 23 21 2 0.45616751D+00 0.13739338D-01 0.56931744D+05 0.56931744D+05 0.56931744D+05 0.11423686D+01  1  2  3  1  7  1        2 -.133794047530D-04 0.100000000000D+01
0.409562552811D-05 0.000000000000D+00 0.000000000000D+00 0.111921264165D-06 0.000000000000D+00  7 2 -2 23 -11 11 23 21 2 0.45616751D+00 0.13739338D-01 0.56931744D+05 0.56931744D+05 0.56931744D+05 0.11423686D+01  1  2 15  1  7  1        2 0.509542181956D-04 0.100000000000D+01
-.885402421859D-05 0.000000000000D+00 0.000000000000D+00 0.111921264165D-06 0.000000000000D+00  7 2 -2 23 -11 11 23 21 2 0.45616751D+00 0.13739338D-01 0.56931744D+05 0.56931744D+05 0.56931744D+05 0.11423686D+01  1  2  4  1  7  1        2 -.110154084851D-03 0.100000000000D+01
  </mgrwgt>
  </event>
  <event>
  8     66 0.29152272E-05 0.29929682E+03 0.75467711E-02 0.10064853E+00
        2 -1    0    0  501    0 0.00000000E+00 0.00000000E+00 0.83997971E+03 0.83997977E+03 0.32000000E+00 0.0000E+00 0.9000E+01
       -2 -1    0    0    0  501 0.00000000E+00 0.00000000E+00 -.11184423E+03 0.11184469E+03 0.32000000E+00 0.0000E+00 0.9000E+01
       25  2    1    2    0    0 -.13580629E+03 0.16506130E+03 0.53419742E+03 0.64914344E+03 0.30055239E+03 0.0000E+00 0.0000E+00
       23  2    3    3    0    0 -.18902344E+03 0.15532603E+03 0.34659597E+03 0.43365238E+03 0.89830880E+02 0.0000E+00 0.0000E+00
       23  1    1    2    0    0 0.13580629E+03 -.16506130E+03 0.19393806E+03 0.30268102E+03 0.91188000E+02 0.0000E+00 0.9000E+01
      -11  1    4    4    0    0 -.51539052E+02 0.98980998E+02 0.16132244E+03 0.19615923E+03 0.51099893E-03 0.0000E+00 0.9000E+01
       11  1    4    4    0    0 -.13748438E+03 0.56345028E+02 0.18527352E+03 0.23749315E+03 0.51099893E-03 0.0000E+00 0.9000E+01
       23  1    3    3    0    0 0.53217145E+02 0.97352749E+01 0.18760145E+03 0.21549106E+03 0.91188000E+02 0.0000E+00 0.9000E+01
#aMCatNLO 1  0  0  2  1 0.85555964D+01 0.00000000D+00  -5  7  0 0.00000000D+00 0.00000000D+00 0.00000000D+00 0.00000000D+00 0.00000000D+00
  <mgrwgt>
 0.3179399863D-03    6    2    0
 0.306507967537291D+03 0.000000000000000D+00 0.000000000000000D+00 0.306507967537291D+03
 0.306507967537291D+03 0.000000000000000D+00 0.000000000000000D+00 -.306507967537291D+03
 0.239612083612690D+03 0.135806292143451D+03 -.165061300811698D+03 -.583962092760535D+02
 0.112957189639195D+03 -.515390523882114D+02 0.989809975138370D+02 0.174875641893345D+02
 0.148687106312881D+03 -.137484384441118D+03 0.563450283453784D+02 0.558008954260654D+01
 0.111759555509816D+03 0.532171446858783D+02 0.973527495248254D+01 0.353285555441124D+02
 0.000000000000000D+00 -.000000000000000D+00 0.000000000000000D+00 0.000000000000000D+00
 0.357616940159671D+03 0.000000000000000D+00 0.000000000000000D+00 0.357616940159671D+03
 0.306896076804650D+03 0.000000000000000D+00 0.000000000000000D+00 -.306896076804650D+03
 0.242568439919599D+03 0.137433518473806D+03 -.168006272035080D+03 -.583962092760535D+02
 0.111411179405351D+03 -.507818710007641D+02 0.976106427234094D+02 0.174875641893345D+02
 0.147085297115913D+03 -.136486234123626D+03 0.545385654663151D+02 0.558008954260654D+01
 0.112010719092291D+03 0.539723076694762D+02 0.836857309044145D+01 0.353285555441124D+02
 0.514373814311671D+02 -.413772101889209D+01 0.748849075491415D+01 0.507208633550214D+02
0.318804070050D-05 0.000000000000D+00 0.000000000000D+00 0.751485968421D-07 0.000000000000D+00  7 2 -2 23 -11 11 23 21 0 0.12922769D+00 0.17206845D-01 0.89578587D+05 0.89578587D+05 0.89578587D+05 0.11256655D+01  1  2  2  2  7  2       -2 0.328747798237D-03 0.100000000000D+01
-.176991311217D-06 0.000000000000D+00 -.122429157203D-07 0.751485968421D-07 0.000000000000D+00  7 2 -2 23 -11 11 23 21 2 0.12922769D+00 0.17206845D-01 0.89578587D+05 0.89578587D+05 0.89578587D+05 0.11256655D+01  1  2  3  2  7  2       -2 -.231264850562D-04 0.100000000000D+01
0.210158206603D-06 0.000000000000D+00 0.000000000000D+00 0.751485968421D-07 0.000000000000D+00  7 2 -2 23 -11 11 23 21 2 0.12922769D+00 0.17206845D-01 0.89578587D+05 0.89578587D+05 0.89578587D+05 0.11256655D+01  1  2 15  2  7  2       -2 0.274602215838D-04 0.100000000000D+01
-.116437931235D-06 0.000000000000D+00 0.000000000000D+00 0.751485968421D-07 0.000000000000D+00  7 2 -2 23 -11 11 23 21 2 0.12922769D+00 0.17206845D-01 0.89578587D+05 0.89578587D+05 0.89578587D+05 0.11256655D+01  1  2  4  2  7  2       -2 -.152143066129D-04 0.100000000000D+01
0.121770461644D-09 0.000000000000D+00 0.000000000000D+00 0.751485968421D-07 0.701405140094D-08  7 2 -2 23 -11 11 23 21 2 0.15077589D+00 0.17228633D-01 0.92201181D+05 0.92201181D+05 0.92201181D+05 0.11246274D+01  1  2 11  2  7  2       -2 0.129059472475D-07 0.100000000000D+01
0.426937639452D-10 0.000000000000D+00 0.000000000000D+00 0.751485968421D-07 0.181568864617D-11  7 2 21 23 -11 11 23 2 2 0.15077589D+00 0.17228633D-01 0.92201181D+05 0.92201181D+05 0.92201181D+05 0.11246274D+01  1  2 11  4  7  2       -2 0.598522023865D-07 0.100000000000D+01
  </mgrwgt>
  </event>
  <event>
  8     66 0.29152272E-05 0.18287905E+03 0.75467711E-02 0.96107248E-01
        2 -1    0    0  501    0 0.00000000E+00 0.00000000E+00 0.22806761E+04 0.22806762E+04 0.32000000E+00 0.0000E+00 0.9000E+01
       -2 -1    0    0    0  501 0.00000000E+00 0.00000000E+00 -.20224892E+03 0.20224918E+03 0.32000000E+00 0.0000E+00 0.9000E+01
       25  2    1    2    0    0 -.12078522E+03 0.25800601E+03 0.21382462E+04 0.21778848E+04 0.29988191E+03 0.0000E+00 0.0000E+00
       23  2    3    3    0    0 0.35911385E+02 0.38149536E+02 0.28582749E+03 0.30367535E+03 0.88183601E+02 0.0000E+00 0.0000E+00
       23  1    1    2    0    0 0.12078522E+03 -.25800601E+03 -.59818994E+02 0.30504054E+03 0.91188000E+02 0.0000E+00 0.9000E+01
      -13  1    4    4    0    0 0.35134108E+01 0.10940439E+02 0.24369817E+03 0.24396894E+03 0.10565837E+00 0.0000E+00 0.9000E+01
       13  1    4    4    0    0 0.32397974E+02 0.27209097E+02 0.42129324E+02 0.59706405E+02 0.10565837E+00 0.0000E+00 0.9000E+01
       23  1    3    3    0    0 -.15669660E+03 0.21985647E+03 0.18524187E+04 0.18742094E+04 0.91188000E+02 0.0000E+00 0.9000E+01
#aMCatNLO 1  0  0  2  1 0.22109348D+03 0.00000000D+00  -5  7  0 0.00000000D+00 0.00000000D+00 0.00000000D+00 0.00000000D+00 0.00000000D+00
  <mgrwgt>
 0.4539106164D-03    9    2    0
 0.679164659460618D+03 0.000000000000000D+00 0.000000000000000D+00 0.679164659460618D+03
 0.679164659460618D+03 0.000000000000000D+00 0.000000000000000D+00 -.679164659460618D+03
 0.649122641215953D+03 0.120785218945390D+03 -.258006008095450D+03 -.576097893301251D+03
 0.730660968882355D+02 0.351336930982112D+01 0.109404156159420D+02 0.721568988851675D+02
 0.446752900738389D+02 0.323980156380759D+02 0.272091200668799D+02 -.143497007314701D+02
 0.591465290743209D+03 -.156696603893287D+03 0.219856472412629D+03 0.518290695147553D+03
 0.000000000000000D+00 -.000000000000000D+00 0.000000000000000D+00 -.000000000000000D+00
 0.769778854772301D+03 0.000000000000000D+00 0.000000000000000D+00 0.769778854772301D+03
 0.837724863475853D+03 0.000000000000000D+00 0.000000000000000D+00 -.837724863475853D+03
 0.701878716986644D+03 0.135130257002670D+03 -.366291568277336D+03 -.576097893301251D+03
 0.723374305319577D+02 0.505727533318762D+01 -.713978603221110D+00 0.721568988851675D+02
 0.415653280295471D+02 0.333137252643210D+02 0.202967557046549D+02 -.143497007314701D+02
 0.560423765067322D+03 -.144465755831558D+03 0.127530176129867D+03 0.518290695147553D+03
 0.231298477632684D+03 -.290355017686199D+02 0.219178615046036D+03 -.679460087035519D+02
0.909756991667D-04 0.000000000000D+00 0.000000000000D+00 0.702700555858D-06 0.000000000000D+00  7 2 -2 23 -13 13 23 21 0 0.35087327D+00 0.31115240D-01 0.10172369D+06 0.10172369D+06 0.10172369D+06 0.11211135D+01  1  2  2  2  7  2       -2 0.540090065947D-03 0.100000000000D+01
-.154335478574D-05 0.000000000000D+00 -.349370639252D-06 0.702700555858D-06 0.000000000000D+00  7 2 -2 23 -13 13 23 21 2 0.35087327D+00 0.31115240D-01 0.10172369D+06 0.10172369D+06 0.10172369D+06 0.11211135D+01  1  2  3  2  7  2       -2 -.115161075454D-04 0.100000000000D+01
0.547257852401D-05 0.000000000000D+00 0.000000000000D+00 0.702700555858D-06 0.000000000000D+00  7 2 -2 23 -13 13 23 21 2 0.35087327D+00 0.31115240D-01 0.10172369D+06 0.10172369D+06 0.10172369D+06 0.11211135D+01  1  2 15  2  7  2       -2 0.408349417876D-04 0.100000000000D+01
0.128714740078D-04 0.000000000000D+00 0.000000000000D+00 0.702700555858D-06 0.000000000000D+00  7 2 -2 23 -13 13 23 21 2 0.35087327D+00 0.40063056D-01 0.19330522D+06 0.19330522D+06 0.19330522D+06 0.10989628D+01  1  2 12  2  7  2       -2 0.563130428170D-04 0.100000000000D+01
-.565304897261D-04 0.000000000000D+00 0.000000000000D+00 0.702700555858D-06 0.000000000000D+00  7 2 -2 23 -13 13 23 21 2 0.35087327D+00 0.31115240D-01 0.10172369D+06 0.10172369D+06 0.10172369D+06 0.11211135D+01  1  2  4  2  7  2       -2 -.421815648156D-03 0.100000000000D+01
-.463915939585D-04 0.000000000000D+00 -.410036566617D-04 0.702700555858D-06 0.000000000000D+00  7 2 -2 23 -13 13 23 21 2 0.35087327D+00 0.44422645D-01 0.10172369D+06 0.10172369D+06 0.10172369D+06 0.11211135D+01  1  2  5  2  7  2       -2 -.180260466081D-03 0.100000000000D+01
0.596391158697D-04 0.000000000000D+00 0.385351397920D-04 0.702700555858D-06 0.000000000000D+00  7 2 -2 23 -13 13 23 21 2 0.35087327D+00 0.31115240D-01 0.10172369D+06 0.10172369D+06 0.10172369D+06 0.11211135D+01  1  2  6  2  7  2       -2 0.445011398944D-03 0.100000000000D+01
0.439148047015D-06 0.000000000000D+00 0.000000000000D+00 0.702700555858D-06 0.000000000000D+00  7 2 21 23 -13 13 23 2 2 0.35087327D+00 0.40063056D-01 0.19330522D+06 0.19330522D+06 0.19330522D+06 0.10989628D+01  1  2 12  4  7  2       -2 0.211670610936D-04 0.100000000000D+01
-.840197977272D-06 0.000000000000D+00 -.179336243590D-05 0.702700555858D-06 0.000000000000D+00  7 2 21 23 -13 13 23 2 2 0.35087327D+00 0.44422645D-01 0.10172369D+06 0.10172369D+06 0.10172369D+06 0.11211135D+01  1  2  5  4  7  2       -2 -.359136723749D-04 0.100000000000D+01
  </mgrwgt>
  </event>
  <event>
  9     66 0.29152272E-05 0.22708224E+03 0.75467711E-02 0.10155087E+00
       21 -1    0    0  501  502 0.00000000E+00 0.00000000E+00 0.94070055E+03 0.94070085E+03 0.75000000E+00 0.0000E+00 0.9000E+01
       -4 -1    0    0    0  501 0.00000000E+00 0.00000000E+00 -.17554690E+03 0.17555374E+03 0.15500000E+01 0.0000E+00 0.9000E+01
       25  2    1    2    0    0 0.12434066E+03 0.19710638E+03 0.41882975E+03 0.56585685E+03 0.30077249E+03 0.0000E+00 0.0000E+00
       23  2    3    3    0    0 0.11235934E+03 0.16012546E+03 0.41346854E+03 0.46658382E+03 0.92083903E+02 0.0000E+00 0.0000E+00
       23  1    1    2    0    0 -.64318817E+02 -.12126268E+03 -.25001802E+02 0.16667900E+03 0.91188000E+02 0.0000E+00 0.9000E+01
      -13  1    4    4    0    0 0.65883069E+02 0.40044430E+02 0.90465003E+02 0.11886153E+03 0.10565837E+00 0.0000E+00 0.9000E+01
       13  1    4    4    0    0 0.46476275E+02 0.12008103E+03 0.32300353E+03 0.34772229E+03 0.10565837E+00 0.0000E+00 0.9000E+01
       23  1    3    3    0    0 0.11981322E+02 0.36980923E+02 0.53612109E+01 0.99273031E+02 0.91188000E+02 0.0000E+00 0.9000E+01
       -4  1    1    2    0  502 -.60021847E+02 -.75843704E+02 0.37132570E+03 0.38371874E+03 0.15500000E+01 0.0000E+00 0.9000E+01
#aMCatNLO 2  0  0  1  2 0.96720679D+02 0.00000000D+00  -5  7  0 0.00000000D+00 0.00000000D+00 0.00000000D+00 0.00000000D+00 0.00000000D+00
  <mgrwgt>
 0.3779840855D-05    2    2    0
 0.305021895053209D+03 0.000000000000000D+00 0.000000000000000D+00 0.305021895053209D+03
 0.305021895053209D+03 0.000000000000000D+00 0.000000000000000D+00 -.305021895053209D+03
 0.237691615628223D+03 -.863831176182797D+02 -.149143161398466D+03 -.135927654267160D+03
 0.728653414460935D+02 0.582489634696699D+02 0.303978254675932D+02 0.315021974726621D+02
 0.189518092406300D+03 0.271180385160928D+02 0.956200650167974D+02 0.161364563961689D+03
 0.109968740625802D+03 0.101611563251707D+01 0.231252709140755D+02 -.569391071671915D+02
 0.000000000000000D+00 -.000000000000000D+00 -.000000000000000D+00 0.000000000000000D+00
 0.515849187202696D+03 0.000000000000000D+00 0.000000000000000D+00 0.515849187202696D+03
 0.320129023919662D+03 0.000000000000000D+00 0.000000000000000D+00 -.320129023919662D+03
 0.213619113184794D+03 -.643188178637524D+02 -.121262676235909D+03 -.135927654267160D+03
 0.832857634170757D+02 0.658830934930425D+02 0.400443246184217D+02 0.315021974726621D+02
 0.206441378258957D+03 0.464762498184921D+02 0.120081132396896D+03 0.161364563961689D+03
 0.114317339275631D+03 0.119813220452443D+02 0.369809236243634D+02 -.569391071671915D+02
 0.218314616985901D+03 -.600218474930265D+02 -.758437044037731D+02 0.195720163283034D+03
-.355297053351D-06 0.000000000000D+00 0.000000000000D+00 0.102782786614D-06 0.000000000000D+00  7 21 -4 23 -13 13 23 -4 2 0.14556876D+00 0.25733033D-01 0.80231046D+05 0.80231046D+05 0.80231046D+05 0.11296574D+01  1  2 13  3  7  1        4 -.980298942487D-05 0.100000000000D+01
0.531433471602D-06 0.000000000000D+00 0.000000000000D+00 0.102782786614D-06 0.538235010475D-11  7 21 -4 23 -13 13 23 -4 2 0.14472250D+00 0.27007539D-01 0.80231046D+05 0.80231046D+05 0.80231046D+05 0.11296574D+01  1  2  1  3  7  1        4 0.135828302801D-04 0.100000000000D+01
  </mgrwgt>
  </event>
  <event>
  8     66 0.29152272E-05 0.33840337E+03 0.75467711E-02 0.99112555E-01
        2 -1    0    0  501    0 0.00000000E+00 0.00000000E+00 0.39096276E+03 0.39096289E+03 0.32000000E+00 0.0000E+00 0.9000E+01
       -2 -1    0    0    0  501 0.00000000E+00 0.00000000E+00 -.34483280E+03 0.34483295E+03 0.32000000E+00 0.0000E+00 0.9000E+01
       25  2    1    2    0    0 -.21671105E+03 0.20438962E+03 0.18469364E+02 0.42303530E+03 0.29979819E+03 0.0000E+00 0.0000E+00
       23  2    3    3    0    0 -.13962207E+03 0.26053376E+02 0.91028237E+02 0.19648163E+03 0.10072630E+03 0.0000E+00 0.0000E+00
       23  1    1    2    0    0 0.21671105E+03 -.20438962E+03 0.27660593E+02 0.31276054E+03 0.91188000E+02 0.0000E+00 0.9000E+01
      -13  1    4    4    0    0 -.11973789E+02 -.12498674E+02 0.56000784E+02 0.58614737E+02 0.10565837E+00 0.0000E+00 0.9000E+01
       13  1    4    4    0    0 -.12764829E+03 0.38552050E+02 0.35027453E+02 0.13786689E+03 0.10565837E+00 0.0000E+00 0.9000E+01
       23  1    3    3    0    0 -.77088975E+02 0.17833624E+03 -.72558873E+02 0.22655367E+03 0.91188000E+02 0.0000E+00 0.9000E+01
#aMCatNLO 1  0  0  1  1 0.89460711D+01 0.00000000D+00  -5  7  0 0.00000000D+00 0.00000000D+00 0.00000000D+00 0.00000000D+00 0.00000000D+00
  <mgrwgt>
 0.1817121577D-03    6    2    0
 0.367174190657951D+03 0.000000000000000D+00 0.000000000000000D+00 0.367174190657951D+03
 0.367174190657951D+03 0.000000000000000D+00 0.000000000000000D+00 -.367174190657951D+03
 0.311639445410666D+03 0.216711049244993D+03 -.204389620047900D+03 0.806826769987858D+01
 0.552123495337478D+02 -.119736767309473D+02 -.124987290801537D+02 0.524291558005699D+02
 0.135938362855851D+03 -.127648391729512D+03 0.385520828651449D+02 0.264360263949990D+02
 0.231558223515637D+03 -.770889807845336D+02 0.178336266262909D+03 -.869334498954475D+02
 0.000000000000000D+00 -.000000000000000D+00 -.000000000000000D+00 -.000000000000000D+00
 0.368231871459270D+03 0.000000000000000D+00 0.000000000000000D+00 0.368231871459270D+03
 0.386618507881046D+03 0.000000000000000D+00 0.000000000000000D+00 -.386618507881046D+03
 0.309346199550091D+03 0.216952450822598D+03 -.200614947026576D+03 0.806826769987858D+01
 0.550551836023074D+02 -.119308113979502D+02 -.118284657885072D+02 0.524291558005699D+02
 0.136317898649361D+03 -.127542554997901D+03 0.402069977146743D+02 0.264360263949990D+02
 0.233683589467607D+03 -.769081229683614D+02 0.181164247447515D+03 -.869334498954475D+02
 0.204475080709502D+02 -.570961458385401D+00 -.892783234710577D+01 -.183866364217761D+02
0.688366078488D-05 0.000000000000D+00 0.000000000000D+00 0.766366015177D-08 0.000000000000D+00  7 2 -2 23 -13 13 23 21 0 0.60148138D-01 0.53051222D-01 0.11451684D+06 0.11451684D+06 0.11451684D+06 0.11169229D+01  1  2  2  1  7  1        2 0.232626775688D-03 0.100000000000D+01
-.379329711788D-06 0.000000000000D+00 -.264350699234D-07 0.766366015177D-08 0.000000000000D+00  7 2 -2 23 -13 13 23 21 2 0.60148138D-01 0.53051222D-01 0.11451684D+06 0.11451684D+06 0.11451684D+06 0.11169229D+01  1  2  3  1  7  1        2 -.159920264415D-04 0.100000000000D+01
0.446293403136D-06 0.000000000000D+00 0.000000000000D+00 0.766366015177D-08 0.000000000000D+00  7 2 -2 23 -13 13 23 21 2 0.60148138D-01 0.53051222D-01 0.11451684D+06 0.11451684D+06 0.11451684D+06 0.11169229D+01  1  2 15  1  7  1        2 0.188151248948D-04 0.100000000000D+01
-.127520523194D-05 0.000000000000D+00 0.000000000000D+00 0.766366015177D-08 0.000000000000D+00  7 2 -2 23 -13 13 23 21 2 0.60148138D-01 0.53051222D-01 0.11451684D+06 0.11451684D+06 0.11451684D+06 0.11169229D+01  1  2  4  1  7  1        2 -.537609239503D-04 0.100000000000D+01
0.552418575726D-09 0.000000000000D+00 0.000000000000D+00 0.766366015177D-08 0.636948320107D-09  7 2 -2 23 -13 13 23 21 2 0.60321401D-01 0.55860637D-01 0.11752178D+06 0.11752178D+06 0.11752178D+06 0.11160130D+01  1  2 11  1  7  1        2 0.208932670717D-07 0.100000000000D+01
0.234773452778D-10 0.000000000000D+00 0.000000000000D+00 0.766366015177D-08 0.351404993781D-12  7 21 -2 23 -13 13 23 -2 2 0.60321401D-01 0.55860637D-01 0.11752178D+06 0.11752178D+06 0.11752178D+06 0.11160130D+01  1  2 11  3  7  1        2 0.231421691441D-08 0.100000000000D+01
  </mgrwgt>
  </event>
  <event>
  8     66 0.29152272E-05 0.32262755E+03 0.75467711E-02 0.97426248E-01
        2 -1    0    0  501    0 0.00000000E+00 0.00000000E+00 0.24935165E+04 0.24935165E+04 0.32000000E+00 0.0000E+00 0.9000E+01
       -2 -1    0    0    0  501 0.00000000E+00 0.00000000E+00 -.68792212E+02 0.68792956E+02 0.32000000E+00 0.0000E+00 0.9000E+01
       25  2    1    2    0    0 0.16992045E+03 0.21618124E+03 0.20418216E+04 0.20821668E+04 0.30129019E+03 0.0000E+00 0.0000E+00
       23  2    3    3    0    0 -.32981461E+02 0.82926038E+02 0.40876509E+03 0.42865085E+03 0.93210218E+02 0.0000E+00 0.0000E+00
       23  1    1    2    0    0 -.16992045E+03 -.21618124E+03 0.38290270E+03 0.48014270E+03 0.91188000E+02 0.0000E+00 0.9000E+01
      -13  1    4    4    0    0 -.36837057E+02 0.45110833E+02 0.87286507E+02 0.10493284E+03 0.10565837E+00 0.0000E+00 0.9000E+01
       13  1    4    4    0    0 0.38555957E+01 0.37815205E+02 0.32147859E+03 0.32371801E+03 0.10565837E+00 0.0000E+00 0.9000E+01
       23  1    3    3    0    0 0.20290191E+03 0.13325520E+03 0.16330565E+04 0.16535159E+04 0.91188000E+02 0.0000E+00 0.9000E+01
#aMCatNLO 1  0  0  2  2 0.12912735D+03 0.00000000D+00  -5  7  0 0.00000000D+00 0.00000000D+00 0.00000000D+00 0.00000000D+00 0.00000000D+00
  <mgrwgt>
 0.7520060574D-03    4    2    0
 0.414168439609291D+03 0.000000000000000D+00 0.000000000000000D+00 0.414168439609291D+03
 0.414168439609291D+03 0.000000000000000D+00 0.000000000000000D+00 -.414168439609291D+03
 0.364393688700453D+03 -.169920452947464D+03 -.216181239881640D+03 -.221043480370012D+03
 0.690838643527814D+02 -.368371090967206D+02 0.451108416976233D+02 -.371566907654835D+02
 0.603242134380812D+02 0.385564778410973D+01 0.378151959103243D+02 0.468418153507297D+02
 0.334535112727267D+03 0.202901914260075D+03 0.133255202273693D+03 0.211358355784766D+03
 0.000000000000000D+00 -.000000000000000D+00 -.000000000000000D+00 0.000000000000000D+00
 0.569772711521890D+03 0.000000000000000D+00 0.000000000000000D+00 0.569772711521890D+03
 0.446849246866425D+03 0.000000000000000D+00 0.000000000000000D+00 -.446849246866425D+03
 0.342125407860093D+03 -.115183051439398D+03 -.215886979242511D+03 -.221043480370012D+03
 0.642136684505398D+02 -.265099139669501D+02 0.451663592588443D+02 -.371566907654835D+02
 0.616855087440828D+02 0.133083224301096D+02 0.378660121713484D+02 0.468418153507297D+02
 0.370316550272644D+03 0.257510131743616D+03 0.133548768437517D+03 0.211358355784766D+03
 0.178280823060954D+03 -.129125488767378D+03 -.694160625198425D+00 0.122923464655466D+03
0.316277442257D-04 0.000000000000D+00 0.000000000000D+00 0.533424996793D-07 0.000000000000D+00  7 2 -2 23 -13 13 23 21 0 0.38361799D+00 0.10583476D-01 0.10408854D+06 0.10408854D+06 0.10408854D+06 0.11202967D+01  1  2  2  2  7  2       -2 0.837824905044D-03 0.100000000000D+01
-.162381465880D-05 0.000000000000D+00 -.121458865603D-06 0.533424996793D-07 0.000000000000D+00  7 2 -2 23 -13 13 23 21 2 0.38361799D+00 0.10583476D-01 0.10408854D+06 0.10408854D+06 0.10408854D+06 0.11202967D+01  1  2  3  2  7  2       -2 -.539868066482D-04 0.100000000000D+01
0.200072005440D-05 0.000000000000D+00 0.000000000000D+00 0.533424996793D-07 0.000000000000D+00  7 2 -2 23 -13 13 23 21 2 0.38361799D+00 0.10583476D-01 0.10408854D+06 0.10408854D+06 0.10408854D+06 0.11202967D+01  1  2 15  2  7  2       -2 0.665177433572D-04 0.100000000000D+01
-.295816388188D-05 0.000000000000D+00 0.000000000000D+00 0.533424996793D-07 0.000000000000D+00  7 2 -2 23 -13 13 23 21 2 0.38361799D+00 0.10583476D-01 0.10408854D+06 0.10408854D+06 0.10408854D+06 0.11202967D+01  1  2  4  2  7  2       -2 -.983497843546D-04 0.100000000000D+01
  </mgrwgt>
  </event>
  <event>
  8     66 0.29152272E-05 0.43079138E+03 0.75467711E-02 0.89776623E-01
        2 -1    0    0  501    0 0.00000000E+00 0.00000000E+00 0.22375752E+04 0.22375753E+04 0.32000000E+00 0.0000E+00 0.9000E+01
       -2 -1    0    0    0  501 0.00000000E+00 0.00000000E+00 -.54537902E+03 0.54537912E+03 0.32000000E+00 0.0000E+00 0.9000E+01
       25  2    1    2    0    0 -.57451214E+03 0.42646861E+03 0.18832898E+04 0.20367830E+04 0.29960813E+03 0.0000E+00 0.0000E+00
       23  2    3    3    0    0 -.11754985E+03 0.17683635E+03 0.39830211E+03 0.46051071E+03 0.91304315E+02 0.0000E+00 0.0000E+00
       23  1    1    2    0    0 0.57451214E+03 -.42646861E+03 -.19109357E+03 0.74617135E+03 0.91188000E+02 0.0000E+00 0.9000E+01
      -13  1    4    4    0    0 -.47671638E+02 0.87160524E+01 0.70665039E+02 0.85686133E+02 0.10565837E+00 0.0000E+00 0.9000E+01
       13  1    4    4    0    0 -.69878214E+02 0.16812029E+03 0.32763707E+03 0.37482457E+03 0.10565837E+00 0.0000E+00 0.9000E+01
       23  1    3    3    0    0 -.45696229E+03 0.24963226E+03 0.14849877E+04 0.15762723E+04 0.91188000E+02 0.0000E+00 0.9000E+01
#aMCatNLO 1  0  0  2  1 0.88420663D+02 0.00000000D+00  -5  7  0 0.00000000D+00 0.00000000D+00 0.00000000D+00 0.00000000D+00 0.00000000D+00
  <mgrwgt>
 0.4804336961D-03    9    2    0
 0.110468400661332D+04 0.000000000000000D+00 0.000000000000000D+00 0.110468400661332D+04
 0.110468400661332D+04 0.000000000000000D+00 0.000000000000000D+00 -.110468400661332D+04
 0.108625118358602D+04 0.574512143048224D+03 -.426468606111469D+03 -.812210999672808D+03
 0.538076920398503D+02 -.476716079128884D+02 0.871583892131365D+01 0.233820374123581D+02
 0.221191745281829D+03 -.698782432457872D+02 0.168120508438926D+03 0.125611758780542D+03
 0.848117392318951D+03 -.456962291889549D+03 0.249632258751229D+03 0.663217203479907D+03
 0.000000000000000D+00 0.000000000000000D+00 -.000000000000000D+00 -.000000000000000D+00
 0.113479700690756D+04 0.000000000000000D+00 0.000000000000000D+00 0.113479700690756D+04
 0.117243938081134D+04 0.000000000000000D+00 0.000000000000000D+00 -.117243938081134D+04
 0.105981503096266D+04 0.533939398203969D+03 -.412449584272376D+03 -.812210999672808D+03
 0.557679279910887D+02 -.497432046057246D+02 0.943163370892643D+01 0.233820374123581D+02
 0.226209403723948D+03 -.783366461312991D+02 0.171043123983697D+03 0.125611758780542D+03
 0.869344275223933D+03 -.489431995547626D+03 0.260851452484331D+03 0.663217203479907D+03
 0.960997498172761D+02 0.835724480806807D+02 -.288766259045785D+02 -.376423739037804D+02
0.358768501008D-03 0.000000000000D+00 0.000000000000D+00 0.757517908281D-05 0.000000000000D+00  7 2 -2 23 -13 13 23 21 0 0.34424235D+00 0.83904474D-01 0.54792555D+06 0.54792555D+06 0.54792555D+06 0.10657123D+01  1  2  2  2  7  2       -2 0.279290466774D-03 0.100000000000D+01
-.160470361069D-04 0.000000000000D+00 -.137776550979D-05 0.757517908281D-05 0.000000000000D+00  7 2 -2 23 -13 13 23 21 2 0.34424235D+00 0.83904474D-01 0.54792555D+06 0.54792555D+06 0.54792555D+06 0.10657123D+01  1  2  3  2  7  2       -2 -.141878490983D-04 0.100000000000D+01
0.225373473137D-04 0.000000000000D+00 0.000000000000D+00 0.757517908281D-05 0.000000000000D+00  7 2 -2 23 -13 13 23 21 2 0.34424235D+00 0.83904474D-01 0.54792555D+06 0.54792555D+06 0.54792555D+06 0.10657123D+01  1  2 15  2  7  2       -2 0.199262019873D-04 0.100000000000D+01
0.961339254213D-03 0.000000000000D+00 0.000000000000D+00 0.757517908281D-05 0.000000000000D+00  7 2 -2 23 -13 13 23 21 2 0.34424235D+00 0.90142386D-01 0.61626788D+06 0.61626788D+06 0.61626788D+06 0.10621517D+01  1  2 12  2  7  2       -2 0.708952196975D-03 0.100000000000D+01
-.916305576225D-03 0.000000000000D+00 0.000000000000D+00 0.757517908281D-05 0.000000000000D+00  7 2 -2 23 -13 13 23 21 2 0.34424235D+00 0.83904474D-01 0.54792555D+06 0.54792555D+06 0.54792555D+06 0.10657123D+01  1  2  4  2  7  2       -2 -.810143702353D-03 0.100000000000D+01
-.271319541345D-02 0.000000000000D+00 -.535950559342D-03 0.757517908281D-05 0.000000000000D+00  7 2 -2 23 -13 13 23 21 2 0.34424235D+00 0.91259574D-01 0.54792555D+06 0.54792555D+06 0.54792555D+06 0.10657123D+01  1  2  5  2  7  2       -2 -.197292544382D-02 0.100000000000D+01
0.275040154888D-02 0.000000000000D+00 0.534063972051D-03 0.757517908281D-05 0.000000000000D+00  7 2 -2 23 -13 13 23 21 2 0.34424235D+00 0.83904474D-01 0.54792555D+06 0.54792555D+06 0.54792555D+06 0.10657123D+01  1  2  6  2  7  2       -2 0.243174389808D-02 0.100000000000D+01
0.121475429935D-04 0.000000000000D+00 0.000000000000D+00 0.757517908281D-05 0.000000000000D+00  7 2 21 23 -13 13 23 2 2 0.34424235D+00 0.90142386D-01 0.61626788D+06 0.61626788D+06 0.61626788D+06 0.10621517D+01  1  2 12  4  7  2       -2 0.822230842728D-04 0.100000000000D+01
-.365777146815D-04 0.000000000000D+00 -.747714662846D-05 0.757517908281D-05 0.000000000000D+00  7 2 21 23 -13 13 23 2 2 0.34424235D+00 0.91259574D-01 0.54792555D+06 0.54792555D+06 0.54792555D+06 0.10657123D+01  1  2  5  4  7  2       -2 -.244445156694D-03 0.100000000000D+01
  </mgrwgt>
  </event>
  <event>
  8     66 0.29152272E-05 0.25326725E+03 0.75467711E-02 0.92182948E-01
        2 -1    0    0  501    0 0.00000000E+00 0.00000000E+00 0.78025670E+03 0.78025677E+03 0.32000000E+00 0.0000E+00 0.9000E+01
       -2 -1    0    0    0  501 0.00000000E+00 0.00000000E+00 -.53768988E+03 0.53768998E+03 0.32000000E+00 0.0000E+00 0.9000E+01
       25  2    1    2    0    0 -.30834421E+03 0.49927824E+03 -.40141206E+02 0.66022797E+03 0.29989121E+03 0.0000E+00 0.0000E+00
       23  2    3    3    0    0 -.33461232E+02 0.22715679E+03 -.81496597E+02 0.26068290E+03 0.92703949E+02 0.0000E+00 0.0000E+00
       23  1    1    2    0    0 0.30834421E+03 -.49927824E+03 0.28270803E+03 0.65771878E+03 0.91188000E+02 0.0000E+00 0.9000E+01
      -11  1    4    4    0    0 -.40191798E+02 0.22060862E+03 -.95576467E+02 0.24375890E+03 0.51099893E-03 0.0000E+00 0.9000E+01
       11  1    4    4    0    0 0.67305653E+01 0.65481681E+01 0.14079870E+02 0.16924000E+02 0.51099893E-03 0.0000E+00 0.9000E+01
       23  1    3    3    0    0 -.27488298E+03 0.27212145E+03 0.41355391E+02 0.39954506E+03 0.91188000E+02 0.0000E+00 0.9000E+01
#aMCatNLO 1  0  0  2  1 0.22074438D+02 0.00000000D+00  -5  7  0 0.00000000D+00 0.00000000D+00 0.00000000D+00 0.00000000D+00 0.00000000D+00
  <mgrwgt>
 0.4597892135D-03    6    2    0
 0.647716173577441D+03 0.000000000000000D+00 0.000000000000000D+00 0.647716173577441D+03
 0.647716173577441D+03 0.000000000000000D+00 0.000000000000000D+00 -.647716173577441D+03
 0.616213375239184D+03 0.308344210534554D+03 -.499278240157545D+03 0.164465069892286D+03
 0.265891874642825D+03 -.401917977872367D+02 0.220608617042480D+03 -.142880882130222D+03
 0.145817115826062D+02 0.673056533896617D+01 0.654816814146682D+01 0.111555948692707D+02
 0.398745385690267D+03 -.274882978086283D+03 0.272121454973599D+03 -.327397826313357D+02
 0.000000000000000D+00 0.000000000000000D+00 -.000000000000000D+00 0.000000000000000D+00
 0.659099186228614D+03 0.000000000000000D+00 0.000000000000000D+00 0.659099186228614D+03
 0.658601276975114D+03 0.000000000000000D+00 0.000000000000000D+00 -.658601276975114D+03
 0.607285017425246D+03 0.307236933468096D+03 -.488913641192008D+03 0.164465069892286D+03
 0.269741174922107D+03 -.406765505219978D+02 0.225146115240037D+03 -.142880882130222D+03
 0.146825959374245D+02 0.670408087705190D+01 0.679607432039424D+01 0.111555948692707D+02
 0.403911621746525D+03 -.275609389908232D+03 0.278920988212742D+03 -.327397826313357D+02
 0.220800531724250D+02 0.234492608508133D+01 -.219495365811650D+02 0.497909253500095D+00
0.544770464993D-04 0.000000000000D+00 0.000000000000D+00 0.101684442233D-05 0.000000000000D+00  7 2 -2 23 -11 11 23 21 0 0.12003951D+00 0.82721533D-01 0.37508870D+06 0.37508870D+06 0.37508870D+06 0.10774466D+01  1  2  2  2  7  2       -2 0.312090837693D-03 0.100000000000D+01
-.301496537539D-05 0.000000000000D+00 -.209206202693D-06 0.101684442233D-05 0.000000000000D+00  7 2 -2 23 -11 11 23 21 2 0.12003951D+00 0.82721533D-01 0.37508870D+06 0.37508870D+06 0.37508870D+06 0.10774466D+01  1  2  3  2  7  2       -2 -.200512426436D-04 0.100000000000D+01
0.343127302792D-05 0.000000000000D+00 0.000000000000D+00 0.101684442233D-05 0.000000000000D+00  7 2 -2 23 -11 11 23 21 2 0.12003951D+00 0.82721533D-01 0.37508870D+06 0.37508870D+06 0.37508870D+06 0.10774466D+01  1  2 15  2  7  2       -2 0.228199264313D-04 0.100000000000D+01
0.551976733860D-04 0.000000000000D+00 0.000000000000D+00 0.101684442233D-05 0.000000000000D+00  7 2 -2 23 -11 11 23 21 2 0.12003951D+00 0.84826196D-01 0.38911713D+06 0.38911713D+06 0.38911713D+06 0.10762923D+01  1  2 12  2  7  2       -2 0.345400722393D-03 0.100000000000D+01
-.410883915611D-04 0.000000000000D+00 0.000000000000D+00 0.101684442233D-05 0.000000000000D+00  7 2 -2 23 -11 11 23 21 2 0.12003951D+00 0.82721533D-01 0.37508870D+06 0.37508870D+06 0.37508870D+06 0.10774466D+01  1  2  4  2  7  2       -2 -.273261283779D-03 0.100000000000D+01
0.123647235299D-05 0.000000000000D+00 0.000000000000D+00 0.101684442233D-05 0.000000000000D+00  7 2 21 23 -11 11 23 2 2 0.12003951D+00 0.84826196D-01 0.38911713D+06 0.38911713D+06 0.38911713D+06 0.10762923D+01  1  2 12  4  7  2       -2 0.727902533742D-04 0.100000000000D+01
  </mgrwgt>
  </event>
  <event>
  8     66 0.29152272E-05 0.12179404E+03 0.75467711E-02 0.10550327E+00
        2 -1    0    0  501    0 0.00000000E+00 0.00000000E+00 0.16837166E+04 0.16837166E+04 0.32000000E+00 0.0000E+00 0.9000E+01
       -2 -1    0    0    0  501 0.00000000E+00 0.00000000E+00 -.31045541E+02 0.31047190E+02 0.32000000E+00 0.0000E+00 0.9000E+01
       25  2    1    2    0    0 -.30477615E+02 0.15431386E+02 0.77618633E+03 0.83288643E+03 0.30011258E+03 0.0000E+00 0.0000E+00
       23  2    3    3    0    0 0.80076157E+01 0.11544640E+03 0.26809065E+03 0.30566674E+03 0.90374597E+02 0.0000E+00 0.0000E+00
       23  1    1    2    0    0 0.30477615E+02 -.15431386E+02 0.87648470E+03 0.88187737E+03 0.91188000E+02 0.0000E+00 0.9000E+01
      -11  1    4    4    0    0 -.96393144E+01 0.12592756E+03 0.22930273E+03 0.26178313E+03 0.51099893E-03 0.0000E+00 0.9000E+01
       11  1    4    4    0    0 0.17646930E+02 -.10481153E+02 0.38787917E+02 0.43883610E+02 0.51099893E-03 0.0000E+00 0.9000E+01
       23  1    3    3    0    0 -.38485231E+02 -.10001502E+03 0.50809569E+03 0.52721968E+03 0.91188000E+02 0.0000E+00 0.9000E+01
#aMCatNLO 1  0  0  2  1 0.38845558D+02 0.00000000D+00  -5  7  0 0.00000000D+00 0.00000000D+00 0.00000000D+00 0.00000000D+00 0.00000000D+00
  <mgrwgt>
 0.4385903139D-03    9    2    0
 0.228633618043136D+03 0.000000000000000D+00 0.000000000000000D+00 0.228633618043136D+03
 0.228633618043136D+03 0.000000000000000D+00 0.000000000000000D+00 -.228633618043136D+03
 0.139241351375586D+03 0.304776152870596D+02 -.154313862335470D+02 0.995283370413893D+02
 0.152939575097652D+03 -.963931443887149D+01 0.125927557652842D+03 -.862545504410581D+02
 0.243760273251705D+02 0.176469301707081D+02 -.104811532318501D+02 -.131499806326126D+02
 0.140710282287864D+03 -.384852310188962D+02 -.100015018187444D+03 -.123805967718539D+00
 0.000000000000000D+00 0.000000000000000D+00 0.000000000000000D+00 -.000000000000000D+00
 0.239477015346323D+03 0.000000000000000D+00 0.000000000000000D+00 0.239477015346323D+03
 0.267106708038788D+03 0.000000000000000D+00 0.000000000000000D+00 -.267106708038788D+03
 0.140401391485444D+03 0.276617006795351D+02 -.269488372354063D+02 0.995283370413893D+02
 0.143293264308306D+03 -.126222861090007D+02 0.113726821892302D+03 -.862545504410581D+02
 0.249727038775807D+02 0.171500039439271D+02 -.125136450741794D+02 -.131499806326126D+02
 0.150246905251621D+03 -.414150785313840D+02 -.111998469346734D+03 -.123805967718539D+00
 0.476694584621592D+02 0.922566001692262D+01 0.377341297640168D+02 -.276296926924643D+02
0.168494441443D-05 0.000000000000D+00 0.000000000000D+00 0.195734604845D-06 0.000000000000D+00  7 2 -2 23 -11 11 23 21 0 0.25903345D+00 0.47763662D-02 0.37038527D+05 0.37038527D+05 0.37038527D+05 0.11589375D+01  1  2  2  2  7  2       -2 0.411667992579D-03 0.100000000000D+01
-.902306207078D-07 0.000000000000D+00 -.647063020746D-08 0.195734604845D-06 0.000000000000D+00  7 2 -2 23 -11 11 23 21 2 0.25903345D+00 0.47763662D-02 0.37038527D+05 0.37038527D+05 0.37038527D+05 0.11589375D+01  1  2  3  2  7  2       -2 -.296097998145D-04 0.100000000000D+01
0.102912655670D-06 0.000000000000D+00 0.000000000000D+00 0.195734604845D-06 0.000000000000D+00  7 2 -2 23 -11 11 23 21 2 0.25903345D+00 0.47763662D-02 0.37038527D+05 0.37038527D+05 0.37038527D+05 0.11589375D+01  1  2 15  2  7  2       -2 0.337714969583D-04 0.100000000000D+01
0.284032016590D-05 0.000000000000D+00 0.000000000000D+00 0.195734604845D-06 0.000000000000D+00  7 2 -2 23 -11 11 23 21 2 0.25903345D+00 0.56797749D-02 0.44896559D+05 0.44896559D+05 0.44896559D+05 0.11514310D+01  1  2 12  2  7  2       -2 0.712256449221D-03 0.100000000000D+01
-.288123172492D-05 0.000000000000D+00 0.000000000000D+00 0.195734604845D-06 0.000000000000D+00  7 2 -2 23 -11 11 23 21 2 0.25903345D+00 0.47763662D-02 0.37038527D+05 0.37038527D+05 0.37038527D+05 0.11589375D+01  1  2  4  2  7  2       -2 -.945496040311D-03 0.100000000000D+01
-.517147947580D-05 0.000000000000D+00 -.120664723081D-05 0.195734604845D-06 0.000000000000D+00  7 2 -2 23 -11 11 23 21 2 0.25903345D+00 0.58667807D-02 0.37038527D+05 0.37038527D+05 0.37038527D+05 0.11589375D+01  1  2  5  2  7  2       -2 -.125289754674D-02 0.100000000000D+01
0.533155324135D-05 0.000000000000D+00 0.118157929274D-05 0.195734604845D-06 0.000000000000D+00  7 2 -2 23 -11 11 23 21 2 0.25903345D+00 0.47763662D-02 0.37038527D+05 0.37038527D+05 0.37038527D+05 0.11589375D+01  1  2  6  2  7  2       -2 0.174958592702D-02 0.100000000000D+01
0.726891089149D-07 0.000000000000D+00 0.000000000000D+00 0.195734604845D-06 0.000000000000D+00  7 2 21 23 -11 11 23 2 2 0.25903345D+00 0.56797749D-02 0.44896559D+05 0.44896559D+05 0.44896559D+05 0.11514310D+01  1  2 12  4  7  2       -2 0.296084337371D-03 0.100000000000D+01
-.136591662034D-06 0.000000000000D+00 -.352710282816D-07 0.195734604845D-06 0.000000000000D+00  7 2 21 23 -11 11 23 2 2 0.25903345D+00 0.58667807D-02 0.37038527D+05 0.37038527D+05 0.37038527D+05 0.11589375D+01  1  2  5  4  7  2       -2 -.536772502411D-03 0.100000000000D+01
  </mgrwgt>
  </event>
  <event>
  8     66 0.29152272E-05 0.17411823E+03 0.75467711E-02 0.96349022E-01
        4 -1    0    0  501    0 0.00000000E+00 0.00000000E+00 0.40223060E+03 0.40223358E+03 0.15500000E+01 0.0000E+00 0.9000E+01
       -4 -1    0    0    0  501 0.00000000E+00 0.00000000E+00 -.63762096E+03 0.63762284E+03 0.15500000E+01 0.0000E+00 0.9000E+01
       25  2    1    2    0    0 0.13343585E+03 -.31215582E+03 0.18736084E+03 0.49005627E+03 0.29967430E+03 0.0000E+00 0.0000E+00
       23  2    3    3    0    0 0.12245302E+03 -.32259077E+03 0.12356901E+03 0.37774350E+03 0.91440173E+02 0.0000E+00 0.0000E+00
       23  1    1    2    0    0 -.13343585E+03 0.31215582E+03 -.42275120E+03 0.54980015E+03 0.91188000E+02 0.0000E+00 0.9000E+01
      -11  1    4    4    0    0 0.11795730E+03 -.32874187E+03 0.12204903E+03 0.36997447E+03 0.51099893E-03 0.0000E+00 0.9000E+01
       11  1    4    4    0    0 0.44957158E+01 0.61511010E+01 0.15199877E+01 0.77690325E+01 0.51099893E-03 0.0000E+00 0.9000E+01
       23  1    3    3    0    0 0.10982828E+02 0.10434947E+02 0.63791823E+02 0.11231277E+03 0.91188000E+02 0.0000E+00 0.9000E+01
#aMCatNLO 1  0  0  2  1 0.61626395D+02 0.00000000D+00  -5  7  0 0.00000000D+00 0.00000000D+00 0.00000000D+00 0.00000000D+00 0.00000000D+00
  <mgrwgt>
 0.2679830438D-04    9    2    0
 0.506431822867747D+03 0.000000000000000D+00 0.000000000000000D+00 0.506431822867747D+03
 0.506431822867747D+03 0.000000000000000D+00 0.000000000000000D+00 -.506431822867747D+03
 0.466204575398429D+03 -.133435845588400D+03 0.312155823597510D+03 -.306243484313868D+03
 0.408198570949706D+03 0.117957301590605D+03 -.328741871152128D+03 0.211284004312307D+03
 0.832932339730927D+01 0.449571579270892D+01 0.615110098481730D+01 0.336602502110885D+01
 0.130131175990049D+03 0.109828282050860D+02 0.104349465698010D+02 0.915934549804519D+02
 0.000000000000000D+00 0.000000000000000D+00 0.000000000000000D+00 -.000000000000000D+00
 0.534905907110475D+03 0.000000000000000D+00 0.000000000000000D+00 0.534905907110475D+03
 0.541846834541641D+03 0.000000000000000D+00 0.000000000000000D+00 -.541846834541641D+03
 0.449395657450772D+03 -.137326672488837D+03 0.284600630586190D+03 -.306243484313868D+03
 0.427755413777516D+03 0.114404930004609D+03 -.353900092580337D+03 0.211284004312307D+03
 0.793590245847789D+01 0.442659700480248D+01 0.566159538865310D+01 0.336602502110885D+01
 0.129649729783992D+03 0.987889386765102D+01 0.261678232907814D+01 0.915934549804519D+02
 0.620160381813576D+02 0.861625161177460D+01 0.610210842764162D+02 -.694092743116565D+01
0.465839368202D-04 0.000000000000D+00 0.000000000000D+00 0.180156249096D-05 0.000000000000D+00  7 4 -4 23 -11 11 23 21 0 0.61882005D-01 0.98095907D-01 0.16033371D+06 0.16033371D+06 0.16033371D+06 0.11052758D+01  1  2  2  2  7  2       -4 0.193219084758D-04 0.100000000000D+01
-.241439643101D-05 0.000000000000D+00 -.178894583222D-06 0.180156249096D-05 0.000000000000D+00  7 4 -4 23 -11 11 23 21 2 0.61882005D-01 0.98095907D-01 0.16033371D+06 0.16033371D+06 0.16033371D+06 0.11052758D+01  1  2  3  2  7  2       -4 -.122338673965D-05 0.100000000000D+01
0.297107723841D-05 0.000000000000D+00 0.000000000000D+00 0.180156249096D-05 0.000000000000D+00  7 4 -4 23 -11 11 23 21 2 0.61882005D-01 0.98095907D-01 0.16033371D+06 0.16033371D+06 0.16033371D+06 0.11052758D+01  1  2 15  2  7  2       -4 0.150545968726D-05 0.100000000000D+01
0.728800975575D-04 0.000000000000D+00 0.000000000000D+00 0.180156249096D-05 0.000000000000D+00  7 4 -4 23 -11 11 23 21 2 0.61882005D-01 0.10754183D+00 0.18550189D+06 0.18550189D+06 0.18550189D+06 0.11003443D+01  1  2 12  2  7  2       -4 0.282926330241D-04 0.100000000000D+01
-.613075162610D-04 0.000000000000D+00 0.000000000000D+00 0.180156249096D-05 0.000000000000D+00  7 4 -4 23 -11 11 23 21 2 0.61882005D-01 0.98095907D-01 0.16033371D+06 0.16033371D+06 0.16033371D+06 0.11052758D+01  1  2  4  2  7  2       -4 -.310648249274D-04 0.100000000000D+01
-.228920630275D-03 0.000000000000D+00 -.526940591018D-04 0.180156249096D-05 0.000000000000D+00  7 4 -4 23 -11 11 23 21 2 0.61882005D-01 0.10961219D+00 0.16033371D+06 0.16033371D+06 0.16033371D+06 0.11052758D+01  1  2  5  2  7  2       -4 -.848663206596D-04 0.100000000000D+01
0.233651838755D-03 0.000000000000D+00 0.523710786317D-04 0.180156249096D-05 0.000000000000D+00  7 4 -4 23 -11 11 23 21 2 0.61882005D-01 0.98095907D-01 0.16033371D+06 0.16033371D+06 0.16033371D+06 0.11052758D+01  1  2  6  2  7  2       -4 0.118392554577D-03 0.100000000000D+01
0.110033814464D-05 0.000000000000D+00 0.000000000000D+00 0.180156249096D-05 0.000000000000D+00  7 4 21 23 -11 11 23 4 2 0.61882005D-01 0.10754183D+00 0.18550189D+06 0.18550189D+06 0.18550189D+06 0.11003443D+01  1  2 12  4  7  2       -4 0.987427551259D-05 0.100000000000D+01
-.385531570205D-05 0.000000000000D+00 -.936015286458D-06 0.180156249096D-05 0.000000000000D+00  7 4 21 23 -11 11 23 4 2 0.61882005D-01 0.10961219D+00 0.16033371D+06 0.16033371D+06 0.16033371D+06 0.11052758D+01  1  2  5  4  7  2       -4 -.334339945740D-04 0.100000000000D+01
  </mgrwgt>
  </event>
  <event>
  8     66 0.29152272E-05 0.15827087E+04 0.75467711E-02 0.78401343E-01
        2 -1    0    0  501    0 0.00000000E+00 0.00000000E+00 0.25012631E+04 0.25012632E+04 0.32000000E+00 0.0000E+00 0.9000E+01
       -2 -1    0    0    0  501 0.00000000E+00 0.00000000E+00 -.16604583E+04 0.16604583E+04 0.32000000E+00 0.0000E+00 0.9000E+01
       25  2    1    2    0    0 -.10950395E+04 -.11347629E+04 0.17209976E+04 0.23534480E+04 0.30014400E+03 0.0000E+00 0.0000E+00
       23  2    3    3    0    0 -.63228682E+03 -.71447404E+03 0.87614522E+03 0.12985198E+04 0.90903203E+02 0.0000E+00 0.0000E+00
       23  1    1    2    0    0 0.10950395E+04 0.11347629E+04 -.88019273E+03 0.18082735E+04 0.91188000E+02 0.0000E+00 0.9000E+01
      -11  1    4    4    0    0 -.78086231E+02 -.90073294E+02 0.15334791E+03 0.19423243E+03 0.51099893E-03 0.0000E+00 0.9000E+01
       11  1    4    4    0    0 -.55420059E+03 -.62440075E+03 0.72279731E+03 0.11042873E+04 0.51099893E-03 0.0000E+00 0.9000E+01
       23  1    3    3    0    0 -.46275271E+03 -.42028886E+03 0.84485237E+03 0.10549282E+04 0.91188000E+02 0.0000E+00 0.9000E+01
#aMCatNLO 1  0  0  1  1 0.19473044D+04 0.00000000D+00  -5  7  0 0.00000000D+00 0.00000000D+00 0.00000000D+00 0.00000000D+00 0.00000000D+00
  <mgrwgt>
 0.2947324527D-03    6    2    0
 0.203795073615282D+04 0.000000000000000D+00 0.000000000000000D+00 0.203795073615282D+04
 0.203795073615282D+04 0.000000000000000D+00 0.000000000000000D+00 -.203795073615282D+04
 0.202791968272369D+04 0.109503953261090D+04 0.113476290308375D+04 -.127174862454747D+04
 0.166688431224244D+03 -.780862307540251D+02 -.900732944549613D+02 0.116509121087829D+03
 0.978435050812864D+03 -.554200590340853D+03 -.624400745925475D+03 0.510216192229071D+03
 0.902858307544838D+03 -.462752711516018D+03 -.420288862703318D+03 0.645023311230573D+03
 0.000000000000000D+00 -.000000000000000D+00 0.000000000000000D+00 0.000000000000000D+00
 0.355043240133314D+04 0.000000000000000D+00 0.000000000000000D+00 0.355043240133314D+04
 0.299242908112831D+04 0.000000000000000D+00 0.000000000000000D+00 -.299242908112831D+04
 0.240849489835953D+04 0.195096426633704D+04 0.607393028868011D+03 -.127174862454747D+04
 0.175547359611128D+03 -.120581189108799D+02 -.130755886820102D+03 0.116509121087829D+03
 0.101542992049525D+04 -.169520954688745D+03 -.861417440353793D+03 0.510216192229071D+03
 0.917713585263845D+03 -.111506793421252D+03 -.636705690428378D+03 0.645023311230573D+03
 0.202567571873169D+04 -.165787839931617D+04 0.102148598873426D+04 0.558003320204832D+03
0.112525297858D-01 0.000000000000D+00 0.000000000000D+00 0.396904515036D-04 0.000000000000D+00  7 2 -2 23 -11 11 23 21 0 0.38480972D+00 0.25545512D+00 0.25049669D+07 0.25049669D+07 0.25049669D+07 0.10223055D+01  1  2  2  1  7  1        2 0.224738563792D-03 0.100000000000D+01
-.576562794088D-03 0.000000000000D+00 -.432126772368D-04 0.396904515036D-04 0.000000000000D+00  7 2 -2 23 -11 11 23 21 2 0.38480972D+00 0.25545512D+00 0.25049669D+07 0.25049669D+07 0.25049669D+07 0.10223055D+01  1  2  3  1  7  1        2 -.120347058547D-04 0.100000000000D+01
0.689579897655D-03 0.000000000000D+00 0.000000000000D+00 0.396904515036D-04 0.000000000000D+00  7 2 -2 23 -11 11 23 21 2 0.38480972D+00 0.25545512D+00 0.25049669D+07 0.25049669D+07 0.25049669D+07 0.10223055D+01  1  2 15  1  7  1        2 0.143937335477D-04 0.100000000000D+01
-.196282983369D-02 0.000000000000D+00 -.249821456915D-02 0.396904515036D-04 0.000000000000D+00  7 2 -2 23 -11 11 23 21 2 0.71836281D+00 0.25545512D+00 0.25049669D+07 0.25049669D+07 0.25049669D+07 0.10223055D+01  1  2  5  1  7  1        2 -.841981806653D-06 0.100000000000D+01
0.328061080083D-02 0.000000000000D+00 0.207969984722D-02 0.396904515036D-04 0.000000000000D+00  7 2 -2 23 -11 11 23 21 2 0.38480972D+00 0.25545512D+00 0.25049669D+07 0.25049669D+07 0.25049669D+07 0.10223055D+01  1  2  6  1  7  1        2 0.684768188594D-04 0.100000000000D+01
0.622557518687D-05 0.000000000000D+00 -.169862030119D-03 0.396904515036D-04 0.000000000000D+00  7 21 -2 23 -11 11 23 -2 2 0.71836281D+00 0.25545512D+00 0.25049669D+07 0.25049669D+07 0.25049669D+07 0.10223055D+01  1  2  5  3  7  1        2 0.241309735115D-10 0.100000000000D+01
  </mgrwgt>
  </event>
  <event>
  8     66 0.29152272E-05 0.32082426E+03 0.75467711E-02 0.99826820E-01
        2 -1    0    0  501    0 0.00000000E+00 0.00000000E+00 0.26203167E+03 0.26203186E+03 0.32000000E+00 0.0000E+00 0.9000E+01
       -2 -1    0    0    0  501 0.00000000E+00 0.00000000E+00 -.55816378E+03 0.55816388E+03 0.32000000E+00 0.0000E+00 0.9000E+01
       25  2    1    2    0    0 0.14947400E+03 0.21748492E+03 0.23204914E+02 0.39600998E+03 0.29435229E+03 0.0000E+00 0.0000E+00
       23  2    3    3    0    0 0.17673657E+03 0.14793401E+03 0.85931440E+02 0.26247929E+03 0.91601748E+02 0.0000E+00 0.0000E+00
       23  1    1    2    0    0 -.14947400E+03 -.21748492E+03 -.31933703E+03 0.42418576E+03 0.91188000E+02 0.0000E+00 0.9000E+01
      -13  1    4    4    0    0 -.14355058E+01 0.31905403E+02 -.28535399E+01 0.32065079E+02 0.10565837E+00 0.0000E+00 0.9000E+01
       13  1    4    4    0    0 0.17817207E+03 0.11602860E+03 0.88784980E+02 0.23041421E+03 0.10565837E+00 0.0000E+00 0.9000E+01
       23  1    3    3    0    0 -.27262565E+02 0.69550913E+02 -.62726526E+02 0.13353069E+03 0.91188000E+02 0.0000E+00 0.9000E+01
#aMCatNLO 1  0  0  2  2 0.62162496D+01 0.00000000D+00  -5  7  0 0.00000000D+00 0.00000000D+00 0.00000000D+00 0.00000000D+00 0.00000000D+00
  <mgrwgt>
 0.7994449412D-03    6    2    0
 0.382435229462782D+03 0.000000000000000D+00 0.000000000000000D+00 0.382435229462782D+03
 0.382435229462782D+03 0.000000000000000D+00 0.000000000000000D+00 -.382435229462782D+03
 0.331231777391760D+03 -.149474002062139D+03 -.217484920276341D+03 -.178205137888966D+03
 0.332793132087825D+02 -.143574464064461D+01 0.319052910985384D+02 0.935434256870207D+01
 0.281455620460811D+03 0.178172310770858D+03 0.116028716462994D+03 0.184415918292058D+03
 0.118903747864211D+03 -.272625640680744D+02 0.695509127148087D+02 -.155651229717939D+02
 0.000000000000000D+00 0.000000000000000D+00 0.000000000000000D+00 0.000000000000000D+00
 0.389812311818357D+03 0.000000000000000D+00 0.000000000000000D+00 0.389812311818357D+03
 0.383759625604390D+03 0.000000000000000D+00 0.000000000000000D+00 -.383759625604390D+03
 0.333317677222109D+03 -.151516865474789D+03 -.219250976990779D+03 -.178205137888966D+03
 0.331196585201810D+02 -.163985891542264D+01 0.317288341786815D+02 0.935434256870207D+01
 0.279752764930096D+03 0.176447123774725D+03 0.114537291211890D+03 0.184415918292058D+03
 0.118705618164857D+03 -.279929889852774D+02 0.689194599111451D+02 -.155651229717939D+02
 0.867621858550410D+01 0.470258960076335D+01 0.406539168906277D+01 0.605268621396637D+01
0.470141140346D-04 0.000000000000D+00 0.000000000000D+00 0.817728480618D-08 0.000000000000D+00  7 2 -2 23 -13 13 23 21 0 0.40312586D-01 0.85871374D-01 0.10292821D+06 0.10292821D+06 0.10292821D+06 0.11206949D+01  1  2  2  2  7  2       -2 0.885563502290D-03 0.100000000000D+01
-.251389845934D-05 0.000000000000D+00 -.180546576993D-06 0.817728480618D-08 0.000000000000D+00  7 2 -2 23 -13 13 23 21 2 0.40312586D-01 0.85871374D-01 0.10292821D+06 0.10292821D+06 0.10292821D+06 0.11206949D+01  1  2  3  2  7  2       -2 -.594721962195D-04 0.100000000000D+01
0.299601688030D-05 0.000000000000D+00 0.000000000000D+00 0.817728480618D-08 0.000000000000D+00  7 2 -2 23 -13 13 23 21 2 0.40312586D-01 0.85871374D-01 0.10292821D+06 0.10292821D+06 0.10292821D+06 0.11206949D+01  1  2 15  2  7  2       -2 0.708778443776D-04 0.100000000000D+01
-.169522037737D-04 0.000000000000D+00 0.000000000000D+00 0.817728480618D-08 0.000000000000D+00  7 2 -2 23 -13 13 23 21 2 0.40312586D-01 0.85871374D-01 0.10292821D+06 0.10292821D+06 0.10292821D+06 0.11206949D+01  1  2  4  2  7  2       -2 -.401044356203D-03 0.100000000000D+01
0.121392450355D-04 0.000000000000D+00 0.000000000000D+00 0.817728480618D-08 0.141620216411D-08  7 2 -2 23 -13 13 23 21 2 0.41090206D-01 0.86168751D-01 0.10488226D+06 0.10488226D+06 0.10488226D+06 0.11200272D+01  1  2 11  2  7  2       -2 0.278581979230D-03 0.100000000000D+01
0.111118445648D-06 0.000000000000D+00 0.000000000000D+00 0.817728480618D-08 0.926378116761D-12  7 2 21 23 -13 13 23 2 2 0.41090206D-01 0.86168751D-01 0.10488226D+06 0.10488226D+06 0.10488226D+06 0.11200272D+01  1  2 11  4  7  2       -2 0.249381677307D-04 0.100000000000D+01
  </mgrwgt>
  </event>
  <event>
  8     66 0.29152272E-05 0.34955849E+03 0.75467711E-02 0.91942305E-01
        2 -1    0    0  501    0 0.00000000E+00 0.00000000E+00 0.13720059E+04 0.13720060E+04 0.32000000E+00 0.0000E+00 0.9000E+01
       -2 -1    0    0    0  501 0.00000000E+00 0.00000000E+00 -.39101881E+03 0.39101894E+03 0.32000000E+00 0.0000E+00 0.9000E+01
       25  2    1    2    0    0 -.52063744E+03 0.19955334E+03 0.30686040E+01 0.63363358E+03 0.30099371E+03 0.0000E+00 0.0000E+00
       23  2    3    3    0    0 -.14591451E+03 -.35025557E+02 -.39725725E+02 0.18021199E+03 0.91544487E+02 0.0000E+00 0.0000E+00
       23  1    1    2    0    0 0.52063744E+03 -.19955334E+03 0.97791852E+03 0.11293913E+04 0.91188000E+02 0.0000E+00 0.9000E+01
      -13  1    4    4    0    0 -.10631708E+03 0.16237924E+02 -.73632784E+01 0.10780177E+03 0.10565837E+00 0.0000E+00 0.9000E+01
       13  1    4    4    0    0 -.39597430E+02 -.51263481E+02 -.32362446E+02 0.72410221E+02 0.10565837E+00 0.0000E+00 0.9000E+01
       23  1    3    3    0    0 -.37472293E+03 0.23457889E+03 0.42794329E+02 0.45342159E+03 0.91188000E+02 0.0000E+00 0.9000E+01
#aMCatNLO 1  0  0  1  2 0.82134693D+02 0.00000000D+00  -5  7  0 0.00000000D+00 0.00000000D+00 0.00000000D+00 0.00000000D+00 0.00000000D+00
  <mgrwgt>
 0.4085323764D-03    9    2    0
 0.732448133298218D+03 0.000000000000000D+00 0.000000000000000D+00 0.732448133298218D+03
 0.732448133298218D+03 0.000000000000000D+00 0.000000000000000D+00 -.732448133298218D+03
 0.704363563690721D+03 0.520637444159507D+03 -.199553336564836D+03 0.420627978284836D+03
 0.134672015149939D+03 -.106317170571279D+03 0.162380141240022D+02 -.810526853569422D+02
 0.108818705005550D+03 -.395973413336569D+02 -.512635708464794D+02 -.874391641225991D+02
 0.517041982750226D+03 -.374722932254571D+03 0.234578893287313D+03 -.252136128805295D+03
 0.000000000000000D+00 -.000000000000000D+00 0.000000000000000D+00 0.000000000000000D+00
 0.107929264958428D+04 0.000000000000000D+00 0.000000000000000D+00 0.107929264958428D+04
 0.738477192553095D+03 0.000000000000000D+00 0.000000000000000D+00 -.738477192553095D+03
 0.731010407976317D+03 0.543012258938451D+03 -.232960845964025D+03 0.420627978284836D+03
 0.130809900419948D+03 -.102178800498192D+03 0.100590741649508D+02 -.810526853569422D+02
 0.110142283963187D+03 -.361841461185453D+02 -.563597628085877D+02 -.874391641225991D+02
 0.495234456318898D+03 -.358943422331485D+03 0.211018737313812D+03 -.252136128805295D+03
 0.350572793459023D+03 -.457058899902281D+02 0.682427972938506D+02 0.340815457031183D+03
0.734679720101D-04 0.000000000000D+00 0.000000000000D+00 0.939255435811D-06 0.000000000000D+00  7 2 -2 23 -13 13 23 21 0 0.21107785D+00 0.60156752D-01 0.35325277D+06 0.35325277D+06 0.35325277D+06 0.10793403D+01  1  2  2  1  7  1        2 0.365074630466D-03 0.100000000000D+01
-.386494356396D-05 0.000000000000D+00 -.282136357080D-06 0.939255435811D-06 0.000000000000D+00  7 2 -2 23 -13 13 23 21 2 0.21107785D+00 0.60156752D-01 0.35325277D+06 0.35325277D+06 0.35325277D+06 0.10793403D+01  1  2  3  1  7  1        2 -.223739969647D-04 0.100000000000D+01
0.463318219531D-05 0.000000000000D+00 0.000000000000D+00 0.939255435811D-06 0.000000000000D+00  7 2 -2 23 -13 13 23 21 2 0.21107785D+00 0.60156752D-01 0.35325277D+06 0.35325277D+06 0.35325277D+06 0.10793403D+01  1  2 15  1  7  1        2 0.268212983345D-04 0.100000000000D+01
0.670175500707D-03 0.000000000000D+00 0.000000000000D+00 0.939255435811D-06 0.000000000000D+00  7 2 -2 23 -13 13 23 21 2 0.31157663D+00 0.60156752D-01 0.40697856D+06 0.40697856D+06 0.40697856D+06 0.10748865D+01  1  2 12  1  7  1        2 0.167000162932D-02 0.100000000000D+01
-.630300692737D-03 0.000000000000D+00 0.000000000000D+00 0.939255435811D-06 0.000000000000D+00  7 2 -2 23 -13 13 23 21 2 0.21107785D+00 0.60156752D-01 0.35325277D+06 0.35325277D+06 0.35325277D+06 0.10793403D+01  1  2  4  1  7  1        2 -.364878440080D-02 0.100000000000D+01
-.685652188299D-03 0.000000000000D+00 -.269630400918D-04 0.939255435811D-06 0.000000000000D+00  7 2 -2 23 -13 13 23 21 2 0.31176740D+00 0.60156752D-01 0.35325277D+06 0.35325277D+06 0.35325277D+06 0.10793403D+01  1  2  5  1  7  1        2 -.173417461572D-02 0.100000000000D+01
0.648168013960D-03 0.000000000000D+00 0.250346002464D-04 0.939255435811D-06 0.000000000000D+00  7 2 -2 23 -13 13 23 21 2 0.21107785D+00 0.60156752D-01 0.35325277D+06 0.35325277D+06 0.35325277D+06 0.10793403D+01  1  2  6  1  7  1        2 0.375221757756D-02 0.100000000000D+01
0.312802001197D-04 0.000000000000D+00 0.000000000000D+00 0.939255435811D-06 0.000000000000D+00  7 21 -2 23 -13 13 23 -2 2 0.31157663D+00 0.60156752D-01 0.40697856D+06 0.40697856D+06 0.40697856D+06 0.10748865D+01  1  2 12  3  7  1        2 0.148121419713D-04 0.100000000000D+01
-.311501947501D-04 0.000000000000D+00 -.125993462381D-05 0.939255435811D-06 0.000000000000D+00  7 21 -2 23 -13 13 23 -2 2 0.31176740D+00 0.60156752D-01 0.35325277D+06 0.35325277D+06 0.35325277D+06 0.10793403D+01  1  2  5  3  7  1        2 -.150618877644D-04 0.100000000000D+01
  </mgrwgt>
  </event>
  <event>
  8     66 0.29152272E-05 0.14658633E+03 0.75467711E-02 0.10317476E+00
        2 -1    0    0  501    0 0.00000000E+00 0.00000000E+00 0.13523525E+04 0.13523526E+04 0.32000000E+00 0.0000E+00 0.9000E+01
       -2 -1    0    0    0  501 0.00000000E+00 0.00000000E+00 -.58222953E+02 0.58223832E+02 0.32000000E+00 0.0000E+00 0.9000E+01
       25  2    1    2    0    0 -.17314344E+03 -.14213513E+02 0.63779450E+03 0.72554235E+03 0.29908057E+03 0.0000E+00 0.0000E+00
       23  2    3    3    0    0 -.10354970E+03 0.41005623E+02 0.55785310E+03 0.57521497E+03 0.85253579E+02 0.0000E+00 0.0000E+00
       23  1    1    2    0    0 0.17314344E+03 0.14213513E+02 0.65633507E+03 0.68503405E+03 0.91188000E+02 0.0000E+00 0.9000E+01
      -11  1    4    4    0    0 -.89446686E+02 -.67182713E+01 0.32858388E+03 0.34060712E+03 0.51099893E-03 0.0000E+00 0.9000E+01
       11  1    4    4    0    0 -.14103018E+02 0.47723894E+02 0.22926922E+03 0.23460784E+03 0.51099893E-03 0.0000E+00 0.9000E+01
       23  1    3    3    0    0 -.69593740E+02 -.55219136E+02 0.79941403E+02 0.15032738E+03 0.91188000E+02 0.0000E+00 0.9000E+01
#aMCatNLO 1  0  0  1  2 0.35621507D+02 0.00000000D+00  -5  7  0 0.00000000D+00 0.00000000D+00 0.00000000D+00 0.00000000D+00 0.00000000D+00
  <mgrwgt>
 0.5999461202D-03    9    2    0
 0.280603998814728D+03 0.000000000000000D+00 0.000000000000000D+00 0.280603998814728D+03
 0.280603998814728D+03 0.000000000000000D+00 0.000000000000000D+00 -.280603998814728D+03
 0.208318911727029D+03 0.173143444146414D+03 0.142135130681916D+02 0.700060099885120D+02
 0.983988995181902D+02 -.894466864299794D+02 -.671827127076222D+01 0.404536592191644D+02
 0.609902374317283D+02 -.141030175993222D+02 0.477238941049136D+02 0.352610817762983D+02
 0.193499948952508D+03 -.695937401171126D+02 -.552191359023429D+02 -.145720750983975D+03
 0.000000000000000D+00 0.000000000000000D+00 -.000000000000000D+00 0.000000000000000D+00
 0.301457487459772D+03 0.000000000000000D+00 0.000000000000000D+00 0.301457487459772D+03
 0.296804047662976D+03 0.000000000000000D+00 0.000000000000000D+00 -.296804047662976D+03
 0.199515725195451D+03 0.161785510798732D+03 0.203931438809369D+02 0.700060099885120D+02
 0.103380194961308D+03 -.950661049358416D+02 -.366085486537149D+01 0.404536592191644D+02
 0.633469916592412D+02 -.175657297694000D+02 0.496078885048497D+02 0.352610817762983D+02
 0.196094449862029D+03 -.804436945196045D+02 -.493158865619860D+02 -.145720750983975D+03
 0.359241734447186D+02 0.312900184261141D+02 -.170242909584291D+02 0.465343979679686D+01
0.189869793192D-05 0.000000000000D+00 0.000000000000D+00 0.261294673776D-08 0.000000000000D+00  7 2 -2 23 -11 11 23 21 0 0.20805431D+00 0.89574479D-02 0.53586684D+05 0.53586684D+05 0.53586684D+05 0.11446583D+01  1  2  2  1  7  1        2 0.272274451820D-03 0.100000000000D+01
-.100734795709D-06 0.000000000000D+00 -.729149999722D-08 0.261294673776D-08 0.000000000000D+00  7 2 -2 23 -11 11 23 21 2 0.20805431D+00 0.89574479D-02 0.53586684D+05 0.53586684D+05 0.53586684D+05 0.11446583D+01  1  2  3  1  7  1        2 -.189270212243D-04 0.100000000000D+01
0.121934881089D-06 0.000000000000D+00 0.000000000000D+00 0.261294673776D-08 0.000000000000D+00  7 2 -2 23 -11 11 23 21 2 0.20805431D+00 0.89574479D-02 0.53586684D+05 0.53586684D+05 0.53586684D+05 0.11446583D+01  1  2 15  1  7  1        2 0.229102969448D-04 0.100000000000D+01
0.294422160856D-05 0.000000000000D+00 0.000000000000D+00 0.261294673776D-08 0.000000000000D+00  7 2 -2 23 -11 11 23 21 2 0.22912971D+00 0.89574479D-02 0.62859009D+05 0.62859009D+05 0.62859009D+05 0.11386537D+01  1  2 12  1  7  1        2 0.461488019864D-03 0.100000000000D+01
-.250515778615D-05 0.000000000000D+00 0.000000000000D+00 0.261294673776D-08 0.000000000000D+00  7 2 -2 23 -11 11 23 21 2 0.20805431D+00 0.89574479D-02 0.53586684D+05 0.53586684D+05 0.53586684D+05 0.11446583D+01  1  2  4  1  7  1        2 -.470693113091D-03 0.100000000000D+01
-.954725592386D-05 0.000000000000D+00 -.210019165615D-05 0.261294673776D-08 0.000000000000D+00  7 2 -2 23 -11 11 23 21 2 0.23128309D+00 0.89574479D-02 0.53586684D+05 0.53586684D+05 0.53586684D+05 0.11446583D+01  1  2  5  1  7  1        2 -.148824221073D-02 0.100000000000D+01
0.972672237543D-05 0.000000000000D+00 0.208848229362D-05 0.261294673776D-08 0.000000000000D+00  7 2 -2 23 -11 11 23 21 2 0.20805431D+00 0.89574479D-02 0.53586684D+05 0.53586684D+05 0.53586684D+05 0.11446583D+01  1  2  6  1  7  1        2 0.182755004909D-02 0.100000000000D+01
0.463635450974D-07 0.000000000000D+00 0.000000000000D+00 0.261294673776D-08 0.000000000000D+00  7 21 -2 23 -11 11 23 -2 2 0.22912971D+00 0.89574479D-02 0.62859009D+05 0.62859009D+05 0.62859009D+05 0.11386537D+01  1  2 12  3  7  1        2 0.278878222762D-05 0.100000000000D+01
-.155134524975D-06 0.000000000000D+00 -.358201696744D-07 0.261294673776D-08 0.000000000000D+00  7 21 -2 23 -11 11 23 -2 2 0.23128309D+00 0.89574479D-02 0.53586684D+05 0.53586684D+05 0.53586684D+05 0.11446583D+01  1  2  5  3  7  1        2 -.920313472683D-05 0.100000000000D+01
  </mgrwgt>
  </event>
  <event>
  8     66 0.29152272E-05 0.39028559E+03 0.75467711E-02 0.93484047E-01
        4 -1    0    0  501    0 0.00000000E+00 0.00000000E+00 0.46291217E+03 0.46291477E+03 0.15500000E+01 0.0000E+00 0.9000E+01
       -4 -1    0    0    0  501 0.00000000E+00 0.00000000E+00 -.43603682E+03 0.43603957E+03 0.15500000E+01 0.0000E+00 0.9000E+01
       25  2    1    2    0    0 -.34018466E+03 0.10483043E+03 -.15196388E+03 0.49028119E+03 0.30094451E+03 0.0000E+00 0.0000E+00
       23  2    3    3    0    0 -.92493091E+02 0.15656144E+02 0.52681681E+02 0.14459604E+03 0.96605215E+02 0.0000E+00 0.0000E+00
       23  1    1    2    0    0 0.34018466E+03 -.10483043E+03 0.17883923E+03 0.40867315E+03 0.91188000E+02 0.0000E+00 0.9000E+01
      -13  1    4    4    0    0 0.20514202E+02 0.84467256E+00 0.10554379E+02 0.23085754E+02 0.10565837E+00 0.0000E+00 0.9000E+01
       13  1    4    4    0    0 -.11300729E+03 0.14811472E+02 0.42127301E+02 0.12151028E+03 0.10565837E+00 0.0000E+00 0.9000E+01
       23  1    3    3    0    0 -.24769157E+03 0.89174281E+02 -.20464556E+03 0.34568515E+03 0.91188000E+02 0.0000E+00 0.9000E+01
#aMCatNLO 1  0  0  2  2 0.28737904D+03 0.00000000D+00  -5  7  0 0.00000000D+00 0.00000000D+00 0.00000000D+00 0.00000000D+00 0.00000000D+00
  <mgrwgt>
 0.1924411014D-04    3    2    0
 0.449276255849752D+03 0.000000000000000D+00 0.000000000000000D+00 0.449276255849752D+03
 0.449276255849752D+03 0.000000000000000D+00 0.000000000000000D+00 -.449276255849752D+03
 0.403506895628711D+03 0.340184662042864D+03 -.104830425802036D+03 0.166695953798722D+03
 0.227802830278460D+02 0.205143601754823D+02 0.844655642748148D+00 0.986858035709936D+01
 0.120304721533210D+03 -.113007447343247D+03 0.148114872371359D+02 0.385118516040291D+02
 0.351960611509736D+03 -.247691574875100D+03 0.891742829221521D+02 -.215076385759851D+03
 0.000000000000000D+00 -.000000000000000D+00 0.000000000000000D+00 0.000000000000000D+00
 0.112680765447647D+04 0.000000000000000D+00 0.000000000000000D+00 0.112680765447647D+04
 0.503210845488062D+03 0.000000000000000D+00 0.000000000000000D+00 -.503210845488062D+03
 0.496090201985212D+03 0.393656399114639D+03 -.234600374221693D+03 0.166695953798722D+03
 0.261668026575504D+02 0.234237578415500D+02 -.621612834770046D+01 0.986858035709936D+01
 0.108158539827853D+03 -.994276709361624D+02 -.181451171374768D+02 0.385118516040291D+02
 0.312973731907077D+03 -.208168109897853D+03 -.674476314472447D+01 -.215076385759851D+03
 0.686629223586835D+03 -.109484376122174D+03 0.265706382851595D+03 0.623596808988403D+03
0.240820215979D-04 0.000000000000D+00 0.000000000000D+00 0.123344183059D-07 0.000000000000D+00  7 4 -4 23 -13 13 23 21 0 0.71217669D-01 0.67082999D-01 0.15232284D+06 0.15232284D+06 0.15232284D+06 0.11070256D+01  1  2  2  2  7  2       -4 0.189710398055D-04 0.100000000000D+01
-.130566043944D-05 0.000000000000D+00 -.924813038778D-07 0.123344183059D-07 0.000000000000D+00  7 4 -4 23 -13 13 23 21 2 0.71217669D-01 0.67082999D-01 0.15232284D+06 0.15232284D+06 0.15232284D+06 0.11070256D+01  1  2  3  2  7  2       -4 -.126050272440D-05 0.100000000000D+01
0.158851356375D-05 0.000000000000D+00 0.000000000000D+00 0.123344183059D-07 0.000000000000D+00  7 4 -4 23 -13 13 23 21 2 0.71217669D-01 0.67082999D-01 0.15232284D+06 0.15232284D+06 0.15232284D+06 0.11070256D+01  1  2 15  2  7  2       -4 0.153357305955D-05 0.100000000000D+01
  </mgrwgt>
  </event>
  <event>
  8     66 0.29152272E-05 0.56442408E+03 0.75467711E-02 0.91823129E-01
        4 -1    0    0  501    0 0.00000000E+00 0.00000000E+00 0.72240212E+03 0.72240379E+03 0.15500000E+01 0.0000E+00 0.9000E+01
       -4 -1    0    0    0  501 0.00000000E+00 0.00000000E+00 -.49533678E+03 0.49533921E+03 0.15500000E+01 0.0000E+00 0.9000E+01
       25  2    1    2    0    0 -.26676894E+03 0.46904942E+03 0.25920664E+03 0.66954473E+03 0.29988171E+03 0.0000E+00 0.0000E+00
       23  2    3    3    0    0 -.17375083E+02 0.20369925E+03 0.17799916E+03 0.28546412E+03 0.89502987E+02 0.0000E+00 0.0000E+00
       23  1    1    2    0    0 0.26676894E+03 -.46904942E+03 -.32141302E+02 0.54819827E+03 0.91188000E+02 0.0000E+00 0.9000E+01
      -13  1    4    4    0    0 -.22820965E+02 0.11022159E+03 0.15037969E+03 0.18783945E+03 0.10565837E+00 0.0000E+00 0.9000E+01
       13  1    4    4    0    0 0.54458817E+01 0.93477655E+02 0.27619468E+02 0.97624668E+02 0.10565837E+00 0.0000E+00 0.9000E+01
       23  1    3    3    0    0 -.24939386E+03 0.26535017E+03 0.81207481E+02 0.38408061E+03 0.91188000E+02 0.0000E+00 0.9000E+01
#aMCatNLO 1  0  0  1  2 0.14838731D+03 0.00000000D+00  -5  7  0 0.00000000D+00 0.00000000D+00 0.00000000D+00 0.00000000D+00 0.00000000D+00
  <mgrwgt>
 0.1115708220D-04    4    2    0
 0.598192973751428D+03 0.000000000000000D+00 0.000000000000000D+00 0.598192973751428D+03
 0.598192973751428D+03 0.000000000000000D+00 0.000000000000000D+00 -.598192973751428D+03
 0.564084504365527D+03 0.266768944906762D+03 -.469049415261087D+03 -.136759104990739D+03
 0.162651754648637D+03 -.228210041088972D+02 0.110221616196238D+03 0.117413757221337D+03
 0.941253263097873D+02 0.544592110786386D+01 0.934776318777677D+02 0.958391020071646D+01
 0.375524362178904D+03 -.249393861905729D+03 0.265350167187081D+03 0.976143756868592D+01
 0.000000000000000D+00 -.000000000000000D+00 -.000000000000000D+00 -.000000000000000D+00
 0.618914433371057D+03 0.000000000000000D+00 0.000000000000000D+00 0.618914433371057D+03
 0.943879984007686D+03 0.000000000000000D+00 0.000000000000000D+00 -.943879984007686D+03
 0.530104182743466D+03 0.295827800014685D+03 -.408017221644775D+03 -.136759104990739D+03
 0.175024364066911D+03 -.138531893957996D+02 0.129056680477066D+03 0.117413757221337D+03
 0.105604946414248D+03 0.107502467000875D+02 0.104618285057193D+03 0.958391020071646D+01
 0.394819545412418D+03 -.228935496490607D+03 0.308318787748753D+03 0.976143756868592D+01
 0.357241378741700D+03 -.637893608283660D+02 -.133976531638238D+03 -.324965550636629D+03
0.673186460315D-04 0.000000000000D+00 0.000000000000D+00 0.592979166994D-06 0.000000000000D+00  7 4 -4 23 -13 13 23 21 0 0.11113910D+00 0.76205973D-01 0.31857454D+06 0.31857454D+06 0.31857454D+06 0.10826269D+01  1  2  2  1  7  1        4 0.117658408173D-04 0.100000000000D+01
-.372457122062D-05 0.000000000000D+00 -.258521326168D-06 0.592979166994D-06 0.000000000000D+00  7 4 -4 23 -13 13 23 21 2 0.11113910D+00 0.76205973D-01 0.31857454D+06 0.31857454D+06 0.31857454D+06 0.10826269D+01  1  2  3  1  7  1        4 -.762994660009D-06 0.100000000000D+01
0.424604075721D-05 0.000000000000D+00 0.000000000000D+00 0.592979166994D-06 0.000000000000D+00  7 4 -4 23 -13 13 23 21 2 0.11113910D+00 0.76205973D-01 0.31857454D+06 0.31857454D+06 0.31857454D+06 0.10826269D+01  1  2 15  1  7  1        4 0.869819969074D-06 0.100000000000D+01
-.349313490563D-05 0.000000000000D+00 0.000000000000D+00 0.592979166994D-06 0.000000000000D+00  7 4 -4 23 -13 13 23 21 2 0.11113910D+00 0.76205973D-01 0.31857454D+06 0.31857454D+06 0.31857454D+06 0.10826269D+01  1  2  4  1  7  1        4 -.715583921427D-06 0.100000000000D+01
  </mgrwgt>
  </event>
  <event>
  8     66 0.29152272E-05 0.34032999E+03 0.75467711E-02 0.96616270E-01
        2 -1    0    0  501    0 0.00000000E+00 0.00000000E+00 0.26531691E+04 0.26531691E+04 0.32000000E+00 0.0000E+00 0.9000E+01
       -2 -1    0    0    0  501 0.00000000E+00 0.00000000E+00 -.53809222E+02 0.53810173E+02 0.32000000E+00 0.0000E+00 0.9000E+01
       25  2    1    2    0    0 -.52090445E+02 0.28491623E+03 0.18905882E+04 0.19359001E+04 0.29915637E+03 0.0000E+00 0.0000E+00
       23  2    3    3    0    0 0.59873435E+02 0.19894173E+03 0.76444127E+03 0.79728259E+03 0.90146746E+02 0.0000E+00 0.0000E+00
       23  1    1    2    0    0 0.52090445E+02 -.28491623E+03 0.70877166E+03 0.77107924E+03 0.91188000E+02 0.0000E+00 0.9000E+01
      -13  1    4    4    0    0 0.25113135E+02 0.12144613E+03 0.59451534E+03 0.60731238E+03 0.10565837E+00 0.0000E+00 0.9000E+01
       13  1    4    4    0    0 0.34760299E+02 0.77495603E+02 0.16992593E+03 0.18997021E+03 0.10565837E+00 0.0000E+00 0.9000E+01
       23  1    3    3    0    0 -.11196388E+03 0.85974506E+02 0.11261470E+04 0.11386175E+04 0.91188000E+02 0.0000E+00 0.9000E+01
#aMCatNLO 1  0  0  2  1 0.14859225D+03 0.00000000D+00  -5  7  0 0.00000000D+00 0.00000000D+00 0.00000000D+00 0.00000000D+00 0.00000000D+00
  <mgrwgt>
 0.3787074762D-03    4    2    0
 0.377844253939774D+03 0.000000000000000D+00 0.000000000000000D+00 0.377844253939774D+03
 0.377844253939774D+03 0.000000000000000D+00 0.000000000000000D+00 -.377844253939774D+03
 0.324132120815892D+03 0.520904451616196D+02 -.284916234802194D+03 -.113383001678441D+03
 0.130507161385284D+03 0.251131221274487D+02 0.121446186296868D+03 0.406481746675392D+02
 0.960008481897728D+02 0.347603126177455D+02 0.774955421907832D+02 -.447473402609466D+02
 0.205048377488600D+03 -.111963879906814D+03 0.859745063145424D+02 0.117482167271849D+03
 0.000000000000000D+00 -.000000000000000D+00 -.000000000000000D+00 0.000000000000000D+00
 0.496188311457100D+03 0.000000000000000D+00 0.000000000000000D+00 0.496188311457100D+03
 0.434759708562703D+03 0.000000000000000D+00 0.000000000000000D+00 -.434759708562703D+03
 0.334194140023556D+03 0.115791028705113D+03 -.277681840392710D+03 -.113383001678441D+03
 0.140607409462123D+03 0.513465528705910D+02 0.124425483724814D+03 0.406481746675392D+02
 0.106349971172658D+03 0.543400651517772D+02 0.797191898309113D+02 -.447473402609466D+02
 0.189007410253804D+03 -.738344824924159D+02 0.903048135762233D+02 0.117482167271849D+03
 0.160789089107662D+03 -.147643164235065D+03 -.167676467392382D+02 0.614286028943966D+02
0.153710174884D-04 0.000000000000D+00 0.000000000000D+00 0.101398841913D-06 0.000000000000D+00  7 2 -2 23 -13 13 23 21 0 0.40817994D+00 0.82784165D-02 0.11582450D+06 0.11582450D+06 0.11582450D+06 0.11165238D+01  1  2  2  2  7  2       -2 0.478892972474D-03 0.100000000000D+01
-.842592807117D-06 0.000000000000D+00 -.590287544373D-07 0.101398841913D-06 0.000000000000D+00  7 2 -2 23 -13 13 23 21 2 0.40817994D+00 0.82784165D-02 0.11582450D+06 0.11582450D+06 0.11582450D+06 0.11165238D+01  1  2  3  2  7  2       -2 -.327257455148D-04 0.100000000000D+01
0.937094854619D-06 0.000000000000D+00 0.000000000000D+00 0.101398841913D-06 0.000000000000D+00  7 2 -2 23 -13 13 23 21 2 0.40817994D+00 0.82784165D-02 0.11582450D+06 0.11582450D+06 0.11582450D+06 0.11165238D+01  1  2 15  2  7  2       -2 0.363961423316D-04 0.100000000000D+01
-.267398731865D-05 0.000000000000D+00 0.000000000000D+00 0.101398841913D-06 0.000000000000D+00  7 2 -2 23 -13 13 23 21 2 0.40817994D+00 0.82784165D-02 0.11582450D+06 0.11582450D+06 0.11582450D+06 0.11165238D+01  1  2  4  2  7  2       -2 -.103855893096D-03 0.100000000000D+01
  </mgrwgt>
  </event>
  <event>
  8     66 0.29152272E-05 0.13810263E+03 0.75467711E-02 0.10659577E+00
        2 -1    0    0  501    0 0.00000000E+00 0.00000000E+00 0.60211216E+03 0.60211225E+03 0.32000000E+00 0.0000E+00 0.9000E+01
       -2 -1    0    0    0  501 0.00000000E+00 0.00000000E+00 -.75556443E+02 0.75557121E+02 0.32000000E+00 0.0000E+00 0.9000E+01
       25  2    1    2    0    0 -.52878521E+02 -.48503506E+01 0.29955317E+03 0.42733944E+03 0.30011203E+03 0.0000E+00 0.0000E+00
       23  2    3    3    0    0 -.30193252E+02 0.10882286E+03 0.93154475E+02 0.17366269E+03 0.93418025E+02 0.0000E+00 0.0000E+00
       23  1    1    2    0    0 0.52878521E+02 0.48503506E+01 0.22700255E+03 0.25032992E+03 0.91188000E+02 0.0000E+00 0.9000E+01
      -11  1    4    4    0    0 -.29118780E+02 0.22231914E+02 0.77415426E+02 0.85646421E+02 0.51099893E-03 0.0000E+00 0.9000E+01
       11  1    4    4    0    0 -.10744724E+01 0.86590946E+02 0.15739049E+02 0.88016271E+02 0.51099893E-03 0.0000E+00 0.9000E+01
       23  1    3    3    0    0 -.22685269E+02 -.11367321E+03 0.20639870E+03 0.25367675E+03 0.91188000E+02 0.0000E+00 0.9000E+01
#aMCatNLO 1  0  0  1  2 0.15022227D+02 0.00000000D+00  -5  7  0 0.00000000D+00 0.00000000D+00 0.00000000D+00 0.00000000D+00 0.00000000D+00
  <mgrwgt>
 0.3384043904D-03    9    2    0
 0.213292549755566D+03 0.000000000000000D+00 0.000000000000000D+00 0.213292549755566D+03
 0.213292549755566D+03 0.000000000000000D+00 0.000000000000000D+00 -.213292549755566D+03
 0.117471128247815D+03 0.528785208382006D+02 0.485035060683217D+01 0.516192867131021D+02
 0.404993540987830D+02 -.291187797135926D+02 0.222319140710854D+02 0.172637292363428D+02
 0.120394370417458D+03 -.107447248748839D+01 0.865909454973499D+02 -.836400507828915D+02
 0.148220246747077D+03 -.226852686371196D+02 -.113673210175267D+03 0.147570348334465D+02
 0.000000000000000D+00 -.000000000000000D+00 -.000000000000000D+00 0.000000000000000D+00
 0.223659999108170D+03 0.000000000000000D+00 0.000000000000000D+00 0.223659999108170D+03
 0.218936779697949D+03 0.000000000000000D+00 0.000000000000000D+00 -.218936779697949D+03
 0.118752860977720D+03 0.552656971889631D+02 0.825485310845626D+01 0.516192867131021D+02
 0.405767715372194D+02 -.282994598368762D+02 0.234003977354867D+02 0.172637292363428D+02
 0.122943976920155D+03 0.138459845573989D+01 0.900979814041096D+02 -.836400507828915D+02
 0.144575912552044D+03 -.197263986706759D+02 -.109453379411813D+03 0.147570348334465D+02
 0.157472568189799D+02 -.862443713715089D+01 -.122998528362393D+02 0.472321941022180D+01
0.549510999434D-06 0.000000000000D+00 0.000000000000D+00 0.338821049373D-07 0.000000000000D+00  7 2 -2 23 -11 11 23 21 0 0.92632699D-01 0.11624127D-01 0.35388954D+05 0.35388954D+05 0.35388954D+05 0.11607371D+01  1  2  2  1  7  1        2 0.156069464205D-03 0.100000000000D+01
-.299429573715D-07 0.000000000000D+00 -.211026692739D-08 0.338821049373D-07 0.000000000000D+00  7 2 -2 23 -11 11 23 21 2 0.92632699D-01 0.11624127D-01 0.35388954D+05 0.35388954D+05 0.35388954D+05 0.11607371D+01  1  2  3  1  7  1        2 -.114578725956D-04 0.100000000000D+01
0.346984290089D-07 0.000000000000D+00 0.000000000000D+00 0.338821049373D-07 0.000000000000D+00  7 2 -2 23 -11 11 23 21 2 0.92632699D-01 0.11624127D-01 0.35388954D+05 0.35388954D+05 0.35388954D+05 0.11607371D+01  1  2 15  1  7  1        2 0.132775855744D-04 0.100000000000D+01
0.153916135915D-05 0.000000000000D+00 0.000000000000D+00 0.338821049373D-07 0.000000000000D+00  7 2 -2 23 -11 11 23 21 2 0.98314386D-01 0.11624127D-01 0.38537593D+05 0.38537593D+05 0.38537593D+05 0.11573772D+01  1  2 12  1  7  1        2 0.547782676146D-03 0.100000000000D+01
-.141316934933D-05 0.000000000000D+00 0.000000000000D+00 0.338821049373D-07 0.000000000000D+00  7 2 -2 23 -11 11 23 21 2 0.92632699D-01 0.11624127D-01 0.35388954D+05 0.35388954D+05 0.35388954D+05 0.11607371D+01  1  2  4  1  7  1        2 -.540758688587D-03 0.100000000000D+01
-.623894663007D-05 0.000000000000D+00 -.106647104079D-05 0.338821049373D-07 0.000000000000D+00  7 2 -2 23 -11 11 23 21 2 0.99111398D-01 0.11624127D-01 0.35388954D+05 0.35388954D+05 0.35388954D+05 0.11607371D+01  1  2  5  1  7  1        2 -.221014016203D-02 0.100000000000D+01
0.629907569052D-05 0.000000000000D+00 0.106403875175D-05 0.338821049373D-07 0.000000000000D+00  7 2 -2 23 -11 11 23 21 2 0.92632699D-01 0.11624127D-01 0.35388954D+05 0.35388954D+05 0.35388954D+05 0.11607371D+01  1  2  6  1  7  1        2 0.241038337786D-02 0.100000000000D+01
0.183879320926D-07 0.000000000000D+00 0.000000000000D+00 0.338821049373D-07 0.000000000000D+00  7 21 -2 23 -11 11 23 -2 2 0.98314386D-01 0.11624127D-01 0.38537593D+05 0.38537593D+05 0.38537593D+05 0.11573772D+01  1  2 12  3  7  1        2 0.968941754501D-05 0.100000000000D+01
-.699777250926D-07 0.000000000000D+00 -.122484984792D-07 0.338821049373D-07 0.000000000000D+00  7 21 -2 23 -11 11 23 -2 2 0.99111398D-01 0.11624127D-01 0.35388954D+05 0.35388954D+05 0.35388954D+05 0.11607371D+01  1  2  5  3  7  1        2 -.364414076762D-04 0.100000000000D+01
  </mgrwgt>
  </event>
  <event>
  8     66 0.29152272E-05 0.11440391E+03 0.75467711E-02 0.10453582E+00
        2 -1    0    0  501    0 0.00000000E+00 0.00000000E+00 0.29606038E+04 0.29606038E+04 0.32000000E+00 0.0000E+00 0.9000E+01
       -2 -1    0    0    0  501 0.00000000E+00 0.00000000E+00 -.43150267E+02 0.43151454E+02 0.32000000E+00 0.0000E+00 0.9000E+01
       25  2    1    2    0    0 -.15253558E+03 0.60634319E+02 0.26746810E+04 0.26968394E+04 0.30344757E+03 0.0000E+00 0.0000E+00
       23  2    3    3    0    0 -.12340039E+03 0.47359791E+02 0.63049471E+03 0.65036973E+03 0.89367793E+02 0.0000E+00 0.0000E+00
       23  1    1    2    0    0 0.15253558E+03 -.60634319E+02 0.24277250E+03 0.30691589E+03 0.91188000E+02 0.0000E+00 0.9000E+01
      -11  1    4    4    0    0 0.11778442E+02 0.13269774E+02 0.11481137E+03 0.11617430E+03 0.51099893E-03 0.0000E+00 0.9000E+01
       11  1    4    4    0    0 -.13517884E+03 0.34090017E+02 0.51568334E+03 0.53419543E+03 0.51099893E-03 0.0000E+00 0.9000E+01
       23  1    3    3    0    0 -.29135182E+02 0.13274528E+02 0.20441863E+04 0.20464697E+04 0.91188000E+02 0.0000E+00 0.9000E+01
#aMCatNLO 1  0  0  2  1 0.12939526D+02 0.00000000D+00  -5  7  0 0.00000000D+00 0.00000000D+00 0.00000000D+00 0.00000000D+00 0.00000000D+00
  <mgrwgt>
 0.6519684068D-03    6    2    0
 0.357425032375308D+03 0.000000000000000D+00 0.000000000000000D+00 0.357425032375308D+03
 0.357425032375308D+03 0.000000000000000D+00 0.000000000000000D+00 -.357425032375308D+03
 0.298835699809156D+03 0.152535576620303D+03 -.606343185814216D+02 -.232473442379353D+03
 0.195878077099761D+02 0.117784421128984D+02 0.132697738432741D+02 0.829841035527031D+01
 0.140043559825714D+03 -.135178836514711D+03 0.340900171590153D+02 -.132947936157510D+02
 0.256382997405769D+03 -.291351822184897D+02 0.132745275791322D+02 0.237469825639834D+03
 0.000000000000000D+00 0.000000000000000D+00 0.000000000000000D+00 0.000000000000000D+00
 0.364639068592436D+03 0.000000000000000D+00 0.000000000000000D+00 0.364639068592436D+03
 0.363333335717860D+03 0.000000000000000D+00 0.000000000000000D+00 -.363333335717860D+03
 0.296622645516660D+03 0.147432543585782D+03 -.623657451604826D+02 -.232473442379353D+03
 0.193119432277460D+02 0.114450741861105D+02 0.131566642307863D+02 0.829841035527031D+01
 0.142185370269783D+03 -.137597517124161D+03 0.332693742462354D+02 -.132947936157510D+02
 0.256847205544174D+03 -.335335262849148D+02 0.117821974748692D+02 0.237469825639834D+03
 0.130052397519327D+02 0.122534256371831D+02 0.415750920859170D+01 0.130573287457623D+01
0.135856354784D-04 0.000000000000D+00 0.000000000000D+00 0.837519972497D-08 0.000000000000D+00  7 2 -2 23 -11 11 23 21 0 0.45547760D+00 0.66385953D-02 0.48746682D+05 0.48746682D+05 0.48746682D+05 0.11482664D+01  1  2  2  2  7  2       -2 0.398726517592D-03 0.100000000000D+01
-.541798855267D-06 0.000000000000D+00 -.521724174171D-07 0.837519972497D-08 0.000000000000D+00  7 2 -2 23 -11 11 23 21 2 0.45547760D+00 0.66385953D-02 0.48746682D+05 0.48746682D+05 0.48746682D+05 0.11482664D+01  1  2  3  2  7  2       -2 -.209661437830D-04 0.100000000000D+01
0.830760778708D-06 0.000000000000D+00 0.000000000000D+00 0.837519972497D-08 0.000000000000D+00  7 2 -2 23 -11 11 23 21 2 0.45547760D+00 0.66385953D-02 0.48746682D+05 0.48746682D+05 0.48746682D+05 0.11482664D+01  1  2 15  2  7  2       -2 0.321481851915D-04 0.100000000000D+01
0.111415705012D-04 0.000000000000D+00 0.000000000000D+00 0.837519972497D-08 0.000000000000D+00  7 2 -2 23 -11 11 23 21 2 0.45547760D+00 0.68141135D-02 0.51538383D+05 0.51538383D+05 0.51538383D+05 0.11461396D+01  1  2 12  2  7  2       -2 0.412311204788D-03 0.100000000000D+01
-.774732100161D-05 0.000000000000D+00 0.000000000000D+00 0.837519972497D-08 0.000000000000D+00  7 2 -2 23 -11 11 23 21 2 0.45547760D+00 0.66385953D-02 0.48746682D+05 0.48746682D+05 0.48746682D+05 0.11482664D+01  1  2  4  2  7  2       -2 -.299800275459D-03 0.100000000000D+01
0.222216443158D-06 0.000000000000D+00 0.000000000000D+00 0.837519972497D-08 0.000000000000D+00  7 2 21 23 -11 11 23 2 2 0.45547760D+00 0.68141135D-02 0.51538383D+05 0.51538383D+05 0.51538383D+05 0.11461396D+01  1  2 12  4  7  2       -2 0.129548918448D-03 0.100000000000D+01
  </mgrwgt>
  </event>
  <event>
  9     66 0.29152272E-05 0.17802010E+03 0.75467711E-02 0.10632330E+00
        2 -1    0    0  501    0 0.00000000E+00 0.00000000E+00 0.91234295E+03 0.91234300E+03 0.32000000E+00 0.0000E+00 0.9000E+01
       21 -1    0    0  502  501 0.00000000E+00 0.00000000E+00 -.72817156E+02 0.72821018E+02 0.75000000E+00 0.0000E+00 0.9000E+01
       25  2    1    2    0    0 -.92796477E+02 0.68461658E+02 0.61714264E+03 0.69571023E+03 0.29974906E+03 0.0000E+00 0.0000E+00
       23  2    3    3    0    0 0.32253583E+01 0.44710174E+02 0.52280165E+03 0.53139408E+03 0.83956482E+02 0.0000E+00 0.0000E+00
       23  1    1    2    0    0 0.94829787E+02 -.29964682E+02 0.20875324E+03 0.24856335E+03 0.91188000E+02 0.0000E+00 0.9000E+01
      -13  1    4    4    0    0 0.31088538E+02 -.83265196E+01 0.12358409E+03 0.12770618E+03 0.10565837E+00 0.0000E+00 0.9000E+01
       13  1    4    4    0    0 -.27863180E+02 0.53036694E+02 0.39921756E+03 0.40368790E+03 0.10565837E+00 0.0000E+00 0.9000E+01
       23  1    3    3    0    0 -.96021835E+02 0.23751484E+02 0.94340985E+02 0.16431615E+03 0.91188000E+02 0.0000E+00 0.9000E+01
        2  1    1    2  502    0 -.20333108E+01 -.38496976E+02 0.13629911E+02 0.40890444E+02 0.32000000E+00 0.0000E+00 0.9000E+01
#aMCatNLO 2  0  0  2  1 0.38550636D+02 0.00000000D+00  -5  7  0 0.00000000D+00 0.00000000D+00 0.00000000D+00 0.00000000D+00 0.00000000D+00
  <mgrwgt>
 0.2800961171D-04    2    2    0
 0.228069305126793D+03 0.000000000000000D+00 0.000000000000000D+00 0.228069305126793D+03
 0.228069305126793D+03 0.000000000000000D+00 0.000000000000000D+00 -.228069305126793D+03
 0.138694885949412D+03 0.942184033180455D+02 -.415402012217199D+02 -.178416423901378D+02
 0.411700670843714D+02 0.309070078222884D+02 -.117652429934078D+02 0.245216302172328D+02
 0.108507865995147D+03 -.283548912252463D+02 0.437288538726836D+02 0.951721832543872D+02
 0.167765791224656D+03 -.967705199150876D+02 0.957659034244410D+01 -.101852171081482D+03
 0.000000000000000D+00 -.000000000000000D+00 -.000000000000000D+00 -.000000000000000D+00
 0.235931430985127D+03 0.000000000000000D+00 0.000000000000000D+00 0.235931430985127D+03
 0.281589919126876D+03 0.000000000000000D+00 0.000000000000000D+00 -.281589919126876D+03
 0.136103443414836D+03 0.948297922548853D+02 -.299646835974138D+02 -.178416423901378D+02
 0.404616559305863D+02 0.310886273119774D+02 -.832661419734406D+01 0.245216302172328D+02
 0.112458913433429D+03 -.278632701711289D+02 0.530367883698808D+02 0.951721832543872D+02
 0.168740755712237D+03 -.960218385804981D+02 0.237514853418937D+02 -.101852171081482D+03
 0.597565816209140D+02 -.203331081523571D+01 -.384969759170166D+02 -.456584881417491D+02
-.846720039720D-07 0.000000000000D+00 0.000000000000D+00 0.317509544505D-08 0.000000000000D+00  7 2 21 23 -13 13 23 2 2 0.13568316D+00 0.11333646D-01 0.40021826D+05 0.40021826D+05 0.40021826D+05 0.11558970D+01  1  2 13  4  7  2       -2 -.307722175104D-03 0.100000000000D+01
0.946423821813D-07 0.000000000000D+00 0.000000000000D+00 0.317509544505D-08 0.482068337764D-12  7 2 21 23 -13 13 23 2 2 0.14036051D+00 0.11202921D-01 0.40021826D+05 0.40021826D+05 0.40021826D+05 0.11558970D+01  1  2  1  4  7  2       -2 0.335731786819D-03 0.100000000000D+01
  </mgrwgt>
  </event>
  <event>
  8     66 0.29152272E-05 0.21447736E+03 0.75467711E-02 0.10202204E+00
        2 -1    0    0  501    0 0.00000000E+00 0.00000000E+00 0.22034057E+04 0.22034058E+04 0.32000000E+00 0.0000E+00 0.9000E+01
       -2 -1    0    0    0  501 0.00000000E+00 0.00000000E+00 -.10156895E+03 0.10156946E+03 0.32000000E+00 0.0000E+00 0.9000E+01
       25  2    1    2    0    0 0.15429010E+03 -.88349058E+02 0.21947183E+03 0.41203463E+03 0.29998944E+03 0.0000E+00 0.0000E+00
       23  2    3    3    0    0 0.17698747E+03 0.16484900E+02 0.16776260E+03 0.26205321E+03 0.94505457E+02 0.0000E+00 0.0000E+00
       23  1    1    2    0    0 -.15429010E+03 0.88349058E+02 0.18823650E+04 0.18929406E+04 0.91188000E+02 0.0000E+00 0.9000E+01
      -13  1    4    4    0    0 0.14562057E+03 0.51032537E+02 0.12214816E+03 0.19679902E+03 0.10565837E+00 0.0000E+00 0.9000E+01
       13  1    4    4    0    0 0.31366896E+02 -.34547637E+02 0.45614439E+02 0.65254192E+02 0.10565837E+00 0.0000E+00 0.9000E+01
       23  1    3    3    0    0 -.22697369E+02 -.10483396E+03 0.51709231E+02 0.14998142E+03 0.91188000E+02 0.0000E+00 0.9000E+01
#aMCatNLO 1  0  0  1  2 0.58012743D+01 0.00000000D+00  -5  7  0 0.00000000D+00 0.00000000D+00 0.00000000D+00 0.00000000D+00 0.00000000D+00
  <mgrwgt>
 0.1107857640D-02   11    2    0
 0.473073164353689D+03 0.000000000000000D+00 0.000000000000000D+00 0.473073164353689D+03
 0.473073164353689D+03 0.000000000000000D+00 0.000000000000000D+00 -.473073164353689D+03
 0.429909433979654D+03 -.154290097265918D+03 0.883490577256525D+02 0.380651914438073D+03
 0.208087841073668D+03 0.145620713703837D+03 0.510326437673677D+02 -.139609550580173D+03
 0.576390874247105D+02 0.313667531040785D+02 -.345477428477206D+02 -.338355532389967D+02
 0.250509966229346D+03 -.226973695419979D+02 -.104833958645300D+03 -.207206810618903D+03
 0.000000000000000D+00 -.000000000000000D+00 -.000000000000000D+00 0.000000000000000D+00
 0.478927707612205D+03 0.000000000000000D+00 0.000000000000000D+00 0.478927707612205D+03
 0.474521365549987D+03 0.000000000000000D+00 0.000000000000000D+00 -.474521365549987D+03
 0.429036029226092D+03 -.151672445796850D+03 0.886355022026955D+02 0.380651914438073D+03
 0.209013361753889D+03 0.146891836985933D+03 0.511717403003095D+02 -.139609550580173D+03
 0.578083117023438D+02 0.317185810918498D+02 -.345092429996097D+02 -.338355532389967D+02
 0.250306411047430D+03 -.211711227872634D+02 -.104666944450070D+03 -.207206810618903D+03
 0.728495943243602D+01 -.576684949366935D+01 -.631055053325367D+00 0.440634206221857D+01
0.136479797112D-04 0.000000000000D+00 0.000000000000D+00 0.284697091971D-06 0.000000000000D+00  7 2 -2 23 -13 13 23 21 0 0.33898554D+00 0.15626033D-01 0.73323955D+05 0.73323955D+05 0.73323955D+05 0.11329508D+01  1  2  2  1  7  1        2 0.287346330145D-03 0.100000000000D+01
-.471252202554D-06 0.000000000000D+00 -.524118356866D-07 0.284697091971D-06 0.000000000000D+00  7 2 -2 23 -13 13 23 21 2 0.33898554D+00 0.15626033D-01 0.73323955D+05 0.73323955D+05 0.73323955D+05 0.11329508D+01  1  2  3  1  7  1        2 -.127354061100D-04 0.100000000000D+01
0.804961890758D-06 0.000000000000D+00 0.000000000000D+00 0.284697091971D-06 0.000000000000D+00  7 2 -2 23 -13 13 23 21 2 0.33898554D+00 0.15626033D-01 0.73323955D+05 0.73323955D+05 0.73323955D+05 0.11329508D+01  1  2 15  1  7  1        2 0.217537796669D-04 0.100000000000D+01
0.589203206542D-05 0.000000000000D+00 0.000000000000D+00 0.284697091971D-06 0.000000000000D+00  7 2 -2 23 -13 13 23 21 2 0.34369549D+00 0.15626033D-01 0.74686130D+05 0.74686130D+05 0.74686130D+05 0.11322750D+01  1  2 12  1  7  1        2 0.152939882769D-03 0.100000000000D+01
-.800944966126D-04 0.000000000000D+00 0.000000000000D+00 0.284697091971D-06 0.000000000000D+00  7 2 -2 23 -13 13 23 21 2 0.33898554D+00 0.15626033D-01 0.73323955D+05 0.73323955D+05 0.73323955D+05 0.11329508D+01  1  2  4  1  7  1        2 -.216452238527D-02 0.100000000000D+01
-.877496865788D-03 0.000000000000D+00 -.941575752339D-04 0.284697091971D-06 0.000000000000D+00  7 2 -2 23 -13 13 23 21 2 0.34357806D+00 0.15626033D-01 0.73323955D+05 0.73323955D+05 0.73323955D+05 0.11329508D+01  1  2  5  1  7  1        2 -.228413357657D-01 0.100000000000D+01
0.878692896336D-03 0.000000000000D+00 0.941490504913D-04 0.284697091971D-06 0.000000000000D+00  7 2 -2 23 -13 13 23 21 2 0.33898554D+00 0.15626033D-01 0.73323955D+05 0.73323955D+05 0.73323955D+05 0.11329508D+01  1  2  6  1  7  1        2 0.237463312005D-01 0.100000000000D+01
0.741974183863D-04 0.000000000000D+00 0.000000000000D+00 0.284697091971D-06 0.578463116303D-07  7 2 -2 23 -13 13 23 21 2 0.34318067D+00 0.15673869D-01 0.74686130D+05 0.74686130D+05 0.74686130D+05 0.11322750D+01  1  2 11  1  7  1        2 0.192463581589D-02 0.100000000000D+01
0.476937151365D-06 0.000000000000D+00 0.000000000000D+00 0.284697091971D-06 0.000000000000D+00  7 21 -2 23 -13 13 23 -2 2 0.34369549D+00 0.15626033D-01 0.74686130D+05 0.74686130D+05 0.74686130D+05 0.11322750D+01  1  2 12  3  7  1        2 0.207379746079D-05 0.100000000000D+01
-.216375688413D-05 0.000000000000D+00 -.232851055765D-06 0.284697091971D-06 0.000000000000D+00  7 21 -2 23 -13 13 23 -2 2 0.34357806D+00 0.15626033D-01 0.73323955D+05 0.73323955D+05 0.73323955D+05 0.11329508D+01  1  2  5  3  7  1        2 -.945257969677D-05 0.100000000000D+01
0.188736609934D-06 0.000000000000D+00 0.000000000000D+00 0.284697091971D-06 0.130925094649D-09  7 21 -2 23 -13 13 23 -2 2 0.34318067D+00 0.15673869D-01 0.74686130D+05 0.74686130D+05 0.74686130D+05 0.11322750D+01  1  2 11  3  7  1        2 0.822970294931D-06 0.100000000000D+01
  </mgrwgt>
  </event>
  <event>
  8     66 0.29152272E-05 0.18240808E+03 0.75467711E-02 0.10751425E+00
        2 -1    0    0  501    0 0.00000000E+00 0.00000000E+00 0.12533693E+04 0.12533693E+04 0.32000000E+00 0.0000E+00 0.9000E+01
       -2 -1    0    0    0  501 0.00000000E+00 0.00000000E+00 -.73811077E+02 0.73811770E+02 0.32000000E+00 0.0000E+00 0.9000E+01
       25  2    1    2    0    0 -.42099543E+02 -.25521217E+02 0.11874126E+04 0.12232549E+04 0.28979312E+03 0.0000E+00 0.0000E+00
       23  2    3    3    0    0 -.61227516E+01 -.10163323E+03 0.33766542E+03 0.36449244E+03 0.92032586E+02 0.0000E+00 0.0000E+00
       23  1    1    2    0    0 0.42099543E+02 0.25521217E+02 -.78544695E+01 0.10392617E+03 0.91188000E+02 0.0000E+00 0.9000E+01
      -11  1    4    4    0    0 0.28313233E+02 -.98515190E+02 0.24447310E+03 0.26509240E+03 0.51099893E-03 0.0000E+00 0.9000E+01
       11  1    4    4    0    0 -.34435985E+02 -.31180444E+01 0.93192318E+02 0.99400037E+02 0.51099893E-03 0.0000E+00 0.9000E+01
       23  1    3    3    0    0 -.35976791E+02 0.76112018E+02 0.84974723E+03 0.85876246E+03 0.91188000E+02 0.0000E+00 0.9000E+01
#aMCatNLO 1  0  0  2  2 0.33764306D+01 0.00000000D+00  -5  7  0 0.00000000D+00 0.00000000D+00 0.00000000D+00 0.00000000D+00 0.00000000D+00
  <mgrwgt>
 0.9590552544D-03    6    2    0
 0.304159533414816D+03 0.000000000000000D+00 0.000000000000000D+00 0.304159533414816D+03
 0.304159533414816D+03 0.000000000000000D+00 0.000000000000000D+00 -.304159533414816D+03
 0.241967829418572D+03 0.420995429186236D+02 0.255212165843037D+02 -.218653779111259D+03
 0.104312634950355D+03 0.283132329477817D+02 -.985151903010097D+02 0.193453852452334D+02
 0.361587980626035D+02 -.344359845049903D+02 -.311804439638167D+01 0.105782535253415D+02
 0.225879804398101D+03 -.359767913614151D+02 0.761120181130876D+02 0.188730140340684D+03
 0.000000000000000D+00 -.000000000000000D+00 -.000000000000000D+00 0.000000000000000D+00
 0.310940817725514D+03 0.000000000000000D+00 0.000000000000000D+00 0.310940817725514D+03
 0.304584793924143D+03 0.000000000000000D+00 0.000000000000000D+00 -.304584793924143D+03
 0.242241242495676D+03 0.431214520830285D+02 0.263938150418705D+02 -.218653779111259D+03
 0.104078677824292D+03 0.287530367529126D+02 -.981396460399768D+02 0.193453852452334D+02
 0.360027634172945D+02 -.342836896281047D+02 -.298800125820990D+01 0.105782535253415D+02
 0.226005753335834D+03 -.350231000336485D+02 0.769263660126767D+02 0.188730140340684D+03
 0.719717457656081D+01 -.256769917418800D+01 -.219253375636056D+01 0.635602380137039D+01
0.705445130077D-05 0.000000000000D+00 0.000000000000D+00 0.141743923783D-08 0.000000000000D+00  7 2 -2 23 -11 11 23 21 0 0.19282610D+00 0.11355607D-01 0.33272709D+05 0.33272709D+05 0.33272709D+05 0.11631867D+01  1  2  2  2  7  2       -2 0.798428687409D-03 0.100000000000D+01
-.267338089682D-06 0.000000000000D+00 -.270909504747D-07 0.141743923783D-08 0.000000000000D+00  7 2 -2 23 -11 11 23 21 2 0.19282610D+00 0.11355607D-01 0.33272709D+05 0.33272709D+05 0.33272709D+05 0.11631867D+01  1  2  3  2  7  2       -2 -.409385602048D-04 0.100000000000D+01
0.435257022245D-06 0.000000000000D+00 0.000000000000D+00 0.141743923783D-08 0.000000000000D+00  7 2 -2 23 -11 11 23 21 2 0.19282610D+00 0.11355607D-01 0.33272709D+05 0.33272709D+05 0.33272709D+05 0.11631867D+01  1  2 15  2  7  2       -2 0.666526637895D-04 0.100000000000D+01
-.451747210785D-05 0.000000000000D+00 0.000000000000D+00 0.141743923783D-08 0.000000000000D+00  7 2 -2 23 -11 11 23 21 2 0.19282610D+00 0.11355607D-01 0.33272709D+05 0.33272709D+05 0.33272709D+05 0.11631867D+01  1  2  4  2  7  2       -2 -.691778728876D-03 0.100000000000D+01
0.450520706295D-05 0.000000000000D+00 0.000000000000D+00 0.141743923783D-08 0.896126100505D-09  7 2 -2 23 -11 11 23 21 2 0.19712518D+00 0.11371484D-01 0.33977030D+05 0.33977030D+05 0.33977030D+05 0.11623527D+01  1  2 11  2  7  2       -2 0.663621785001D-03 0.100000000000D+01
0.759138520930D-07 0.000000000000D+00 0.000000000000D+00 0.141743923783D-08 0.237031650237D-12  7 2 21 23 -11 11 23 2 2 0.19712518D+00 0.11371484D-01 0.33977030D+05 0.33977030D+05 0.33977030D+05 0.11623527D+01  1  2 11  4  7  2       -2 0.163069407282D-03 0.100000000000D+01
  </mgrwgt>
  </event>
  <event>
  8     66 0.29152272E-05 0.27085003E+03 0.75467711E-02 0.93021770E-01
        2 -1    0    0  501    0 0.00000000E+00 0.00000000E+00 0.28475910E+04 0.28475910E+04 0.32000000E+00 0.0000E+00 0.9000E+01
       -2 -1    0    0    0  501 0.00000000E+00 0.00000000E+00 -.12082967E+03 0.12083009E+03 0.32000000E+00 0.0000E+00 0.9000E+01
       25  2    1    2    0    0 0.77446132E+02 -.51501381E+03 0.10447757E+04 0.12052910E+04 0.29988802E+03 0.0000E+00 0.0000E+00
       23  2    3    3    0    0 -.61459781E+02 -.26166576E+03 0.37570285E+03 0.47081573E+03 0.90931515E+02 0.0000E+00 0.0000E+00
       23  1    1    2    0    0 -.77446132E+02 0.51501381E+03 0.16819856E+04 0.17631301E+04 0.91188000E+02 0.0000E+00 0.9000E+01
      -11  1    4    4    0    0 0.22368802E+02 -.30934903E+02 0.54676317E+02 0.66684565E+02 0.51099893E-03 0.0000E+00 0.9000E+01
       11  1    4    4    0    0 -.83828582E+02 -.23073086E+03 0.32102653E+03 0.40413116E+03 0.51099893E-03 0.0000E+00 0.9000E+01
       23  1    3    3    0    0 0.13890591E+03 -.25334805E+03 0.66907288E+03 0.73447523E+03 0.91188000E+02 0.0000E+00 0.9000E+01
#aMCatNLO 1  0  0  1  2 0.38713908D+02 0.00000000D+00  -5  7  0 0.00000000D+00 0.00000000D+00 0.00000000D+00 0.00000000D+00 0.00000000D+00
  <mgrwgt>
 0.3553214650D-03    6    2    0
 0.586578319954910D+03 0.000000000000000D+00 0.000000000000000D+00 0.586578319954910D+03
 0.586578319954910D+03 0.000000000000000D+00 0.000000000000000D+00 -.586578319954910D+03
 0.551792866555266D+03 -.774461321908262D+02 0.515013812185123D+03 0.157870155838603D+03
 0.416471255994415D+02 0.223688016018238D+02 -.309349032293769D+02 -.166478691664426D+02
 0.276407020641376D+03 -.838285824329781D+02 -.230730860160063D+03 -.127031019821605D+03
 0.303309627113736D+03 0.138905913021981D+03 -.253348048795683D+03 -.141912668505554D+02
 0.000000000000000D+00 -.000000000000000D+00 0.000000000000000D+00 -.000000000000000D+00
 0.604776292186895D+03 0.000000000000000D+00 0.000000000000000D+00 0.604776292186895D+03
 0.607855088088598D+03 0.000000000000000D+00 0.000000000000000D+00 -.607855088088598D+03
 0.536266784492818D+03 -.680687607047601D+02 0.499710386641983D+03 0.157870155838603D+03
 0.429258971358535D+02 0.230976887093684D+02 -.321244124213971D+02 -.166478691664426D+02
 0.281604314624925D+03 -.790193979556496D+02 -.238579221151347D+03 -.127031019821605D+03
 0.312998245034978D+03 0.144217522418909D+03 -.262016343428238D+03 -.141912668505554D+02
 0.388361389869172D+02 -.202270524678675D+02 0.330095903589992D+02 -.307879590170365D+01
0.466351831926D-04 0.000000000000D+00 0.000000000000D+00 0.240474705945D-05 0.000000000000D+00  7 2 -2 23 -11 11 23 21 0 0.43809095D+00 0.18589214D-01 0.31101077D+06 0.31101077D+06 0.31101077D+06 0.10833956D+01  1  2  2  1  7  1        2 0.295164339595D-03 0.100000000000D+01
-.258280529335D-05 0.000000000000D+00 -.179091382785D-06 0.240474705945D-05 0.000000000000D+00  7 2 -2 23 -11 11 23 21 2 0.43809095D+00 0.18589214D-01 0.31101077D+06 0.31101077D+06 0.31101077D+06 0.10833956D+01  1  2  3  1  7  1        2 -.191873943456D-04 0.100000000000D+01
0.294636344473D-05 0.000000000000D+00 0.000000000000D+00 0.240474705945D-05 0.000000000000D+00  7 2 -2 23 -11 11 23 21 2 0.43809095D+00 0.18589214D-01 0.31101077D+06 0.31101077D+06 0.31101077D+06 0.10833956D+01  1  2 15  1  7  1        2 0.218882303846D-04 0.100000000000D+01
0.794042264378D-04 0.000000000000D+00 0.000000000000D+00 0.240474705945D-05 0.000000000000D+00  7 2 -2 23 -11 11 23 21 2 0.45936616D+00 0.18589214D-01 0.33338147D+06 0.33338147D+06 0.33338147D+06 0.10811781D+01  1  2 12  1  7  1        2 0.480002193687D-03 0.100000000000D+01
-.569263304805D-04 0.000000000000D+00 0.000000000000D+00 0.240474705945D-05 0.000000000000D+00  7 2 -2 23 -11 11 23 21 2 0.43809095D+00 0.18589214D-01 0.31101077D+06 0.31101077D+06 0.31101077D+06 0.10833956D+01  1  2  4  1  7  1        2 -.422899842426D-03 0.100000000000D+01
0.866016441524D-06 0.000000000000D+00 0.000000000000D+00 0.240474705945D-05 0.000000000000D+00  7 21 -2 23 -11 11 23 -2 2 0.45936616D+00 0.18589214D-01 0.33338147D+06 0.33338147D+06 0.33338147D+06 0.10811781D+01  1  2 12  3  7  1        2 0.353938096881D-06 0.100000000000D+01
  </mgrwgt>
  </event>
  <event>
  8     66 0.29152272E-05 0.30572116E+03 0.75467711E-02 0.97259652E-01
        2 -1    0    0  501    0 0.00000000E+00 0.00000000E+00 0.28026198E+04 0.28026198E+04 0.32000000E+00 0.0000E+00 0.9000E+01
       -2 -1    0    0    0  501 0.00000000E+00 0.00000000E+00 -.55655566E+02 0.55656486E+02 0.32000000E+00 0.0000E+00 0.9000E+01
       25  2    1    2    0    0 -.17754562E+03 0.14385776E+03 0.24234287E+04 0.24518185E+04 0.29358035E+03 0.0000E+00 0.0000E+00
       23  2    3    3    0    0 -.20513854E+02 0.16246408E+03 0.13152732E+04 0.13287293E+04 0.93609510E+02 0.0000E+00 0.0000E+00
       23  1    1    2    0    0 0.17754562E+03 -.14385776E+03 0.32353546E+03 0.40645780E+03 0.91188000E+02 0.0000E+00 0.9000E+01
      -11  1    4    4    0    0 -.34278811E+01 0.16548327E+03 0.12592328E+04 0.12700644E+04 0.51099893E-03 0.0000E+00 0.9000E+01
       11  1    4    4    0    0 -.17085973E+02 -.30191813E+01 0.56040383E+02 0.58664900E+02 0.51099893E-03 0.0000E+00 0.9000E+01
       23  1    3    3    0    0 -.15703177E+03 -.18606326E+02 0.11081556E+04 0.11230891E+04 0.91188000E+02 0.0000E+00 0.9000E+01
#aMCatNLO 1  0  0  2  2 0.17309584D+03 0.00000000D+00  -5  7  0 0.00000000D+00 0.00000000D+00 0.00000000D+00 0.00000000D+00 0.00000000D+00
  <mgrwgt>
 0.2071114436D-02    3    2    0
 0.394946488957711D+03 0.000000000000000D+00 0.000000000000000D+00 0.394946488957711D+03
 0.394946488957711D+03 0.000000000000000D+00 0.000000000000000D+00 -.394946488957711D+03
 0.345652360853523D+03 0.177545620882378D+03 -.143857757752220D+03 -.242781385735415D+03
 0.216646632969887D+03 -.342788106459576D+01 0.165483265202841D+03 0.139783053859909D+03
 0.173942100474315D+02 -.170859725173054D+02 -.301918127281136D+01 -.122989054551913D+01
 0.210199774044581D+03 -.157031767300477D+03 -.186063261778094D+02 0.104228222421025D+03
 0.000000000000000D+00 0.000000000000000D+00 0.000000000000000D+00 0.000000000000000D+00
 0.771641946818229D+03 0.000000000000000D+00 0.000000000000000D+00 0.771641946818229D+03
 0.424710492201490D+03 0.000000000000000D+00 0.000000000000000D+00 -.424710492201490D+03
 0.326431966908484D+03 0.108245304420477D+03 -.166080493999300D+03 -.242781385735415D+03
 0.211429419752755D+03 -.475678865639433D+02 0.151328759852264D+03 0.139783053859909D+03
 0.215743531361238D+02 -.211041197186820D+02 -.430769235063919D+01 -.122989054551913D+01
 0.249200819798495D+03 -.204401725534920D+03 -.337965899691439D+02 0.104228222421025D+03
 0.387715879423861D+03 0.164828427397068D+03 0.528560164668193D+02 0.346931454616739D+03
0.838511021894D-04 0.000000000000D+00 0.000000000000D+00 0.193034262293D-08 0.000000000000D+00  7 2 -2 23 -11 11 23 21 0 0.43117234D+00 0.85624669D-02 0.93465426D+05 0.93465426D+05 0.93465426D+05 0.11241385D+01  1  2  2  2  7  2       -2 0.204026376110D-02 0.100000000000D+01
-.428698044487D-05 0.000000000000D+00 -.322010310909D-06 0.193034262293D-08 0.000000000000D+00  7 2 -2 23 -11 11 23 21 2 0.43117234D+00 0.85624669D-02 0.93465426D+05 0.93465426D+05 0.93465426D+05 0.11241385D+01  1  2  3  2  7  2       -2 -.131816158731D-03 0.100000000000D+01
0.529031903133D-05 0.000000000000D+00 0.000000000000D+00 0.193034262293D-08 0.000000000000D+00  7 2 -2 23 -11 11 23 21 2 0.43117234D+00 0.85624669D-02 0.93465426D+05 0.93465426D+05 0.93465426D+05 0.11241385D+01  1  2 15  2  7  2       -2 0.162666833250D-03 0.100000000000D+01
  </mgrwgt>
  </event>
  <event>
  9     66 0.29152272E-05 0.64918786E+03 0.75467711E-02 0.88835649E-01
        2 -1    0    0  501    0 0.00000000E+00 0.00000000E+00 0.15358798E+04 0.15358798E+04 0.32000000E+00 0.0000E+00 0.9000E+01
       21 -1    0    0  502  501 0.00000000E+00 0.00000000E+00 -.96154622E+03 0.96154651E+03 0.75000000E+00 0.0000E+00 0.9000E+01
       25  2    1    2    0    0 -.50594241E+03 -.53491734E+03 0.62422368E+03 0.10108336E+04 0.30002520E+03 0.0000E+00 0.0000E+00
       23  2    3    3    0    0 -.35752892E+03 -.25909387E+03 0.46519385E+03 0.64791367E+03 0.91816357E+02 0.0000E+00 0.0000E+00
       23  1    1    2    0    0 0.54373840E+03 0.16620226E+03 0.54032557E+03 0.78964651E+03 0.91188000E+02 0.0000E+00 0.9000E+01
      -11  1    4    4    0    0 -.61341758E+01 0.76449580E+01 0.93289410E+01 0.13531542E+02 0.51099893E-03 0.0000E+00 0.9000E+01
       11  1    4    4    0    0 -.35139474E+03 -.26673883E+03 0.45586490E+03 0.63438212E+03 0.51099893E-03 0.0000E+00 0.9000E+01
       23  1    3    3    0    0 -.14841349E+03 -.27582348E+03 0.15902983E+03 0.36291995E+03 0.91188000E+02 0.0000E+00 0.9000E+01
        2  1    1    2  502    0 -.37795985E+02 0.36871508E+03 -.59021569E+03 0.69694620E+03 0.32000000E+00 0.0000E+00 0.9000E+01
#aMCatNLO 2  0  0  2  1 0.37064720D+03 0.00000000D+00  -5  7  0 0.00000000D+00 0.00000000D+00 0.00000000D+00 0.00000000D+00 0.00000000D+00
  <mgrwgt>
 0.5595625163D-04    2    2    0
 0.661092731737119D+03 0.000000000000000D+00 0.000000000000000D+00 0.661092731737119D+03
 0.661092731737119D+03 0.000000000000000D+00 0.000000000000000D+00 -.661092731737119D+03
 0.630196965195474D+03 0.526808208066698D+03 0.331363085216114D+03 0.387889322771139D+02
 0.125170944244806D+02 -.644755450163817D+01 0.107020934779251D+02 0.756233409419361D+00
 0.398012211189636D+03 -.363218733733051D+03 -.151391040775892D+03 0.597212231473424D+02
 0.281459192664649D+03 -.157141919832009D+03 -.190674137918146D+03 -.992663888338756D+02
 0.000000000000000D+00 -.000000000000000D+00 0.000000000000000D+00 -.000000000000000D+00
 0.711291659672952D+03 0.000000000000000D+00 0.000000000000000D+00 0.711291659672952D+03
 0.207625060004631D+04 0.000000000000000D+00 0.000000000000000D+00 -.207625060004631D+04
 0.577143370209471D+03 0.543738397007814D+03 0.166202264680481D+03 0.387889322771139D+02
 0.983083847988211D+01 -.613417581675612D+01 0.764495803109040D+01 0.756233409419361D+00
 0.445190400490849D+03 -.351394744164604D+03 -.266738827260825D+03 0.597212231473424D+02
 0.340990060304377D+03 -.148413491608423D+03 -.275823475141006D+03 -.992663888338756D+02
 0.141438759023469D+04 -.377959854180307D+02 0.368715079690260D+03 -.136495894037336D+04
-.871406085784D-05 0.000000000000D+00 0.000000000000D+00 0.221296150860D-05 0.000000000000D+00  7 2 21 23 -11 11 23 2 2 0.21961327D+00 0.14515271D+00 0.74276407D+06 0.74276407D+06 0.74276407D+06 0.10565707D+01  1  2 13  4  7  2       -2 -.439570083355D-04 0.100000000000D+01
0.241077431178D-04 0.000000000000D+00 0.000000000000D+00 0.221296150860D-05 0.251787899967D-10  7 2 21 23 -11 11 23 2 2 0.23628922D+00 0.14793021D+00 0.74276407D+06 0.74276407D+06 0.74276407D+06 0.10565707D+01  1  2  1  4  7  2       -2 0.999132599615D-04 0.100000000000D+01
  </mgrwgt>
  </event>
  <event>
  9     66 0.29152272E-05 0.32771931E+03 0.75467711E-02 0.95693585E-01
        2 -1    0    0  502    0 0.00000000E+00 0.00000000E+00 0.29689334E+04 0.29689334E+04 0.32000000E+00 0.0000E+00 0.9000E+01
       -2 -1    0    0    0  501 0.00000000E+00 0.00000000E+00 -.12597684E+03 0.12597725E+03 0.32000000E+00 0.0000E+00 0.9000E+01
       25  2    1    2    0    0 -.22232636E+03 -.26227261E+03 0.72486605E+03 0.85761601E+03 0.30308168E+03 0.0000E+00 0.0000E+00
       23  2    3    3    0    0 -.73224786E+02 -.18087665E+03 0.18453853E+03 0.28392126E+03 0.92079234E+02 0.0000E+00 0.0000E+00
       23  1    1    2    0    0 0.28154234E+03 0.54430990E+02 0.37472932E+03 0.48058936E+03 0.91188000E+02 0.0000E+00 0.9000E+01
      -13  1    4    4    0    0 -.80631750E+02 -.16962439E+03 0.19194673E+03 0.26854697E+03 0.10565837E+00 0.0000E+00 0.9000E+01
       13  1    4    4    0    0 0.74069643E+01 -.11252250E+02 -.74082060E+01 0.15374295E+02 0.10565837E+00 0.0000E+00 0.9000E+01
       23  1    3    3    0    0 -.14910158E+03 -.81395963E+02 0.54032752E+03 0.57369475E+03 0.91188000E+02 0.0000E+00 0.9000E+01
       21  1    1    2  502  501 -.59215981E+02 0.20784162E+03 0.17433612E+04 0.17567053E+04 0.75000000E+00 0.0000E+00 0.9000E+01
#aMCatNLO 2  0  0  1  2 0.21611264D+03 0.00000000D+00  -5  7  0 0.00000000D+00 0.00000000D+00 0.00000000D+00 0.00000000D+00 0.00000000D+00
  <mgrwgt>
 0.4141761168D-04    2    2    0
 0.365711289681528D+03 0.000000000000000D+00 0.000000000000000D+00 0.365711289681528D+03
 0.365711289681528D+03 0.000000000000000D+00 0.000000000000000D+00 -.365711289681528D+03
 0.308601183644467D+03 0.257303533504635D+03 0.139506589551996D+03 -.353870360494645D+02
 0.161093001277129D+03 -.947233428709486D+02 -.120165073912076D+03 -.503864901291125D+02
 0.354686520296372D+02 0.450890822404580D+01 -.107977661917201D+01 -.351643158028037D+02
 0.226259742411823D+03 -.167089098857732D+03 -.182617390207484D+02 0.120937841981381D+03
 0.000000000000000D+00 -.000000000000000D+00 0.000000000000000D+00 0.000000000000000D+00
 0.928849733858667D+03 0.000000000000000D+00 0.000000000000000D+00 0.928849733858667D+03
 0.402666934877265D+03 0.000000000000000D+00 0.000000000000000D+00 -.402666934877265D+03
 0.302979077972822D+03 0.281542350718477D+03 0.544309909592861D+02 -.353870360494645D+02
 0.194455142719602D+03 -.806318703138267D+02 -.169624602084320D+03 -.503864901291125D+02
 0.376563715392870D+02 0.740707906323842D+01 -.112520394318742D+02 -.351643158028037D+02
 0.227591294698026D+03 -.149101578623304D+03 -.813959686179171D+02 0.120937841981381D+03
 0.568834781806195D+03 -.592159808445847D+02 0.207841619174825D+03 0.526182798981401D+03
-.245315710295D-05 0.000000000000D+00 0.000000000000D+00 0.112427642371D-07 0.000000000000D+00  7 2 -2 23 -13 13 23 21 2 0.45097367D+00 0.17602333D-01 0.20752717D+06 0.20752717D+06 0.20752717D+06 0.10965952D+01  1  2 13  1  7  1        2 -.185286434368D-04 0.100000000000D+01
0.981923768918D-05 0.000000000000D+00 0.000000000000D+00 0.112427642371D-07 0.230824940320D-11  7 2 -2 23 -13 13 23 21 2 0.45675875D+00 0.19381074D-01 0.20752717D+06 0.20752717D+06 0.20752717D+06 0.10965952D+01  1  2  1  1  7  1        2 0.599462551154D-04 0.100000000000D+01
  </mgrwgt>
  </event>
  <event>
  8     66 0.29152272E-05 0.17777310E+03 0.75467711E-02 0.10498658E+00
        2 -1    0    0  501    0 0.00000000E+00 0.00000000E+00 0.70682428E+03 0.70682435E+03 0.32000000E+00 0.0000E+00 0.9000E+01
       -2 -1    0    0    0  501 0.00000000E+00 0.00000000E+00 -.69618555E+02 0.69619291E+02 0.32000000E+00 0.0000E+00 0.9000E+01
       25  2    1    2    0    0 -.53438647E+02 -.75384165E+02 0.45636253E+03 0.55382744E+03 0.29986599E+03 0.0000E+00 0.0000E+00
       23  2    3    3    0    0 0.30979288E+02 -.77566500E+01 0.38244306E+03 0.39420536E+03 0.90084904E+02 0.0000E+00 0.0000E+00
       23  1    1    2    0    0 0.53438647E+02 0.75384165E+02 0.18084320E+03 0.22261621E+03 0.91188000E+02 0.0000E+00 0.9000E+01
      -11  1    4    4    0    0 0.47193262E+02 -.30593589E+02 0.32993914E+03 0.33469838E+03 0.51099893E-03 0.0000E+00 0.9000E+01
       11  1    4    4    0    0 -.16213974E+02 0.22836939E+02 0.52503925E+02 0.59506982E+02 0.51099893E-03 0.0000E+00 0.9000E+01
       23  1    3    3    0    0 -.84417935E+02 -.67627515E+02 0.73919465E+02 0.15962208E+03 0.91188000E+02 0.0000E+00 0.9000E+01
#aMCatNLO 1  0  0  1  2 0.83767761D+02 0.00000000D+00  -5  7  0 0.00000000D+00 0.00000000D+00 0.00000000D+00 0.00000000D+00 0.00000000D+00
  <mgrwgt>
 0.5315404815D-03    4    2    0
 0.221829662063954D+03 0.000000000000000D+00 0.000000000000000D+00 0.221829662063954D+03
 0.221829662063954D+03 0.000000000000000D+00 0.000000000000000D+00 -.221829662063954D+03
 0.129862291796787D+03 0.534386470489493D+02 0.753841649103210D+02 -.324070502594803D+01
 0.111877110058751D+03 0.471932622121135D+02 -.305935886006402D+02 0.967125436197982D+02
 0.287337950374766D+02 -.162139743875370D+02 0.228369385639017D+02 0.641967669315087D+01
 0.173186127234893D+03 -.844179348735258D+02 -.676275148735825D+02 -.998915152870010D+02
 0.000000000000000D+00 0.000000000000000D+00 -.000000000000000D+00 -.000000000000000D+00
 0.243612020290321D+03 0.000000000000000D+00 0.000000000000000D+00 0.243612020290321D+03
 0.323955887035757D+03 0.000000000000000D+00 0.000000000000000D+00 -.323955887035757D+03
 0.144500339991740D+03 0.491408742709095D+02 0.100696421091090D+03 -.324070502594803D+01
 0.106667346592162D+03 0.437698571716277D+02 -.104310276951208D+02 0.967125436197982D+02
 0.340049662680422D+02 -.171967501347628D+02 0.286251160145883D+02 0.641967669315087D+01
 0.166325557118267D+03 -.897362395760559D+02 -.363047116379898D+02 -.998915152870010D+02
 0.116069697355865D+03 0.140222582682814D+02 -.825857977725671D+02 -.803438667454365D+02
0.234208366635D-05 0.000000000000D+00 0.000000000000D+00 0.831210396419D-07 0.000000000000D+00  7 2 -2 23 -11 11 23 21 0 0.10874226D+00 0.10710609D-01 0.31603277D+05 0.31603277D+05 0.31603277D+05 0.11652438D+01  1  2  2  1  7  1        2 0.625878229548D-03 0.100000000000D+01
-.122360907221D-06 0.000000000000D+00 -.899421796357D-08 0.831210396419D-07 0.000000000000D+00  7 2 -2 23 -11 11 23 21 2 0.10874226D+00 0.10710609D-01 0.31603277D+05 0.31603277D+05 0.31603277D+05 0.11652438D+01  1  2  3  1  7  1        2 -.443980362783D-04 0.100000000000D+01
0.155648051307D-06 0.000000000000D+00 0.000000000000D+00 0.831210396419D-07 0.000000000000D+00  7 2 -2 23 -11 11 23 21 2 0.10874226D+00 0.10710609D-01 0.31603277D+05 0.31603277D+05 0.31603277D+05 0.11652438D+01  1  2 15  1  7  1        2 0.564761081424D-04 0.100000000000D+01
-.293281806198D-06 0.000000000000D+00 0.000000000000D+00 0.831210396419D-07 0.000000000000D+00  7 2 -2 23 -11 11 23 21 2 0.10874226D+00 0.10710609D-01 0.31603277D+05 0.31603277D+05 0.31603277D+05 0.11652438D+01  1  2  4  1  7  1        2 -.106415819947D-03 0.100000000000D+01
  </mgrwgt>
  </event>
  <event>
  8     66 0.29152272E-05 0.18190748E+03 0.75467711E-02 0.93161840E-01
        2 -1    0    0  501    0 0.00000000E+00 0.00000000E+00 0.35625655E+03 0.35625669E+03 0.32000000E+00 0.0000E+00 0.9000E+01
       -2 -1    0    0    0  501 0.00000000E+00 0.00000000E+00 -.92542223E+03 0.92542228E+03 0.32000000E+00 0.0000E+00 0.9000E+01
       25  2    1    2    0    0 0.29890409E+02 -.39918746E+03 -.69113522E+03 0.85338481E+03 0.30058887E+03 0.0000E+00 0.0000E+00
       23  2    3    3    0    0 -.95661859E+01 -.19142991E+03 -.13585360E+03 0.25224176E+03 0.91830201E+02 0.0000E+00 0.0000E+00
       23  1    1    2    0    0 -.29890409E+02 0.39918746E+03 0.12196955E+03 0.42829416E+03 0.91188000E+02 0.0000E+00 0.9000E+01
      -11  1    4    4    0    0 -.10714288E+02 -.19834005E+03 -.14096812E+03 0.24356844E+03 0.51099893E-03 0.0000E+00 0.9000E+01
       11  1    4    4    0    0 0.11481023E+01 0.69101435E+01 0.51145253E+01 0.86733264E+01 0.51099893E-03 0.0000E+00 0.9000E+01
       23  1    3    3    0    0 0.39456595E+02 -.20775755E+03 -.55528163E+03 0.60114305E+03 0.91188000E+02 0.0000E+00 0.9000E+01
#aMCatNLO 1  0  0  2  1 0.26203534D+03 0.00000000D+00  -5  7  0 0.00000000D+00 0.00000000D+00 0.00000000D+00 0.00000000D+00 0.00000000D+00
  <mgrwgt>
 0.3092936296D-03    9    2    0
 0.574184515073143D+03 0.000000000000000D+00 0.000000000000000D+00 0.574184515073143D+03
 0.574184515073143D+03 0.000000000000000D+00 0.000000000000000D+00 -.574184515073143D+03
 0.538464978645804D+03 -.298904094956275D+02 0.399187464250590D+03 0.348403808373837D+03
 0.201975431999577D+03 -.107142881353692D+02 -.198340054405433D+03 -.366128663125132D+02
 0.122150911233312D+02 0.114810226904364D+01 0.691014350771500D+01 0.100070089953935D+02
 0.395713528377575D+03 0.394565953619530D+02 -.207757553352871D+03 -.321797951056717D+03
 0.000000000000000D+00 -.000000000000000D+00 -.000000000000000D+00 -.000000000000000D+00
 0.665540734042431D+03 0.000000000000000D+00 0.000000000000000D+00 0.665540734042431D+03
 0.813042778748885D+03 0.000000000000000D+00 0.000000000000000D+00 -.813042778748885D+03
 0.622651331168173D+03 0.457832451955956D+02 0.505863726344818D+03 0.348403808373837D+03
 0.168839351619606D+03 0.134528944740064D+02 -.164271860968281D+03 -.366128663125132D+02
 0.139666689722571D+02 0.285445111276922D+01 0.931556342856052D+01 0.100070089953935D+02
 0.372428019736209D+03 0.895188309662886D+02 -.137185407892973D+03 -.321797951056717D+03
 0.300698141295070D+03 -.151609421748660D+03 -.213722020912124D+03 -.147502044706454D+03
0.764404299627D-04 0.000000000000D+00 0.000000000000D+00 0.862592844835D-06 0.000000000000D+00  7 2 -2 23 -11 11 23 21 0 0.54808715D-01 0.14237267D+00 0.17913538D+06 0.17913538D+06 0.17913538D+06 0.11015193D+01  1  2  2  2  7  2       -2 0.289376204794D-03 0.100000000000D+01
-.376636225708D-05 0.000000000000D+00 -.293551378284D-06 0.862592844835D-06 0.000000000000D+00  7 2 -2 23 -11 11 23 21 2 0.54808715D-01 0.14237267D+00 0.17913538D+06 0.17913538D+06 0.17913538D+06 0.11015193D+01  1  2  3  2  7  2       -2 -.172999961024D-04 0.100000000000D+01
0.484453722647D-05 0.000000000000D+00 0.000000000000D+00 0.862592844835D-06 0.000000000000D+00  7 2 -2 23 -11 11 23 21 2 0.54808715D-01 0.14237267D+00 0.17913538D+06 0.17913538D+06 0.17913538D+06 0.11015193D+01  1  2 15  2  7  2       -2 0.222523669832D-04 0.100000000000D+01
0.169424960232D-04 0.000000000000D+00 0.000000000000D+00 0.862592844835D-06 0.000000000000D+00  7 2 -2 23 -11 11 23 21 2 0.54808715D-01 0.20918203D+00 0.32497519D+06 0.32497519D+06 0.32497519D+06 0.10819918D+01  1  2 12  2  7  2       -2 0.237796098959D-04 0.100000000000D+01
-.463820511234D-04 0.000000000000D+00 0.000000000000D+00 0.862592844835D-06 0.000000000000D+00  7 2 -2 23 -11 11 23 21 2 0.54808715D-01 0.14237267D+00 0.17913538D+06 0.17913538D+06 0.17913538D+06 0.11015193D+01  1  2  4  2  7  2       -2 -.213046236365D-03 0.100000000000D+01
-.528170258889D-04 0.000000000000D+00 -.267961326886D-04 0.862592844835D-06 0.000000000000D+00  7 2 -2 23 -11 11 23 21 2 0.54808715D-01 0.21929245D+00 0.17913538D+06 0.17913538D+06 0.17913538D+06 0.11015193D+01  1  2  5  2  7  2       -2 -.676436405352D-04 0.100000000000D+01
0.609370957479D-04 0.000000000000D+00 0.244768615190D-04 0.862592844835D-06 0.000000000000D+00  7 2 -2 23 -11 11 23 21 2 0.54808715D-01 0.14237267D+00 0.17913538D+06 0.17913538D+06 0.17913538D+06 0.11015193D+01  1  2  6  2  7  2       -2 0.279901785059D-03 0.100000000000D+01
0.783867741679D-06 0.000000000000D+00 0.000000000000D+00 0.862592844835D-06 0.000000000000D+00  7 2 21 23 -11 11 23 2 2 0.54808715D-01 0.20918203D+00 0.32497519D+06 0.32497519D+06 0.32497519D+06 0.10819918D+01  1  2 12  4  7  2       -2 0.856205902310D-05 0.100000000000D+01
-.164890023007D-05 0.000000000000D+00 -.135020798267D-05 0.862592844835D-06 0.000000000000D+00  7 2 21 23 -11 11 23 2 2 0.54808715D-01 0.21929245D+00 0.17913538D+06 0.17913538D+06 0.17913538D+06 0.11015193D+01  1  2  5  4  7  2       -2 -.165885231361D-04 0.100000000000D+01
  </mgrwgt>
  </event>
  <event>
  8     66 0.29152272E-05 0.21096512E+03 0.75467711E-02 0.10167300E+00
        2 -1    0    0  501    0 0.00000000E+00 0.00000000E+00 0.23486344E+04 0.23486344E+04 0.32000000E+00 0.0000E+00 0.9000E+01
       -2 -1    0    0    0  501 0.00000000E+00 0.00000000E+00 -.26670885E+02 0.26672805E+02 0.32000000E+00 0.0000E+00 0.9000E+01
       25  2    1    2    0    0 -.52813747E+02 0.74800825E+02 0.20570447E+04 0.20805502E+04 0.29811392E+03 0.0000E+00 0.0000E+00
       23  2    3    3    0    0 -.26054141E+02 -.80142087E+02 0.10310033E+04 0.10385331E+04 0.92096344E+02 0.0000E+00 0.0000E+00
       23  1    1    2    0    0 0.52813747E+02 -.74800825E+02 0.26491880E+03 0.29475698E+03 0.91188000E+02 0.0000E+00 0.9000E+01
      -13  1    4    4    0    0 -.46872960E+02 -.27538589E+02 0.26934026E+03 0.27477197E+03 0.10565837E+00 0.0000E+00 0.9000E+01
       13  1    4    4    0    0 0.20818819E+02 -.52603498E+02 0.76166299E+03 0.76376114E+03 0.10565837E+00 0.0000E+00 0.9000E+01
       23  1    3    3    0    0 -.26759606E+02 0.15494291E+03 0.10260414E+04 0.10420171E+04 0.91188000E+02 0.0000E+00 0.9000E+01
#aMCatNLO 1  0  0  2  1 0.12583064D+03 0.00000000D+00  -5  7  0 0.00000000D+00 0.00000000D+00 0.00000000D+00 0.00000000D+00 0.00000000D+00
  <mgrwgt>
 0.5205206494D-03    4    2    0
 0.250284764206291D+03 0.000000000000000D+00 0.000000000000000D+00 0.250284764206291D+03
 0.250284764206291D+03 0.000000000000000D+00 0.000000000000000D+00 -.250284764206291D+03
 0.169819761039922D+03 0.528137483569161D+02 -.748008273525413D+02 -.110177330279527D+03
 0.544770718332616D+02 -.468730472966837D+02 -.275385552387535D+02 0.350667477980541D+01
 0.911235953104050D+02 0.208189064290154D+02 -.526035298139115D+02 0.714349452894820D+02
 0.185149100228994D+03 -.267596074892478D+02 0.154942912405206D+03 0.352357102102393D+02
 0.000000000000000D+00 -.000000000000000D+00 -.000000000000000D+00 0.000000000000000D+00
 0.383130479003201D+03 0.000000000000000D+00 0.000000000000000D+00 0.383130479003201D+03
 0.289723026359052D+03 0.000000000000000D+00 0.000000000000000D+00 -.289723026359052D+03
 0.169625516917396D+03 0.803801099480842D+02 -.430994021153845D+02 -.110177330279527D+03
 0.432165791192264D+02 -.389393428612480D+02 -.184147636501587D+02 0.350667477980541D+01
 0.874142034053737D+02 0.353179666213013D+02 -.359295530478936D+02 0.714349452894820D+02
 0.215886319054173D+03 0.580849139653369D+01 0.192396355382415D+03 0.352357102102393D+02
 0.156710886866084D+03 -.825672251046711D+02 -.949526365689781D+02 0.934074526441483D+02
0.437388826553D-05 0.000000000000D+00 0.000000000000D+00 0.120719681361D-07 0.000000000000D+00  7 2 -2 23 -13 13 23 21 0 0.36132852D+00 0.41033624D-02 0.44506282D+05 0.44506282D+05 0.44506282D+05 0.11517683D+01  1  2  2  2  7  2       -2 0.591394271422D-03 0.100000000000D+01
-.234364128575D-06 0.000000000000D+00 -.167968826108D-07 0.120719681361D-07 0.000000000000D+00  7 2 -2 23 -13 13 23 21 2 0.36132852D+00 0.41033624D-02 0.44506282D+05 0.44506282D+05 0.44506282D+05 0.11517683D+01  1  2  3  2  7  2       -2 -.420369158834D-04 0.100000000000D+01
0.268330588190D-06 0.000000000000D+00 0.000000000000D+00 0.120719681361D-07 0.000000000000D+00  7 2 -2 23 -13 13 23 21 2 0.36132852D+00 0.41033624D-02 0.44506282D+05 0.44506282D+05 0.44506282D+05 0.11517683D+01  1  2 15  2  7  2       -2 0.481293380231D-04 0.100000000000D+01
-.429100933918D-06 0.000000000000D+00 0.000000000000D+00 0.120719681361D-07 0.000000000000D+00  7 2 -2 23 -13 13 23 21 2 0.36132852D+00 0.41033624D-02 0.44506282D+05 0.44506282D+05 0.44506282D+05 0.11517683D+01  1  2  4  2  7  2       -2 -.769660441393D-04 0.100000000000D+01
  </mgrwgt>
  </event>
  <event>
  8     66 0.29152272E-05 0.31716017E+03 0.75467711E-02 0.88504843E-01
        2 -1    0    0  501    0 0.00000000E+00 0.00000000E+00 0.21218215E+04 0.21218215E+04 0.32000000E+00 0.0000E+00 0.9000E+01
       -2 -1    0    0    0  501 0.00000000E+00 0.00000000E+00 -.49263353E+02 0.49264393E+02 0.32000000E+00 0.0000E+00 0.9000E+01
       25  2    1    2    0    0 0.16205787E+03 -.17513514E+03 0.14112198E+04 0.14621298E+04 0.29891010E+03 0.0000E+00 0.0000E+00
       23  2    3    3    0    0 0.20321839E+03 -.17319989E+03 0.10282544E+04 0.10663071E+04 0.91693359E+02 0.0000E+00 0.0000E+00
       23  1    1    2    0    0 -.16205787E+03 0.17513514E+03 0.66133832E+03 0.70895606E+03 0.91188000E+02 0.0000E+00 0.9000E+01
      -11  1    4    4    0    0 0.99044933E+02 -.13590086E+03 0.69956210E+03 0.71949015E+03 0.51099893E-03 0.0000E+00 0.9000E+01
       11  1    4    4    0    0 0.10417346E+03 -.37299031E+02 0.32869235E+03 0.34681694E+03 0.51099893E-03 0.0000E+00 0.9000E+01
       23  1    3    3    0    0 -.41160528E+02 -.19352513E+01 0.38296535E+03 0.39582275E+03 0.91188000E+02 0.0000E+00 0.9000E+01
#aMCatNLO 1  0  0  2  1 0.78006464D+03 0.00000000D+00  -5  7  0 0.00000000D+00 0.00000000D+00 0.00000000D+00 0.00000000D+00 0.00000000D+00
  <mgrwgt>
 0.7269073817D-03    3    2    0
 0.323309751771018D+03 0.000000000000000D+00 0.000000000000000D+00 0.323309751771018D+03
 0.323309751771018D+03 0.000000000000000D+00 0.000000000000000D+00 -.323309751771018D+03
 0.260651574749701D+03 -.162057866308424D+03 0.175135139264569D+03 -.518548265626258D+02
 0.173505125580337D+03 0.990449327082782D+02 -.135900856964766D+03 0.427210367817001D+02
 0.110939064423630D+03 0.104173461970798D+03 -.372990309518889D+02 -.800925254060526D+01
 0.101523738788368D+03 -.411605283706525D+02 -.193525134791365D+01 0.171430423215310D+02
 0.000000000000000D+00 -.000000000000000D+00 0.000000000000000D+00 0.000000000000000D+00
 0.954815674149993D+03 0.000000000000000D+00 0.000000000000000D+00 0.954815674149993D+03
 0.846020618043693D+03 0.000000000000000D+00 0.000000000000000D+00 -.846020618043693D+03
 0.180363726224291D+03 0.422878460927698D+02 0.140494261194204D+03 -.518548265626258D+02
 0.417080144473561D+03 0.372694321916051D+03 -.182290159750651D+03 0.427210367817001D+02
 0.305261072426154D+03 0.297020996462711D+03 -.699907270486937D+02 -.800925254060526D+01
 0.110516465515060D+03 0.570889122051832D+02 -.185905892626485D+02 0.171430423215310D+02
 0.787614883554620D+03 -.769092076676715D+03 0.130377214867790D+03 0.108795056106300D+03
0.101097804526D-04 0.000000000000D+00 0.000000000000D+00 0.639618491209D-07 0.000000000000D+00  7 2 -2 23 -11 11 23 21 0 0.32643415D+00 0.75790592D-02 0.10059057D+06 0.10059057D+06 0.10059057D+06 0.11215123D+01  1  2  2  2  7  2       -2 0.718863875492D-03 0.100000000000D+01
-.561402625838D-06 0.000000000000D+00 -.388242189042D-07 0.639618491209D-07 0.000000000000D+00  7 2 -2 23 -11 11 23 21 2 0.32643415D+00 0.75790592D-02 0.10059057D+06 0.10059057D+06 0.10059057D+06 0.11215123D+01  1  2  3  2  7  2       -2 -.502096759461D-04 0.100000000000D+01
0.651338388220D-06 0.000000000000D+00 0.000000000000D+00 0.639618491209D-07 0.000000000000D+00  7 2 -2 23 -11 11 23 21 2 0.32643415D+00 0.75790592D-02 0.10059057D+06 0.10059057D+06 0.10059057D+06 0.11215123D+01  1  2 15  2  7  2       -2 0.582531821167D-04 0.100000000000D+01
  </mgrwgt>
  </event>
  <event>
  8     66 0.29152272E-05 0.28193981E+03 0.75467711E-02 0.91102942E-01
        2 -1    0    0  501    0 0.00000000E+00 0.00000000E+00 0.18095295E+04 0.18095296E+04 0.32000000E+00 0.0000E+00 0.9000E+01
       -2 -1    0    0    0  501 0.00000000E+00 0.00000000E+00 -.49794445E+02 0.49795473E+02 0.32000000E+00 0.0000E+00 0.9000E+01
       25  2    1    2    0    0 0.20437376E+03 -.54826080E+02 0.11906195E+04 0.12453362E+04 0.29751104E+03 0.0000E+00 0.0000E+00
       23  2    3    3    0    0 0.17421613E+03 0.48656176E+02 0.89272738E+03 0.91568024E+03 0.93752024E+02 0.0000E+00 0.0000E+00
       23  1    1    2    0    0 -.20437376E+03 0.54826080E+02 0.56911555E+03 0.61398884E+03 0.91188000E+02 0.0000E+00 0.9000E+01
      -11  1    4    4    0    0 0.89914809E+02 0.58707471E+02 0.64327878E+03 0.65218006E+03 0.51099893E-03 0.0000E+00 0.9000E+01
       11  1    4    4    0    0 0.84301318E+02 -.10051295E+02 0.24944860E+03 0.26350018E+03 0.51099893E-03 0.0000E+00 0.9000E+01
       23  1    3    3    0    0 0.30157636E+02 -.10348226E+03 0.29789215E+03 0.32965595E+03 0.91188000E+02 0.0000E+00 0.9000E+01
#aMCatNLO 1  0  0  2  1 0.59844099D+03 0.00000000D+00  -5  7  0 0.00000000D+00 0.00000000D+00 0.00000000D+00 0.00000000D+00 0.00000000D+00
  <mgrwgt>
 0.7032945027D-03    5    2    0
 0.300175782454870D+03 0.000000000000000D+00 0.000000000000000D+00 0.300175782454870D+03
 0.300175782454870D+03 0.000000000000000D+00 0.000000000000000D+00 -.300175782454870D+03
 0.233383610700952D+03 -.204373762000359D+03 0.548260797537473D+02 -.371231031093819D+02
 0.134278769584682D+03 0.899148087821488D+02 0.587074709857539D+02 0.806197740836744D+02
 0.848986319946618D+02 0.843013176871760D+02 -.100512948889762D+02 0.192410565380968D+00
 0.147790552629444D+03 0.301576355310345D+02 -.103482255850525D+03 -.436890815396735D+02
 0.000000000000000D+00 0.000000000000000D+00 0.000000000000000D+00 -.000000000000000D+00
 0.590983291223232D+03 0.000000000000000D+00 0.000000000000000D+00 0.590983291223232D+03
 0.959495931191144D+03 0.000000000000000D+00 0.000000000000000D+00 -.959495931191144D+03
 0.497280610910990D+03 -.483760459682671D+03 -.597532217302859D+02 -.371231031093819D+02
 0.844659441900292D+02 0.627260842621421D+01 0.244049613427641D+02 0.806197740836744D+02
 0.459269098420212D+02 0.342770862753604D+02 -.305667365330841D+02 0.192410565380968D+00
 0.220001955924235D+03 -.110476504416877D+03 -.161157734510437D+03 -.436890815396735D+02
 0.702803801547101D+03 0.553687269397973D+03 0.227072731431043D+03 -.368512639967912D+03
0.599504640444D-05 0.000000000000D+00 0.000000000000D+00 0.282898503055D-08 0.000000000000D+00  7 2 -2 23 -11 11 23 21 0 0.27838924D+00 0.76607651D-02 0.79490054D+05 0.79490054D+05 0.79490054D+05 0.11299955D+01  1  2  2  2  7  2       -2 0.619274980579D-03 0.100000000000D+01
-.331467444210D-06 0.000000000000D+00 -.230225567250D-07 0.282898503055D-08 0.000000000000D+00  7 2 -2 23 -11 11 23 21 2 0.27838924D+00 0.76607651D-02 0.79490054D+05 0.79490054D+05 0.79490054D+05 0.11299955D+01  1  2  3  2  7  2       -2 -.437205171957D-04 0.100000000000D+01
0.372021658983D-06 0.000000000000D+00 0.000000000000D+00 0.282898503055D-08 0.000000000000D+00  7 2 -2 23 -11 11 23 21 2 0.27838924D+00 0.76607651D-02 0.79490054D+05 0.79490054D+05 0.79490054D+05 0.11299955D+01  1  2 15  2  7  2       -2 0.490696133899D-04 0.100000000000D+01
0.650994688497D-05 0.000000000000D+00 -.352234027582D-05 0.282898503055D-08 0.000000000000D+00  7 2 -2 23 -11 11 23 21 2 0.27838924D+00 0.59335792D-01 0.79490054D+05 0.79490054D+05 0.79490054D+05 0.11299955D+01  1  2  5  2  7  2       -2 0.264583288131D-04 0.100000000000D+01
0.122108812580D-05 0.000000000000D+00 -.877033756202D-06 0.282898503055D-08 0.000000000000D+00  7 2 21 23 -11 11 23 2 2 0.27838924D+00 0.59335792D-01 0.79490054D+05 0.79490054D+05 0.79490054D+05 0.11299955D+01  1  2  5  4  7  2       -2 0.522120970876D-04 0.100000000000D+01
  </mgrwgt>
  </event>
  <event>
  9     66 -.29152272E-05 0.17054890E+03 0.75467711E-02 0.10770251E+00
        2 -1    0    0  502    0 0.00000000E+00 0.00000000E+00 0.16998717E+03 0.16998747E+03 0.32000000E+00 0.0000E+00 0.9000E+01
       -2 -1    0    0    0  501 0.00000000E+00 0.00000000E+00 -.40972896E+03 0.40972908E+03 0.32000000E+00 0.0000E+00 0.9000E+01
       25  2    1    2    0    0 -.59675839E+02 -.60553111E+02 -.28796167E+03 0.42488752E+03 0.30063199E+03 0.0000E+00 0.0000E+00
       23  2    3    3    0    0 -.41775508E+02 -.10796393E+03 -.28489194E+03 0.32051855E+03 0.90373217E+02 0.0000E+00 0.0000E+00
       23  1    1    2    0    0 0.70874965E+02 0.43726227E+02 0.52441417E+02 0.13416630E+03 0.91188000E+02 0.0000E+00 0.9000E+01
      -11  1    4    4    0    0 -.18000070E+02 -.37823179E+02 -.21839792E+02 0.47239516E+02 0.51099893E-03 0.0000E+00 0.9000E+01
       11  1    4    4    0    0 -.23775439E+02 -.70140755E+02 -.26305214E+03 0.27327903E+03 0.51099893E-03 0.0000E+00 0.9000E+01
       23  1    3    3    0    0 -.17900331E+02 0.47410822E+02 -.30697318E+01 0.10436897E+03 0.91188000E+02 0.0000E+00 0.9000E+01
       21  1    1    2  502  501 -.11199125E+02 0.16826885E+02 -.42215393E+01 0.20662729E+02 0.75000000E+00 0.0000E+00 0.9000E+01
#aMCatNLO 2  0  0  1  2 0.20212978D+02 0.00000000D+00  -5  7  0 0.00000000D+00 0.00000000D+00 0.00000000D+00 0.00000000D+00 0.00000000D+00
  <mgrwgt>
 -.9685801304D-04    3    2    0
 0.253309505385492D+03 0.000000000000000D+00 0.000000000000000D+00 0.253309505385492D+03
 0.253309505385492D+03 0.000000000000000D+00 0.000000000000000D+00 -.253309505385492D+03
 0.172317337312748D+03 0.670675488375377D+02 0.494469363985169D+02 0.120145569074690D+03
 0.411174019259429D+02 -.189177487124092D+02 -.364443500038796D+02 -.213749329552081D+01
 0.177469834569519D+03 -.277153163208862D+02 -.642210181443780D+02 -.163104458099296D+03
 0.115714436962774D+03 -.204344838042424D+02 0.512184317497406D+02 0.450963823201275D+02
 0.000000000000000D+00 -.000000000000000D+00 0.000000000000000D+00 0.000000000000000D+00
 0.266387018787579D+03 0.000000000000000D+00 0.000000000000000D+00 0.266387018787579D+03
 0.261443725025234D+03 0.000000000000000D+00 0.000000000000000D+00 -.261443725025234D+03
 0.172294667941887D+03 0.708749645551775D+02 0.437262265491347D+02 0.120145569074690D+03
 0.419423920512980D+02 -.180000698147770D+02 -.378231788730078D+02 -.213749329552081D+01
 0.179131407580102D+03 -.237754385639081D+02 -.701407545643552D+02 -.163104458099296D+03
 0.113653609398753D+03 -.179003309264402D+02 0.474108219684610D+02 0.450963823201275D+02
 0.208086668407730D+02 -.111991252500521D+02 0.168268849197673D+02 0.494329376234508D+01
-.724095543570D-05 0.000000000000D+00 0.000000000000D+00 0.971416017218D-07 0.000000000000D+00  7 2 -2 23 -11 11 23 21 2 0.26533699D-01 0.61072493D-01 0.33120059D+05 0.33120059D+05 0.33120059D+05 0.11633700D+01  1  2 13  1  7  1        2 -.618623449504D-03 0.100000000000D+01
-.474913508317D-06 0.000000000000D+00 0.000000000000D+00 0.971416017218D-07 0.000000000000D+00  7 2 -2 23 -11 11 23 21 2 0.24867413D-01 0.61072493D-01 0.29086927D+05 0.29086927D+05 0.29086927D+05 0.11685834D+01  1  2  8  1  7  1        2 -.440564024505D-04 0.100000000000D+01
0.695008738592D-05 0.000000000000D+00 0.000000000000D+00 0.971416017218D-07 0.171850565471D-08  7 2 -2 23 -11 11 23 21 2 0.26151234D-01 0.63033640D-01 0.33120059D+05 0.33120059D+05 0.33120059D+05 0.11633700D+01  1  2  1  1  7  1        2 0.565821838915D-03 0.100000000000D+01
  </mgrwgt>
  </event>
  <event>
  8     66 0.29152272E-05 0.17939332E+03 0.75467711E-02 0.95111331E-01
        4 -1    0    0  501    0 0.00000000E+00 0.00000000E+00 0.29069816E+03 0.29070229E+03 0.15500000E+01 0.0000E+00 0.9000E+01
       -4 -1    0    0    0  501 0.00000000E+00 0.00000000E+00 -.52479083E+03 0.52479312E+03 0.15500000E+01 0.0000E+00 0.9000E+01
       25  2    1    2    0    0 -.19049594E+03 -.26157961E+03 -.85603932E+02 0.44796752E+03 0.29771509E+03 0.0000E+00 0.0000E+00
       23  2    3    3    0    0 -.17440631E+03 -.28085014E+03 -.47982967E+02 0.34617942E+03 0.90793514E+02 0.0000E+00 0.0000E+00
       23  1    1    2    0    0 0.19049594E+03 0.26157961E+03 -.14848874E+03 0.36752789E+03 0.91188000E+02 0.0000E+00 0.9000E+01
      -11  1    4    4    0    0 -.17786167E+03 -.25508314E+03 -.25860463E+02 0.31204317E+03 0.51099893E-03 0.0000E+00 0.9000E+01
       11  1    4    4    0    0 0.34553567E+01 -.25767004E+02 -.22122504E+02 0.34136244E+02 0.51099893E-03 0.0000E+00 0.9000E+01
       23  1    3    3    0    0 -.16089633E+02 0.19270535E+02 -.37620965E+02 0.10178810E+03 0.91188000E+02 0.0000E+00 0.9000E+01
#aMCatNLO 1  0  0  1  2 0.17083577D+03 0.00000000D+00  -5  7  0 0.00000000D+00 0.00000000D+00 0.00000000D+00 0.00000000D+00 0.00000000D+00
  <mgrwgt>
 0.7137947469D-04    9    2    0
 0.390587183743571D+03 0.000000000000000D+00 0.000000000000000D+00 0.390587183743571D+03
 0.390587183743571D+03 0.000000000000000D+00 0.000000000000000D+00 -.390587183743571D+03
 0.339178032748403D+03 0.190495942580245D+03 0.261579606041430D+03 -.448764093789957D+02
 0.318003307732904D+03 -.177861666006452D+03 -.255083136767772D+03 0.665125915236447D+02
 0.290066281856415D+02 0.345535669900133D+01 -.257670039009372D+02 -.128649329089508D+02
 0.949863988201939D+02 -.160896332727943D+02 0.192705346272794D+02 -.877124923569825D+01
 0.000000000000000D+00 -.000000000000000D+00 0.000000000000000D+00 0.000000000000000D+00
 0.506541676591938D+03 0.000000000000000D+00 0.000000000000000D+00 0.506541676591938D+03
 0.468183747639017D+03 0.000000000000000D+00 0.000000000000000D+00 -.468183747639017D+03
 0.291001690456443D+03 0.192124778825746D+03 0.193496536782741D+03 -.448764093789957D+02
 0.380356978782994D+03 -.176056602299689D+03 -.330532266601046D+03 0.665125915236447D+02
 0.353436313015673D+02 0.362168390884410D+01 -.327192478595358D+02 -.128649329089508D+02
 0.929340255441114D+02 -.156039121567327D+02 -.103192639455560D+01 -.877124923569825D+01
 0.175089098145839D+03 -.408594827816898D+01 0.170786904072397D+03 0.383579289529207D+02
0.358981494739D-04 0.000000000000D+00 0.000000000000D+00 0.434129278230D-07 0.000000000000D+00  7 4 -4 23 -11 11 23 21 0 0.44723288D-01 0.80737545D-01 0.14735775D+06 0.14735775D+06 0.14735775D+06 0.11081615D+01  1  2  2  1  7  1        4 0.523136602692D-04 0.100000000000D+01
-.199361238854D-05 0.000000000000D+00 -.137858346180D-06 0.434129278230D-07 0.000000000000D+00  7 4 -4 23 -11 11 23 21 2 0.44723288D-01 0.80737545D-01 0.14735775D+06 0.14735775D+06 0.14735775D+06 0.11081615D+01  1  2  3  1  7  1        4 -.356771275757D-05 0.100000000000D+01
0.233283227055D-05 0.000000000000D+00 0.000000000000D+00 0.434129278230D-07 0.000000000000D+00  7 4 -4 23 -11 11 23 21 2 0.44723288D-01 0.80737545D-01 0.14735775D+06 0.14735775D+06 0.14735775D+06 0.11081615D+01  1  2 15  1  7  1        4 0.417477113442D-05 0.100000000000D+01
0.146035616997D-04 0.000000000000D+00 0.000000000000D+00 0.434129278230D-07 0.000000000000D+00  7 4 -4 23 -11 11 23 21 2 0.61349379D-01 0.80737545D-01 0.22958039D+06 0.22958039D+06 0.22958039D+06 0.10932540D+01  1  2 12  1  7  1        4 0.124580286660D-04 0.100000000000D+01
-.183255449081D-04 0.000000000000D+00 0.000000000000D+00 0.434129278230D-07 0.000000000000D+00  7 4 -4 23 -11 11 23 21 2 0.44723288D-01 0.80737545D-01 0.14735775D+06 0.14735775D+06 0.14735775D+06 0.11081615D+01  1  2  4  1  7  1        4 -.327948806567D-04 0.100000000000D+01
-.325218529697D-04 0.000000000000D+00 -.152195712491D-04 0.434129278230D-07 0.000000000000D+00  7 4 -4 23 -11 11 23 21 2 0.68000746D-01 0.80737545D-01 0.14735775D+06 0.14735775D+06 0.14735775D+06 0.11081615D+01  1  2  5  1  7  1        4 -.221568439815D-04 0.100000000000D+01
0.368604911573D-04 0.000000000000D+00 0.139746690335D-04 0.434129278230D-07 0.000000000000D+00  7 4 -4 23 -11 11 23 21 2 0.44723288D-01 0.80737545D-01 0.14735775D+06 0.14735775D+06 0.14735775D+06 0.11081615D+01  1  2  6  1  7  1        4 0.659645000743D-04 0.100000000000D+01
0.586190535742D-06 0.000000000000D+00 0.000000000000D+00 0.434129278230D-07 0.000000000000D+00  7 21 -4 23 -11 11 23 -4 2 0.61349379D-01 0.80737545D-01 0.22958039D+06 0.22958039D+06 0.22958039D+06 0.10932540D+01  1  2 12  3  7  1        4 0.104429122709D-04 0.100000000000D+01
-.104927511863D-05 0.000000000000D+00 -.749712869246D-06 0.434129278230D-07 0.000000000000D+00  7 21 -4 23 -11 11 23 -4 2 0.68000746D-01 0.80737545D-01 0.14735775D+06 0.14735775D+06 0.14735775D+06 0.11081615D+01  1  2  5  3  7  1        4 -.154549603296D-04 0.100000000000D+01
  </mgrwgt>
  </event>
  <event>
  9     66 0.29152272E-05 0.30139483E+03 0.75467711E-02 0.95916707E-01
        2 -1    0    0  501    0 0.00000000E+00 0.00000000E+00 0.13453726E+04 0.13453726E+04 0.32000000E+00 0.0000E+00 0.9000E+01
       21 -1    0    0  502  501 0.00000000E+00 0.00000000E+00 -.43860417E+03 0.43860481E+03 0.75000000E+00 0.0000E+00 0.9000E+01
       25  2    1    2    0    0 0.99939919E+02 -.15736190E+03 0.99880677E+03 0.10596616E+04 0.30086038E+03 0.0000E+00 0.0000E+00
       23  2    3    3    0    0 0.89035110E+02 -.20990953E+03 0.63643731E+03 0.68216053E+03 0.91111387E+02 0.0000E+00 0.0000E+00
       23  1    1    2    0    0 -.29117538E+03 0.54340607E+01 0.18351681E+03 0.35609873E+03 0.91188000E+02 0.0000E+00 0.9000E+01
      -13  1    4    4    0    0 0.73096407E+02 -.82717838E+02 0.37627006E+03 0.39212816E+03 0.10565837E+00 0.0000E+00 0.9000E+01
       13  1    4    4    0    0 0.15938704E+02 -.12719170E+03 0.26016725E+03 0.29003238E+03 0.10565837E+00 0.0000E+00 0.9000E+01
       23  1    3    3    0    0 0.10904809E+02 0.52547638E+02 0.36236947E+03 0.37750106E+03 0.91188000E+02 0.0000E+00 0.9000E+01
        2  1    1    2  502    0 0.19123546E+03 0.15192784E+03 -.27555519E+03 0.36821710E+03 0.32000000E+00 0.0000E+00 0.9000E+01
#aMCatNLO 2  0  0  2  1 0.24423978D+03 0.00000000D+00  -5  7  0 0.00000000D+00 0.00000000D+00 0.00000000D+00 0.00000000D+00 0.00000000D+00
  <mgrwgt>
 0.2179985223D-03    2    2    0
 0.369741518370301D+03 0.000000000000000D+00 0.000000000000000D+00 0.369741518370301D+03
 0.369741518370301D+03 0.000000000000000D+00 0.000000000000000D+00 -.369741518370301D+03
 0.314160988589956D+03 -.205157540793073D+03 0.737713056592790D+02 -.207002544247364D+03
 0.151048821502800D+03 0.109959705238619D+03 -.534316330610711D+02 0.887111621479940D+02
 0.117296141238822D+03 0.473742795950496D+02 -.102217566328273D+03 0.326440119515455D+02
 0.156977085409026D+03 0.478235559594045D+02 0.818778937300655D+02 0.856473701478245D+02
 0.000000000000000D+00 0.000000000000000D+00 0.000000000000000D+00 -.000000000000000D+00
 0.403274415647945D+03 0.000000000000000D+00 0.000000000000000D+00 0.403274415647945D+03
 0.146323827926080D+04 0.000000000000000D+00 0.000000000000000D+00 -.146323827926080D+04
 0.368751864982789D+03 -.291175383993935D+03 0.543406067207496D+01 -.207002544247364D+03
 0.141615666397348D+03 0.730964833810243D+02 -.827177779975078D+02 0.887111621479940D+02
 0.132277791302669D+03 0.159386267382249D+02 -.127191755760031D+03 0.326440119515455D+02
 0.136128220526245D+03 0.109048098626229D+02 0.525476373233242D+02 0.856473701478245D+02
 0.108773915169969D+04 0.191235464012063D+03 0.151927835762140D+03 -.105996386361285D+04
-.300522264486D-06 0.000000000000D+00 0.000000000000D+00 0.211210769789D-06 0.000000000000D+00  7 2 21 23 -13 13 23 2 2 0.18976969D+00 0.65316373D-01 0.19971536D+06 0.19971536D+06 0.19971536D+06 0.10978729D+01  1  2 13  4  7  2       -2 -.186879510709D-04 0.100000000000D+01
0.474380109530D-05 0.000000000000D+00 0.000000000000D+00 0.211210769789D-06 0.744898336996D-11  7 2 21 23 -13 13 23 2 2 0.20698044D+00 0.67477613D-01 0.19971536D+06 0.19971536D+06 0.19971536D+06 0.10978729D+01  1  2  1  4  7  2       -2 0.236686473325D-03 0.100000000000D+01
  </mgrwgt>
  </event>
  <event>
  8     66 0.29152272E-05 0.24721455E+03 0.75467711E-02 0.97344737E-01
        2 -1    0    0  501    0 0.00000000E+00 0.00000000E+00 0.20164872E+04 0.20164872E+04 0.32000000E+00 0.0000E+00 0.9000E+01
       -2 -1    0    0    0  501 0.00000000E+00 0.00000000E+00 -.92855987E+02 0.92856539E+02 0.32000000E+00 0.0000E+00 0.9000E+01
       25  2    1    2    0    0 -.22832743E+03 -.16806508E+03 0.16632957E+04 0.17137820E+04 0.30019464E+03 0.0000E+00 0.0000E+00
       23  2    3    3    0    0 0.10381846E+02 -.82325921E+02 0.79635310E+03 0.80590642E+03 0.91769034E+02 0.0000E+00 0.0000E+00
       23  1    1    2    0    0 0.22832743E+03 0.16806508E+03 0.26033550E+03 0.39556176E+03 0.91188000E+02 0.0000E+00 0.9000E+01
      -11  1    4    4    0    0 -.98505747E+01 -.93563221E+02 0.72006427E+03 0.72618432E+03 0.51099893E-03 0.0000E+00 0.9000E+01
       11  1    4    4    0    0 0.20232421E+02 0.11237300E+02 0.76288823E+02 0.79722094E+02 0.51099893E-03 0.0000E+00 0.9000E+01
       23  1    3    3    0    0 -.23870927E+03 -.85739162E+02 0.86694262E+03 0.90787559E+03 0.91188000E+02 0.0000E+00 0.9000E+01
#aMCatNLO 1  0  0  1  2 0.10578511D+03 0.00000000D+00  -5  7  0 0.00000000D+00 0.00000000D+00 0.00000000D+00 0.00000000D+00 0.00000000D+00
  <mgrwgt>
 0.4069222218D-03    7    2    0
 0.432716440947342D+03 0.000000000000000D+00 0.000000000000000D+00 0.432716440947342D+03
 0.432716440947342D+03 0.000000000000000D+00 0.000000000000000D+00 -.432716440947342D+03
 0.385455948513940D+03 0.228327428687953D+03 0.168065082988101D+03 -.244707478614225D+03
 0.169434580929886D+03 -.985057467409340D+01 -.935632210243897D+02 0.140914751055443D+03
 0.247387651528125D+02 0.202324207055134D+02 0.112373002066147D+02 0.873949299144628D+01
 0.285803587298046D+03 -.238709274719373D+03 -.857391621703258D+02 0.950532345673359D+02
 0.000000000000000D+00 0.000000000000000D+00 0.000000000000000D+00 0.000000000000000D+00
 0.917405530964790D+03 0.000000000000000D+00 0.000000000000000D+00 0.917405530964790D+03
 0.441747687186923D+03 0.000000000000000D+00 0.000000000000000D+00 -.441747687186923D+03
 0.358744302490276D+03 0.183182461126556D+03 0.164148283789751D+03 -.244707478614225D+03
 0.172883753039716D+03 -.306164237340418D+02 -.953648761222794D+02 0.140914751055443D+03
 0.223403367388934D+02 0.173764897583620D+02 0.109895182577379D+02 0.873949299144628D+01
 0.317905774483350D+03 -.275331728846950D+03 -.889165439853290D+02 0.950532345673359D+02
 0.487279051399478D+03 0.105389201696074D+03 0.914361806011942D+01 0.475657843777867D+03
0.134248315784D-04 0.000000000000D+00 0.000000000000D+00 0.843218711201D-06 0.000000000000D+00  7 2 -2 23 -11 11 23 21 0 0.31022884D+00 0.14285581D-01 0.11716047D+06 0.11716047D+06 0.11716047D+06 0.11161211D+01  1  2  2  1  7  1        2 0.405690740552D-03 0.100000000000D+01
-.695986702883D-06 0.000000000000D+00 -.515548881004D-07 0.843218711201D-06 0.000000000000D+00  7 2 -2 23 -11 11 23 21 2 0.31022884D+00 0.14285581D-01 0.11716047D+06 0.11716047D+06 0.11716047D+06 0.11161211D+01  1  2  3  1  7  1        2 -.262005141751D-04 0.100000000000D+01
0.830029433661D-06 0.000000000000D+00 0.000000000000D+00 0.843218711201D-06 0.000000000000D+00  7 2 -2 23 -11 11 23 21 2 0.31022884D+00 0.14285581D-01 0.11716047D+06 0.11716047D+06 0.11716047D+06 0.11161211D+01  1  2 15  1  7  1        2 0.312465710225D-04 0.100000000000D+01
0.595264556373D-04 0.000000000000D+00 0.000000000000D+00 0.843218711201D-06 0.000000000000D+00  7 2 -2 23 -11 11 23 21 2 0.65724600D+00 0.14285581D-01 0.15689297D+06 0.15689297D+06 0.15689297D+06 0.11060154D+01  1  2 12  1  7  1        2 0.672599122813D-04 0.100000000000D+01
-.619877624952D-04 0.000000000000D+00 -.316652520251D-05 0.843218711201D-06 0.000000000000D+00  7 2 -2 23 -11 11 23 21 2 0.65926826D+00 0.14285581D-01 0.11716047D+06 0.11716047D+06 0.11716047D+06 0.11161211D+01  1  2  5  1  7  1        2 -.710731176116D-04 0.100000000000D+01
0.483435583519D-05 0.000000000000D+00 0.000000000000D+00 0.843218711201D-06 0.000000000000D+00  7 21 -2 23 -11 11 23 -2 2 0.65724600D+00 0.14285581D-01 0.15689297D+06 0.15689297D+06 0.15689297D+06 0.11060154D+01  1  2 12  3  7  1        2 0.800911463195D-07 0.100000000000D+01
-.485817137187D-05 0.000000000000D+00 -.258243724027D-06 0.843218711201D-06 0.000000000000D+00  7 21 -2 23 -11 11 23 -2 2 0.65926826D+00 0.14285581D-01 0.11716047D+06 0.11716047D+06 0.11716047D+06 0.11161211D+01  1  2  5  3  7  1        2 -.814613773504D-07 0.100000000000D+01
  </mgrwgt>
  </event>
  <event>
  8     66 0.29152272E-05 0.22797930E+03 0.75467711E-02 0.99674448E-01
        2 -1    0    0  501    0 0.00000000E+00 0.00000000E+00 0.20737173E+04 0.20737174E+04 0.32000000E+00 0.0000E+00 0.9000E+01
       -2 -1    0    0    0  501 0.00000000E+00 0.00000000E+00 -.67828930E+02 0.67829685E+02 0.32000000E+00 0.0000E+00 0.9000E+01
       25  2    1    2    0    0 0.14065271E+03 -.22207522E+03 0.70132963E+03 0.80764696E+03 0.30220816E+03 0.0000E+00 0.0000E+00
       23  2    3    3    0    0 0.10889214E+03 -.24703904E+03 0.60578187E+03 0.66952907E+03 0.91715395E+02 0.0000E+00 0.0000E+00
       23  1    1    2    0    0 -.14065271E+03 0.22207522E+03 0.13045588E+04 0.13339001E+04 0.91188000E+02 0.0000E+00 0.9000E+01
      -13  1    4    4    0    0 0.27064301E+02 -.50270958E+02 0.23531965E+03 0.24214664E+03 0.10565837E+00 0.0000E+00 0.9000E+01
       13  1    4    4    0    0 0.81827834E+02 -.19676809E+03 0.37046222E+03 0.42738243E+03 0.10565837E+00 0.0000E+00 0.9000E+01
       23  1    3    3    0    0 0.31760570E+02 0.24963819E+02 0.95547761E+02 0.13811789E+03 0.91188000E+02 0.0000E+00 0.9000E+01
#aMCatNLO 1  0  0  1  2 0.71917717D+01 0.00000000D+00  -5  7  0 0.00000000D+00 0.00000000D+00 0.00000000D+00 0.00000000D+00 0.00000000D+00
  <mgrwgt>
 0.9423930613D-03   11    2    0
 0.375045148226314D+03 0.000000000000000D+00 0.000000000000000D+00 0.375045148226314D+03
 0.375045148226314D+03 0.000000000000000D+00 0.000000000000000D+00 -.375045148226314D+03
 0.319708798717010D+03 -.140652706312470D+03 0.222075226536403D+03 0.157473409180269D+03
 0.620502534853184D+02 0.270642284196491D+02 -.502707625451810D+02 0.243025087340247D+02
 0.229510868599914D+03 0.818279066988576D+02 -.196768278844796D+03 -.852154735434037D+02
 0.138820375650385D+03 0.317605711939630D+02 0.249638148535736D+02 -.965604443708903D+02
 0.000000000000000D+00 -.000000000000000D+00 -.000000000000000D+00 0.000000000000000D+00
 0.395737930239522D+03 0.000000000000000D+00 0.000000000000000D+00 0.395737930239522D+03
 0.375687781914126D+03 0.000000000000000D+00 0.000000000000000D+00 -.375687781914126D+03
 0.320499096397847D+03 -.138691109096765D+03 0.224435561145040D+03 0.157473409180269D+03
 0.618482713510772D+02 0.274438535433059D+02 -.498139703400834D+02 0.243025087340247D+02
 0.228571936666352D+03 0.832314725752379D+02 -.195079407609152D+03 -.852154735434037D+02
 0.139205468147251D+03 0.326124424771023D+02 0.259888475440769D+02 -.965604443708903D+02
 0.213009395911196D+02 -.459665949888096D+01 -.553103073988145D+01 0.200501483253955D+02
0.550618999886D-05 0.000000000000D+00 0.000000000000D+00 0.368255163578D-07 0.000000000000D+00  7 2 -2 23 -13 13 23 21 0 0.31903350D+00 0.10435280D-01 0.10503116D+06 0.10503116D+06 0.10503116D+06 0.11199768D+01  1  2  2  1  7  1        2 0.254564615022D-03 0.100000000000D+01
-.297967034837D-06 0.000000000000D+00 -.211452194087D-07 0.368255163578D-07 0.000000000000D+00  7 2 -2 23 -13 13 23 21 2 0.31903350D+00 0.10435280D-01 0.10503116D+06 0.10503116D+06 0.10503116D+06 0.11199768D+01  1  2  3  1  7  1        2 -.172795781807D-04 0.100000000000D+01
0.342417755955D-06 0.000000000000D+00 0.000000000000D+00 0.368255163578D-07 0.000000000000D+00  7 2 -2 23 -13 13 23 21 2 0.31903350D+00 0.10435280D-01 0.10503116D+06 0.10503116D+06 0.10503116D+06 0.11199768D+01  1  2 15  1  7  1        2 0.198573455876D-04 0.100000000000D+01
0.913074360010D-04 0.000000000000D+00 0.000000000000D+00 0.368255163578D-07 0.000000000000D+00  7 2 -2 23 -13 13 23 21 2 0.33690085D+00 0.10435280D-01 0.10744429D+06 0.10744429D+06 0.10744429D+06 0.11191720D+01  1  2 12  1  7  1        2 0.456827585103D-02 0.100000000000D+01
-.971271817580D-04 0.000000000000D+00 0.000000000000D+00 0.368255163578D-07 0.000000000000D+00  7 2 -2 23 -13 13 23 21 2 0.31903350D+00 0.10435280D-01 0.10503116D+06 0.10503116D+06 0.10503116D+06 0.11199768D+01  1  2  4  1  7  1        2 -.563255841899D-02 0.100000000000D+01
-.190336688650D-03 0.000000000000D+00 -.991604565335D-05 0.368255163578D-07 0.000000000000D+00  7 2 -2 23 -13 13 23 21 2 0.33682636D+00 0.10435280D-01 0.10503116D+06 0.10503116D+06 0.10503116D+06 0.11199768D+01  1  2  5  1  7  1        2 -.954834132677D-02 0.100000000000D+01
0.190608654892D-03 0.000000000000D+00 0.990146023989D-05 0.368255163578D-07 0.000000000000D+00  7 2 -2 23 -13 13 23 21 2 0.31903350D+00 0.10435280D-01 0.10503116D+06 0.10503116D+06 0.10503116D+06 0.11199768D+01  1  2  6  1  7  1        2 0.110536964464D-01 0.100000000000D+01
0.495513006823D-05 0.000000000000D+00 0.000000000000D+00 0.368255163578D-07 0.476269566167D-08  7 2 -2 23 -13 13 23 21 2 0.33663588D+00 0.10453161D-01 0.10744429D+06 0.10744429D+06 0.10744429D+06 0.11191720D+01  1  2 11  1  7  1        2 0.247794447853D-03 0.100000000000D+01
0.149070347663D-05 0.000000000000D+00 0.000000000000D+00 0.368255163578D-07 0.000000000000D+00  7 21 -2 23 -13 13 23 -2 2 0.33690085D+00 0.10435280D-01 0.10744429D+06 0.10744429D+06 0.10744429D+06 0.11191720D+01  1  2 12  3  7  1        2 0.128026824665D-04 0.100000000000D+01
-.194961987032D-05 0.000000000000D+00 -.931792734940D-07 0.368255163578D-07 0.000000000000D+00  7 21 -2 23 -13 13 23 -2 2 0.33682636D+00 0.10435280D-01 0.10503116D+06 0.10503116D+06 0.10503116D+06 0.11199768D+01  1  2  5  3  7  1        2 -.168188855074D-04 0.100000000000D+01
0.464995371590D-07 0.000000000000D+00 0.000000000000D+00 0.368255163578D-07 0.444409537184D-10  7 21 -2 23 -13 13 23 -2 2 0.33663588D+00 0.10453161D-01 0.10744429D+06 0.10744429D+06 0.10744429D+06 0.11191720D+01  1  2 11  3  7  1        2 0.399882482040D-06 0.100000000000D+01
  </mgrwgt>
  </event>
  <event>
  8     66 0.29152272E-05 0.94753692E+02 0.75467711E-02 0.10476935E+00
        2 -1    0    0  501    0 0.00000000E+00 0.00000000E+00 0.44823715E+03 0.44823727E+03 0.32000000E+00 0.0000E+00 0.9000E+01
       -2 -1    0    0    0  501 0.00000000E+00 0.00000000E+00 -.14756312E+03 0.14756347E+03 0.32000000E+00 0.0000E+00 0.9000E+01
       25  2    1    2    0    0 -.67053796E+02 -.12196946E+03 0.26820665E+03 0.42626566E+03 0.30065735E+03 0.0000E+00 0.0000E+00
       23  2    3    3    0    0 -.47832148E+02 -.14072318E+02 0.26496815E+03 0.28365779E+03 0.88134440E+02 0.0000E+00 0.0000E+00
       23  1    1    2    0    0 0.67053796E+02 0.12196946E+03 0.32467380E+02 0.16953508E+03 0.91188000E+02 0.0000E+00 0.9000E+01
      -11  1    4    4    0    0 0.30133340E+01 -.29186304E+02 0.27081828E+02 0.39929262E+02 0.51099893E-03 0.0000E+00 0.9000E+01
       11  1    4    4    0    0 -.50845482E+02 0.15113986E+02 0.23788632E+03 0.24372853E+03 0.51099893E-03 0.0000E+00 0.9000E+01
       23  1    3    3    0    0 -.19221648E+02 -.10789714E+03 0.32385061E+01 0.14260787E+03 0.91188000E+02 0.0000E+00 0.9000E+01
#aMCatNLO 1  0  0  1  2 0.48286881D+02 0.00000000D+00  -5  7  0 0.00000000D+00 0.00000000D+00 0.00000000D+00 0.00000000D+00 0.00000000D+00
  <mgrwgt>
 0.6017224614D-03    6    2    0
 0.257183612339715D+03 0.000000000000000D+00 0.000000000000000D+00 0.257183612339715D+03
 0.257183612339715D+03 0.000000000000000D+00 0.000000000000000D+00 -.257183612339715D+03
 0.177396654905195D+03 0.670537959407563D+02 0.121969457199432D+03 -.614944045256488D+02
 0.304200584758769D+02 0.301333403518418D+01 -.291863042270868D+02 0.802866248089320D+01
 0.143258347210346D+03 -.508454821017954D+02 0.151139863457116D+02 0.133076137650661D+03
 0.163292164088013D+03 -.192216478741451D+02 -.107897139318056D+03 -.796103956059057D+02
 0.000000000000000D+00 0.000000000000000D+00 -.000000000000000D+00 -.000000000000000D+00
 0.279137109622024D+03 0.000000000000000D+00 0.000000000000000D+00 0.279137109622024D+03
 0.286308090132581D+03 0.000000000000000D+00 0.000000000000000D+00 -.286308090132581D+03
 0.186937956335720D+03 0.614725777291403D+02 0.138094563884123D+03 -.614944045256488D+02
 0.278720854760593D+02 0.212036047357118D+01 -.266063488478741D+02 0.802866248089320D+01
 0.146790237499591D+03 -.552887175048851D+02 0.279512634747265D+02 0.133076137650661D+03
 0.155028470072317D+03 -.240979809638223D+02 -.938085679130742D+02 -.796103956059057D+02
 0.488164503709170D+02 0.157937602659959D+02 -.456309105979014D+02 -.717098051055670D+01
0.368860212719D-05 0.000000000000D+00 0.000000000000D+00 0.197559462214D-07 0.000000000000D+00  7 2 -2 23 -11 11 23 21 0 0.68959598D-01 0.22702054D-01 0.38289482D+05 0.38289482D+05 0.38289482D+05 0.11576308D+01  1  2  2  1  7  1        2 0.499182151811D-03 0.100000000000D+01
-.186308774602D-06 0.000000000000D+00 -.141652033997D-07 0.197559462214D-07 0.000000000000D+00  7 2 -2 23 -11 11 23 21 2 0.68959598D-01 0.22702054D-01 0.38289482D+05 0.38289482D+05 0.38289482D+05 0.11576308D+01  1  2  3  1  7  1        2 -.337886358513D-04 0.100000000000D+01
0.236400137212D-06 0.000000000000D+00 0.000000000000D+00 0.197559462214D-07 0.000000000000D+00  7 2 -2 23 -11 11 23 21 2 0.68959598D-01 0.22702054D-01 0.38289482D+05 0.38289482D+05 0.38289482D+05 0.11576308D+01  1  2 15  1  7  1        2 0.428731183944D-04 0.100000000000D+01
0.330515135020D-05 0.000000000000D+00 0.000000000000D+00 0.197559462214D-07 0.000000000000D+00  7 2 -2 23 -11 11 23 21 2 0.78390618D-01 0.22702054D-01 0.49838425D+05 0.49838425D+05 0.49838425D+05 0.11474191D+01  1  2 12  1  7  1        2 0.512574218883D-03 0.100000000000D+01
-.242264376098D-05 0.000000000000D+00 0.000000000000D+00 0.197559462214D-07 0.000000000000D+00  7 2 -2 23 -11 11 23 21 2 0.68959598D-01 0.22702054D-01 0.38289482D+05 0.38289482D+05 0.38289482D+05 0.11576308D+01  1  2  4  1  7  1        2 -.439366465762D-03 0.100000000000D+01
0.662685554995D-07 0.000000000000D+00 0.000000000000D+00 0.197559462214D-07 0.000000000000D+00  7 21 -2 23 -11 11 23 -2 2 0.78390618D-01 0.22702054D-01 0.49838425D+05 0.49838425D+05 0.49838425D+05 0.11474191D+01  1  2 12  3  7  1        2 0.202480739279D-04 0.100000000000D+01
  </mgrwgt>
  </event>
  <event>
  8     66 0.29152272E-05 0.39010286E+03 0.75467711E-02 0.91564320E-01
        2 -1    0    0  501    0 0.00000000E+00 0.00000000E+00 0.15984762E+04 0.15984762E+04 0.32000000E+00 0.0000E+00 0.9000E+01
       -2 -1    0    0    0  501 0.00000000E+00 0.00000000E+00 -.28422531E+03 0.28422549E+03 0.32000000E+00 0.0000E+00 0.9000E+01
       25  2    1    2    0    0 0.34690533E+03 -.58632587E+01 0.14332747E+04 0.15047339E+04 0.29928267E+03 0.0000E+00 0.0000E+00
       23  2    3    3    0    0 0.31257384E+03 0.28910564E+02 0.82174922E+03 0.88451901E+03 0.92541160E+02 0.0000E+00 0.0000E+00
       23  1    1    2    0    0 -.34690533E+03 0.58632587E+01 -.11902387E+03 0.37796775E+03 0.91188000E+02 0.0000E+00 0.9000E+01
      -11  1    4    4    0    0 0.19358252E+03 -.70332416E+01 0.39350722E+03 0.43860186E+03 0.51099893E-03 0.0000E+00 0.9000E+01
       11  1    4    4    0    0 0.11899132E+03 0.35943806E+02 0.42824200E+03 0.44591715E+03 0.51099893E-03 0.0000E+00 0.9000E+01
       23  1    3    3    0    0 0.34331483E+02 -.34773823E+02 0.61152550E+03 0.62021493E+03 0.91188000E+02 0.0000E+00 0.9000E+01
#aMCatNLO 1  0  0  1  2 0.44886425D+03 0.00000000D+00  -5  7  0 0.00000000D+00 0.00000000D+00 0.00000000D+00 0.00000000D+00 0.00000000D+00
  <mgrwgt>
 0.5281146238D-03    3    2    0
 0.674038263886799D+03 0.000000000000000D+00 0.000000000000000D+00 0.674038263886799D+03
 0.674038263886799D+03 0.000000000000000D+00 0.000000000000000D+00 -.674038263886799D+03
 0.643900930711288D+03 -.346905327084194D+03 0.586325871212504D+01 -.534710644615147D+03
 0.228910789786101D+03 0.193582524973742D+03 -.703324158112429D+01 0.121969214222888D+03
 0.205263977608396D+03 0.118991319498171D+03 0.359438056763546D+02 0.163347510606083D+03
 0.270000829667814D+03 0.343314826122805D+02 -.347738228073554D+02 0.249393919786175D+03
 0.000000000000000D+00 -.000000000000000D+00 -.000000000000000D+00 -.000000000000000D+00
 0.762256793106440D+03 0.000000000000000D+00 0.000000000000000D+00 0.762256793106440D+03
 0.168213022525270D+04 0.000000000000000D+00 0.000000000000000D+00 -.168213022525270D+04
 0.621269349986946D+03 -.242030350735611D+03 0.182115869015454D+03 -.534710644615147D+03
 0.272213903149856D+03 0.235122735901195D+03 0.627791279986223D+02 0.121969214222888D+03
 0.246888200958246D+03 0.156472004712312D+03 0.989337469850661D+02 0.163347510606083D+03
 0.280469647767591D+03 0.799621610927854D+02 0.419129758181741D+02 0.249393919786175D+03
 0.102354591649650D+04 -.229526550970681D+03 -.385741719817317D+03 -.919873432146258D+03
0.701167447824D-04 0.000000000000D+00 0.000000000000D+00 0.601799907290D-06 0.000000000000D+00  7 2 -2 23 -11 11 23 21 0 0.24591942D+00 0.43726987D-01 0.15218024D+06 0.15218024D+06 0.15218024D+06 0.11070577D+01  1  2  2  1  7  1        2 0.511998733217D-03 0.100000000000D+01
-.247889896002D-05 0.000000000000D+00 -.269266762127D-06 0.601799907290D-06 0.000000000000D+00  7 2 -2 23 -11 11 23 21 2 0.24591942D+00 0.43726987D-01 0.15218024D+06 0.15218024D+06 0.15218024D+06 0.11070577D+01  1  2  3  1  7  1        2 -.221843375734D-04 0.100000000000D+01
0.427970388223D-05 0.000000000000D+00 0.000000000000D+00 0.601799907290D-06 0.000000000000D+00  7 2 -2 23 -11 11 23 21 2 0.24591942D+00 0.43726987D-01 0.15218024D+06 0.15218024D+06 0.15218024D+06 0.11070577D+01  1  2 15  1  7  1        2 0.383002281128D-04 0.100000000000D+01
  </mgrwgt>
  </event>
  <event>
  8     66 0.29152272E-05 0.19780158E+03 0.75467711E-02 0.10539430E+00
        2 -1    0    0  501    0 0.00000000E+00 0.00000000E+00 0.46602413E+03 0.46602424E+03 0.32000000E+00 0.0000E+00 0.9000E+01
       -2 -1    0    0    0  501 0.00000000E+00 0.00000000E+00 -.13300773E+03 0.13300811E+03 0.32000000E+00 0.0000E+00 0.9000E+01
       25  2    1    2    0    0 0.13407341E+03 0.29868609E+02 0.18847186E+03 0.37976952E+03 0.29972560E+03 0.0000E+00 0.0000E+00
       23  2    3    3    0    0 0.10934168E+03 0.52243122E+02 0.22886849E+03 0.27460576E+03 0.91337785E+02 0.0000E+00 0.0000E+00
       23  1    1    2    0    0 -.13407341E+03 -.29868609E+02 0.14454454E+03 0.21926283E+03 0.91188000E+02 0.0000E+00 0.9000E+01
      -11  1    4    4    0    0 0.42235374E+02 -.85431820E+01 0.21129942E+02 0.47992575E+02 0.51099893E-03 0.0000E+00 0.9000E+01
       11  1    4    4    0    0 0.67106304E+02 0.60786304E+02 0.20773855E+03 0.22661319E+03 0.51099893E-03 0.0000E+00 0.9000E+01
       23  1    3    3    0    0 0.24731733E+02 -.22374513E+02 -.40396632E+02 0.10516376E+03 0.91188000E+02 0.0000E+00 0.9000E+01
#aMCatNLO 1  0  0  2  2 0.31995506D+02 0.00000000D+00  -5  7  0 0.00000000D+00 0.00000000D+00 0.00000000D+00 0.00000000D+00 0.00000000D+00
  <mgrwgt>
 0.4847039725D-03    4    2    0
 0.248967788230867D+03 0.000000000000000D+00 0.000000000000000D+00 0.248967788230867D+03
 0.248967788230867D+03 0.000000000000000D+00 0.000000000000000D+00 -.248967788230867D+03
 0.167109624100901D+03 -.134073411407502D+03 -.298686092336706D+02 0.272499845714727D+02
 0.436050144531851D+02 0.422353744083757D+02 -.854318200869501D+01 -.667716071493807D+01
 0.133688552859423D+03 0.671063037980122D+02 0.607863041904475D+02 0.983585196059911D+02
 0.153532385048224D+03 0.247317332011140D+02 -.223745129480819D+02 -.118931343462526D+03
 0.000000000000000D+00 0.000000000000000D+00 0.000000000000000D+00 0.000000000000000D+00
 0.366273105762251D+03 0.000000000000000D+00 0.000000000000000D+00 0.366273105762251D+03
 0.251672554858236D+03 0.000000000000000D+00 0.000000000000000D+00 -.251672554858236D+03
 0.171595591711844D+03 -.136964533013110D+03 -.403478721656152D+02 0.272499845714727D+02
 0.435023554845511D+02 0.414918429022829D+02 -.112382129390494D+02 -.667716071493807D+01
 0.129052230419066D+03 0.648635997599648D+02 0.526573188002652D+02 0.983585196059911D+02
 0.154812296608620D+03 0.220997631885665D+02 -.319144457329824D+02 -.118931343462526D+03
 0.118983186396405D+03 0.850932716229619D+01 0.308432120373818D+02 0.114600550904015D+03
0.323398269921D-05 0.000000000000D+00 0.000000000000D+00 0.195998952114D-06 0.000000000000D+00  7 2 -2 23 -11 11 23 21 0 0.71696058D-01 0.20462766D-01 0.39125467D+05 0.39125467D+05 0.39125467D+05 0.11567835D+01  1  2  2  2  7  2       -2 0.498033635702D-03 0.100000000000D+01
-.168103904541D-06 0.000000000000D+00 -.124193450922D-07 0.195998952114D-06 0.000000000000D+00  7 2 -2 23 -11 11 23 21 2 0.71696058D-01 0.20462766D-01 0.39125467D+05 0.39125467D+05 0.39125467D+05 0.11567835D+01  1  2  3  2  7  2       -2 -.346420015202D-04 0.100000000000D+01
0.208988855877D-06 0.000000000000D+00 0.000000000000D+00 0.195998952114D-06 0.000000000000D+00  7 2 -2 23 -11 11 23 21 2 0.71696058D-01 0.20462766D-01 0.39125467D+05 0.39125467D+05 0.39125467D+05 0.11567835D+01  1  2 15  2  7  2       -2 0.430673652869D-04 0.100000000000D+01
-.105568524308D-06 0.000000000000D+00 0.000000000000D+00 0.195998952114D-06 0.000000000000D+00  7 2 -2 23 -11 11 23 21 2 0.71696058D-01 0.20462766D-01 0.39125467D+05 0.39125467D+05 0.39125467D+05 0.11567835D+01  1  2  4  2  7  2       -2 -.217550269850D-04 0.100000000000D+01
  </mgrwgt>
  </event>
  <event>
  8     66 0.29152272E-05 0.13499078E+03 0.75467711E-02 0.10587908E+00
        2 -1    0    0  501    0 0.00000000E+00 0.00000000E+00 0.31675703E+03 0.31675719E+03 0.32000000E+00 0.0000E+00 0.9000E+01
       -2 -1    0    0    0  501 0.00000000E+00 0.00000000E+00 -.17727775E+03 0.17727804E+03 0.32000000E+00 0.0000E+00 0.9000E+01
       25  2    1    2    0    0 0.47430290E+02 -.10221251E+01 -.15036288E+02 0.30845239E+03 0.30441109E+03 0.0000E+00 0.0000E+00
       23  2    3    3    0    0 -.62609094E+02 0.85845068E+02 0.51830973E+01 0.13999275E+03 0.91004570E+02 0.0000E+00 0.0000E+00
       23  1    1    2    0    0 -.47430290E+02 0.10221251E+01 0.15451557E+03 0.18558284E+03 0.91188000E+02 0.0000E+00 0.9000E+01
      -13  1    4    4    0    0 -.50615131E+02 -.18859528E+00 -.10576985E+02 0.51708905E+02 0.10565837E+00 0.0000E+00 0.9000E+01
       13  1    4    4    0    0 -.11993963E+02 0.86033663E+02 0.15760082E+02 0.88283847E+02 0.10565837E+00 0.0000E+00 0.9000E+01
       23  1    3    3    0    0 0.11003938E+03 -.86867193E+02 -.20219385E+02 0.16845964E+03 0.91188000E+02 0.0000E+00 0.9000E+01
#aMCatNLO 1  0  0  1  2 0.52131278D+01 0.00000000D+00  -5  7  0 0.00000000D+00 0.00000000D+00 0.00000000D+00 0.00000000D+00 0.00000000D+00
  <mgrwgt>
 0.3201173100D-03   11    2    0
 0.236968531331935D+03 0.000000000000000D+00 0.000000000000000D+00 0.236968531331935D+03
 0.236968531331935D+03 0.000000000000000D+00 0.000000000000000D+00 -.236968531331935D+03
 0.147979386128979D+03 -.474304817910270D+02 0.102212926970864D+01 0.106451641715554D+03
 0.570143985253217D+02 -.506150451390792D+02 -.188810524565298D+00 -.262435362586483D+02
 0.873893795242136D+02 -.119937151833096D+02 0.860336223014019D+02 -.955354821144564D+01
 0.181553898485356D+03 0.110039242113416D+03 -.868669410465452D+02 -.706545572454596D+02
 0.000000000000000D+00 -.000000000000000D+00 0.000000000000000D+00 0.000000000000000D+00
 0.241233117604599D+03 0.000000000000000D+00 0.000000000000000D+00 0.241233117604599D+03
 0.238581401578283D+03 0.000000000000000D+00 0.000000000000000D+00 -.238581401578283D+03
 0.147701594303424D+03 -.465664175895363D+02 -.355450015485199D+00 0.106451641715554D+03
 0.567237747868671D+02 -.502826697398962D+02 -.718717288475252D+00 -.262435362586483D+02
 0.865228793500037D+02 -.114854939346049D+02 0.852233641477796D+02 -.955354821144564D+01
 0.183017484570292D+03 0.111104623730203D+03 -.885654810897278D+02 -.706545572454596D+02
 0.584878617229614D+01 -.277004246616589D+01 0.441628424590870D+01 0.265171602631557D+01
0.120365615819D-05 0.000000000000D+00 0.000000000000D+00 0.362361029564D-08 0.000000000000D+00  7 2 -2 23 -13 13 23 21 0 0.48731886D-01 0.27273534D-01 0.41516791D+05 0.41516791D+05 0.41516791D+05 0.11544662D+01  1  2  2  1  7  1        2 0.173892523742D-03 0.100000000000D+01
-.650159578488D-07 0.000000000000D+00 -.462235657738D-08 0.362361029564D-08 0.000000000000D+00  7 2 -2 23 -13 13 23 21 2 0.48731886D-01 0.27273534D-01 0.41516791D+05 0.41516791D+05 0.41516791D+05 0.11544662D+01  1  2  3  1  7  1        2 -.125187484496D-04 0.100000000000D+01
0.742803103816D-07 0.000000000000D+00 0.000000000000D+00 0.362361029564D-08 0.000000000000D+00  7 2 -2 23 -13 13 23 21 2 0.48731886D-01 0.27273534D-01 0.41516791D+05 0.41516791D+05 0.41516791D+05 0.11544662D+01  1  2 15  1  7  1        2 0.143025889519D-04 0.100000000000D+01
0.652461282592D-06 0.000000000000D+00 0.000000000000D+00 0.362361029564D-08 0.000000000000D+00  7 2 -2 23 -13 13 23 21 2 0.49772649D-01 0.27273534D-01 0.42583322D+05 0.42583322D+05 0.42583322D+05 0.11534798D+01  1  2 12  1  7  1        2 0.122621427973D-03 0.100000000000D+01
-.780902961921D-05 0.000000000000D+00 0.000000000000D+00 0.362361029564D-08 0.000000000000D+00  7 2 -2 23 -13 13 23 21 2 0.48731886D-01 0.27273534D-01 0.41516791D+05 0.41516791D+05 0.41516791D+05 0.11544662D+01  1  2  4  1  7  1        2 -.150361973695D-02 0.100000000000D+01
-.570808024196D-04 0.000000000000D+00 -.686365722778D-05 0.362361029564D-08 0.000000000000D+00  7 2 -2 23 -13 13 23 21 2 0.49893266D-01 0.27273534D-01 0.41516791D+05 0.41516791D+05 0.41516791D+05 0.11544662D+01  1  2  5  1  7  1        2 -.107156356566D-01 0.100000000000D+01
0.572284882448D-04 0.000000000000D+00 0.686175396546D-05 0.362361029564D-08 0.000000000000D+00  7 2 -2 23 -13 13 23 21 2 0.48731886D-01 0.27273534D-01 0.41516791D+05 0.41516791D+05 0.41516791D+05 0.11544662D+01  1  2  6  1  7  1        2 0.110192800689D-01 0.100000000000D+01
0.717930133495D-05 0.000000000000D+00 0.000000000000D+00 0.362361029564D-08 0.946368788352D-09  7 2 -2 23 -13 13 23 21 2 0.49608886D-01 0.27459165D-01 0.42583322D+05 0.42583322D+05 0.42583322D+05 0.11534798D+01  1  2 11  1  7  1        2 0.133842153986D-02 0.100000000000D+01
0.267669390204D-07 0.000000000000D+00 0.000000000000D+00 0.362361029564D-08 0.000000000000D+00  7 21 -2 23 -13 13 23 -2 2 0.49772649D-01 0.27273534D-01 0.42583322D+05 0.42583322D+05 0.42583322D+05 0.11534798D+01  1  2 12  3  7  1        2 0.167947108756D-04 0.100000000000D+01
-.242014231506D-06 0.000000000000D+00 -.292675715895D-07 0.362361029564D-08 0.000000000000D+00  7 21 -2 23 -13 13 23 -2 2 0.49893266D-01 0.27273534D-01 0.41516791D+05 0.41516791D+05 0.41516791D+05 0.11544662D+01  1  2  5  3  7  1        2 -.151444839682D-03 0.100000000000D+01
0.288589995776D-07 0.000000000000D+00 0.000000000000D+00 0.362361029564D-08 0.308151855435D-11  7 21 -2 23 -13 13 23 -2 2 0.49608886D-01 0.27459165D-01 0.42583322D+05 0.42583322D+05 0.42583322D+05 0.11534798D+01  1  2 11  3  7  1        2 0.180234313131D-04 0.100000000000D+01
  </mgrwgt>
  </event>
  <event>
  8     66 0.29152272E-05 0.43814351E+03 0.75467711E-02 0.90122084E-01
        2 -1    0    0  501    0 0.00000000E+00 0.00000000E+00 0.25665955E+03 0.25665975E+03 0.32000000E+00 0.0000E+00 0.9000E+01
       -2 -1    0    0    0  501 0.00000000E+00 0.00000000E+00 -.95558757E+03 0.95558762E+03 0.32000000E+00 0.0000E+00 0.9000E+01
       25  2    1    2    0    0 0.13638473E+03 0.37462871E+03 -.13836636E+03 0.51835107E+03 0.30099022E+03 0.0000E+00 0.0000E+00
       23  2    3    3    0    0 0.16467317E+03 0.28855170E+03 -.43099500E+02 0.35834946E+03 0.12719053E+03 0.0000E+00 0.0000E+00
       23  1    1    2    0    0 -.13638473E+03 -.37462871E+03 -.56056165E+03 0.69389631E+03 0.91188000E+02 0.0000E+00 0.9000E+01
      -13  1    4    4    0    0 -.31028348E+01 0.32436993E+02 -.40735174E+02 0.52164659E+02 0.10565837E+00 0.0000E+00 0.9000E+01
       13  1    4    4    0    0 0.16777601E+03 0.25611470E+03 -.23643263E+01 0.30618480E+03 0.10565837E+00 0.0000E+00 0.9000E+01
       23  1    3    3    0    0 -.28288442E+02 0.86077012E+02 -.95266865E+02 0.16000161E+03 0.91188000E+02 0.0000E+00 0.9000E+01
#aMCatNLO 1  0  0  2  1 0.52915546D+03 0.00000000D+00  -5  7  0 0.00000000D+00 0.00000000D+00 0.00000000D+00 0.00000000D+00 0.00000000D+00
  <mgrwgt>
 0.8089400719D-03    3    2    0
 0.495238154309673D+03 0.000000000000000D+00 0.000000000000000D+00 0.495238154309673D+03
 0.495238154309673D+03 0.000000000000000D+00 0.000000000000000D+00 -.495238154309673D+03
 0.453702652015261D+03 -.136384731189984D+03 -.374628708556057D+03 -.196426528059573D+03
 0.350995195693750D+02 -.310292092285906D+01 0.324368143223181D+02 -.130461194370925D+02
 0.373072503538190D+03 0.167776154519166D+03 0.256114870360793D+03 0.213165259953605D+03
 0.128601633496520D+03 -.282885024063232D+02 0.860770238729457D+02 -.369261245694018D+01
 0.000000000000000D+00 0.000000000000000D+00 0.000000000000000D+00 0.000000000000000D+00
 0.450037162136603D+04 0.000000000000000D+00 0.000000000000000D+00 0.450037162136603D+04
 0.579254005614087D+03 0.000000000000000D+00 0.000000000000000D+00 -.579254005614087D+03
 0.724433201917237D+03 -.189915808460467D+03 -.664708069356262D+03 -.196426528059573D+03
 0.230539189589853D+02 -.574524455728122D+01 0.181183363468508D+02 -.130461194370925D+02
 0.272153430460735D+03 0.138458958871035D+03 0.972480250123721D+02 0.213165259953605D+03
 0.103323748537202D+03 -.388265193126018D+02 0.289726022146772D+02 -.369261245694018D+01
 0.395666132710596D+04 0.960286134593148D+02 0.520369105782362D+03 0.392111761575194D+04
0.160988325522D-03 0.000000000000D+00 0.000000000000D+00 0.577919756587D-09 0.000000000000D+00  7 2 -2 23 -13 13 23 21 0 0.39486104D-01 0.14701349D+00 0.19196973D+06 0.19196973D+06 0.19196973D+06 0.10991949D+01  1  2  2  2  7  2       -2 0.800386782314D-03 0.100000000000D+01
-.878063322903D-05 0.000000000000D+00 -.618237559203D-06 0.577919756587D-09 0.000000000000D+00  7 2 -2 23 -13 13 23 21 2 0.39486104D-01 0.14701349D+00 0.19196973D+06 0.19196973D+06 0.19196973D+06 0.10991949D+01  1  2  3  2  7  2       -2 -.527449340373D-04 0.100000000000D+01
0.102045291909D-04 0.000000000000D+00 0.000000000000D+00 0.577919756587D-09 0.000000000000D+00  7 2 -2 23 -13 13 23 21 2 0.39486104D-01 0.14701349D+00 0.19196973D+06 0.19196973D+06 0.19196973D+06 0.10991949D+01  1  2 15  2  7  2       -2 0.612982236036D-04 0.100000000000D+01
  </mgrwgt>
  </event>
  <event>
  8     66 0.29152272E-05 0.27868799E+03 0.75467711E-02 0.96257106E-01
        2 -1    0    0  501    0 0.00000000E+00 0.00000000E+00 0.15567131E+04 0.15567131E+04 0.32000000E+00 0.0000E+00 0.9000E+01
       -2 -1    0    0    0  501 0.00000000E+00 0.00000000E+00 -.24607158E+03 0.24607178E+03 0.32000000E+00 0.0000E+00 0.9000E+01
       25  2    1    2    0    0 0.39457574E+03 -.81066821E+02 0.12956979E+04 0.13895049E+04 0.29938091E+03 0.0000E+00 0.0000E+00
       23  2    3    3    0    0 0.88498822E+02 -.15800406E+02 0.14731415E+03 0.19575312E+03 0.92391186E+02 0.0000E+00 0.0000E+00
       23  1    1    2    0    0 -.39457574E+03 0.81066821E+02 0.14943646E+02 0.41328006E+03 0.91188000E+02 0.0000E+00 0.9000E+01
      -13  1    4    4    0    0 0.15014852E+02 -.45843946E+02 0.42677978E+02 0.64409115E+02 0.10565837E+00 0.0000E+00 0.9000E+01
       13  1    4    4    0    0 0.73483970E+02 0.30043540E+02 0.10463617E+03 0.13134401E+03 0.10565837E+00 0.0000E+00 0.9000E+01
       23  1    3    3    0    0 0.30607691E+03 -.65266416E+02 0.11483837E+04 0.11937517E+04 0.91188000E+02 0.0000E+00 0.9000E+01
#aMCatNLO 1  0  0  1  2 0.15308457D+01 0.00000000D+00  -5  7  0 0.00000000D+00 0.00000000D+00 0.00000000D+00 0.00000000D+00 0.00000000D+00
  <mgrwgt>
 0.4583628850D-03   11    2    0
 0.618920885862762D+03 0.000000000000000D+00 0.000000000000000D+00 0.618920885862762D+03
 0.618920885862762D+03 0.000000000000000D+00 0.000000000000000D+00 -.618920885862762D+03
 0.586075945345787D+03 -.394575735329132D+03 0.810668212456001D+02 -.415821983487605D+03
 0.486170372589315D+02 0.150147755951112D+02 -.458440449645125D+02 -.604122230649913D+01
 0.804986020263625D+02 0.734840466674499D+02 0.300436393407484D+02 0.133228956588939D+02
 0.522650187094444D+03 0.306076913066571D+03 -.652664156218360D+02 0.408540310135210D+03
 0.000000000000000D+00 -.000000000000000D+00 -.000000000000000D+00 0.000000000000000D+00
 0.630125286515811D+03 0.000000000000000D+00 0.000000000000000D+00 0.630125286515811D+03
 0.618973650841752D+03 0.000000000000000D+00 0.000000000000000D+00 -.618973650841752D+03
 0.585705480849979D+03 -.393949943733340D+03 0.814320504140619D+02 -.415821983487605D+03
 0.486045337626366D+02 0.150666969182479D+02 -.458137422538303D+02 -.604122230649913D+01
 0.805958805793898D+02 0.735700794130538D+02 0.300938504147684D+02 0.133228956588939D+02
 0.522936823135821D+03 0.306635310348730D+03 -.649405196264193D+02 0.408540310135210D+03
 0.112562190297368D+02 -.132214294669230D+01 -.771638948580609D+00 0.111516356740594D+02
0.199854494699D-04 0.000000000000D+00 0.000000000000D+00 0.561884640831D-06 0.000000000000D+00  7 2 -2 23 -13 13 23 21 0 0.23949434D+00 0.37857184D-01 0.18775362D+06 0.18775362D+06 0.18775362D+06 0.10999392D+01  1  2  2  1  7  1        2 0.199831737079D-03 0.100000000000D+01
-.938699261019D-06 0.000000000000D+00 -.767493882541D-07 0.561884640831D-06 0.000000000000D+00  7 2 -2 23 -13 13 23 21 2 0.23949434D+00 0.37857184D-01 0.18775362D+06 0.18775362D+06 0.18775362D+06 0.10999392D+01  1  2  3  1  7  1        2 -.113557125515D-04 0.100000000000D+01
0.125595587717D-05 0.000000000000D+00 0.000000000000D+00 0.561884640831D-06 0.000000000000D+00  7 2 -2 23 -13 13 23 21 2 0.23949434D+00 0.37857184D-01 0.18775362D+06 0.18775362D+06 0.18775362D+06 0.10999392D+01  1  2 15  1  7  1        2 0.151936562761D-04 0.100000000000D+01
0.125063398667D-06 0.000000000000D+00 0.000000000000D+00 0.561884640831D-06 0.000000000000D+00  7 2 -2 23 -13 13 23 21 2 0.24384005D+00 0.37857184D-01 0.18842601D+06 0.18842601D+06 0.18842601D+06 0.10998193D+01  1  2 12  1  7  1        2 0.145991932911D-05 0.100000000000D+01
-.126381786888D-01 0.000000000000D+00 0.000000000000D+00 0.561884640831D-06 0.000000000000D+00  7 2 -2 23 -13 13 23 21 2 0.23949434D+00 0.37857184D-01 0.18775362D+06 0.18775362D+06 0.18775362D+06 0.10999392D+01  1  2  4  1  7  1        2 -.152887650310D+00 0.100000000000D+01
-.133740048036D-01 0.000000000000D+00 -.119046790712D-03 0.561884640831D-06 0.000000000000D+00  7 2 -2 23 -13 13 23 21 2 0.24383776D+00 0.37857184D-01 0.18775362D+06 0.18775362D+06 0.18775362D+06 0.10999392D+01  1  2  5  1  7  1        2 -.156179482334D+00 0.100000000000D+01
0.133740034684D-01 0.000000000000D+00 0.119027564877D-03 0.561884640831D-06 0.000000000000D+00  7 2 -2 23 -13 13 23 21 2 0.23949434D+00 0.37857184D-01 0.18775362D+06 0.18775362D+06 0.18775362D+06 0.10999392D+01  1  2  6  1  7  1        2 0.161789132426D+00 0.100000000000D+01
0.126399509292D-01 0.000000000000D+00 0.000000000000D+00 0.561884640831D-06 0.154700209669D-05  7 2 -2 23 -13 13 23 21 2 0.24382994D+00 0.37860412D-01 0.18842601D+06 0.18842601D+06 0.18842601D+06 0.10998193D+01  1  2 11  1  7  1        2 0.147540486270D+00 0.100000000000D+01
0.908820412441D-08 0.000000000000D+00 0.000000000000D+00 0.561884640831D-06 0.000000000000D+00  7 21 -2 23 -13 13 23 -2 2 0.24384005D+00 0.37857184D-01 0.18842601D+06 0.18842601D+06 0.18842601D+06 0.10998193D+01  1  2 12  3  7  1        2 0.342994873950D-07 0.100000000000D+01
-.438739547085D-04 0.000000000000D+00 -.390586211731D-06 0.561884640831D-06 0.000000000000D+00  7 21 -2 23 -13 13 23 -2 2 0.24383776D+00 0.37857184D-01 0.18775362D+06 0.18775362D+06 0.18775362D+06 0.10999392D+01  1  2  5  3  7  1        2 -.165678790860D-03 0.100000000000D+01
0.414384396065D-04 0.000000000000D+00 0.000000000000D+00 0.561884640831D-06 0.506998523930D-08  7 21 -2 23 -13 13 23 -2 2 0.24382994D+00 0.37860412D-01 0.18842601D+06 0.18842601D+06 0.18842601D+06 0.10998193D+01  1  2 11  3  7  1        2 0.156391723639D-03 0.100000000000D+01
  </mgrwgt>
  </event>
  <event>
  8     66 0.29152272E-05 0.30025687E+03 0.75467711E-02 0.81008380E-01
        2 -1    0    0  501    0 0.00000000E+00 0.00000000E+00 0.13624454E+04 0.13624455E+04 0.32000000E+00 0.0000E+00 0.9000E+01
       -2 -1    0    0    0  501 0.00000000E+00 0.00000000E+00 -.31527623E+03 0.31527639E+03 0.32000000E+00 0.0000E+00 0.9000E+01
       25  2    1    2    0    0 -.30978040E+02 0.25474617E+03 -.17113730E+03 0.42934642E+03 0.29865552E+03 0.0000E+00 0.0000E+00
       23  2    3    3    0    0 -.77230203E+02 0.46282784E+02 0.17983768E+02 0.12988310E+03 0.91867317E+02 0.0000E+00 0.0000E+00
       23  1    1    2    0    0 0.30978040E+02 -.25474617E+03 0.12183065E+04 0.12483755E+04 0.91188000E+02 0.0000E+00 0.9000E+01
      -11  1    4    4    0    0 -.79532036E+02 0.48190644E+02 0.44575046E+02 0.10312428E+03 0.51099893E-03 0.0000E+00 0.9000E+01
       11  1    4    4    0    0 0.23018330E+01 -.19078606E+01 -.26591278E+02 0.26758819E+02 0.51099893E-03 0.0000E+00 0.9000E+01
       23  1    3    3    0    0 0.46252164E+02 0.20846338E+03 -.18912107E+03 0.29946331E+03 0.91188000E+02 0.0000E+00 0.9000E+01
#aMCatNLO 1  0  0  2  2 0.20045302D+04 0.00000000D+00  -5  7  0 0.00000000D+00 0.00000000D+00 0.00000000D+00 0.00000000D+00 0.00000000D+00
  <mgrwgt>
 0.7408694302D-03    5    2    0
 0.655398219588351D+03 0.000000000000000D+00 0.000000000000000D+00 0.655398219588351D+03
 0.655398219588351D+03 0.000000000000000D+00 0.000000000000000D+00 -.655398219588351D+03
 0.624546797832345D+03 0.309780396371636D+02 -.254746168017909D+03 0.562039324495240D+03
 0.963812876677754D+02 -.795320361491426D+02 0.481906443814247D+02 -.253311987985767D+02
 0.554925397942160D+02 0.230183300261449D+01 -.190786058703273D+01 -.554119446114389D+02
 0.534375813882365D+03 0.462521635093644D+02 0.208463384223517D+03 -.481296181085225D+03
 0.000000000000000D+00 0.000000000000000D+00 -.000000000000000D+00 -.000000000000000D+00
 0.195678093494171D+04 0.000000000000000D+00 0.000000000000000D+00 0.195678093494171D+04
 0.252059577185879D+04 0.000000000000000D+00 0.000000000000000D+00 -.252059577185879D+04
 0.985980849669874D+03 -.804901704449843D+03 -.938234866115391D+01 0.562039324495240D+03
 0.313563021483405D+03 -.292297178526334D+03 0.110645642637989D+03 -.253311987985767D+02
 0.971956431708551D+02 -.769448409057127D+02 0.213541776654967D+02 -.554119446114389D+02
 0.998323902682400D+03 -.749234116301686D+03 0.441970121575461D+03 -.481296181085225D+03
 0.208231328979396D+04 0.192337784018358D+04 -.564587593217793D+03 -.563814836917081D+03
0.851138807840D-04 0.000000000000D+00 0.000000000000D+00 0.525135243588D-06 0.000000000000D+00  7 2 -2 23 -11 11 23 21 0 0.20960701D+00 0.48504050D-01 0.90154188D+05 0.90154188D+05 0.90154188D+05 0.11254348D+01  1  2  2  2  7  2       -2 0.698529849803D-03 0.100000000000D+01
-.122529441921D-05 0.000000000000D+00 -.326859713210D-06 0.525135243588D-06 0.000000000000D+00  7 2 -2 23 -11 11 23 21 2 0.20960701D+00 0.48504050D-01 0.90154188D+05 0.90154188D+05 0.90154188D+05 0.11254348D+01  1  2  3  2  7  2       -2 -.127369577130D-04 0.100000000000D+01
0.502518692505D-05 0.000000000000D+00 0.000000000000D+00 0.525135243588D-06 0.000000000000D+00  7 2 -2 23 -11 11 23 21 2 0.20960701D+00 0.48504050D-01 0.90154188D+05 0.90154188D+05 0.90154188D+05 0.11254348D+01  1  2 15  2  7  2       -2 0.522369092366D-04 0.100000000000D+01
0.231775398192D-03 0.000000000000D+00 -.586910997975D-04 0.525135243588D-06 0.000000000000D+00  7 2 -2 23 -11 11 23 21 2 0.20960701D+00 0.47733857D+00 0.90154188D+05 0.90154188D+05 0.90154188D+05 0.11254348D+01  1  2  5  2  7  2       -2 0.884229247353D-06 0.100000000000D+01
0.539688867556D-04 0.000000000000D+00 -.159975197851D-04 0.525135243588D-06 0.000000000000D+00  7 2 21 23 -11 11 23 2 2 0.20960701D+00 0.47733857D+00 0.90154188D+05 0.90154188D+05 0.90154188D+05 0.11254348D+01  1  2  5  4  7  2       -2 0.195539960999D-05 0.100000000000D+01
  </mgrwgt>
  </event>
  <event>
  9     66 0.29152272E-05 0.41164999E+03 0.75467711E-02 0.96604912E-01
        2 -1    0    0  501    0 0.00000000E+00 0.00000000E+00 0.77009644E+03 0.77009651E+03 0.32000000E+00 0.0000E+00 0.9000E+01
       21 -1    0    0  502  501 0.00000000E+00 0.00000000E+00 -.42375512E+03 0.42375578E+03 0.75000000E+00 0.0000E+00 0.9000E+01
       25  2    1    2    0    0 0.35364763E+03 -.16262981E+03 -.14895128E+03 0.51326248E+03 0.29956099E+03 0.0000E+00 0.0000E+00
       23  2    3    3    0    0 0.18407796E+03 -.11225083E+03 0.42594805E+02 0.23704324E+03 0.88826999E+02 0.0000E+00 0.0000E+00
       23  1    1    2    0    0 -.35215368E+03 0.18213995E+03 0.35800158E+03 0.54191103E+03 0.91188000E+02 0.0000E+00 0.9000E+01
      -13  1    4    4    0    0 0.21091900E+02 -.24769253E+02 0.40634147E+02 0.52053139E+02 0.10565837E+00 0.0000E+00 0.9000E+01
       13  1    4    4    0    0 0.16298606E+03 -.87481578E+02 0.19606581E+01 0.18499010E+03 0.10565837E+00 0.0000E+00 0.9000E+01
       23  1    3    3    0    0 0.16956967E+03 -.50378978E+02 -.19154608E+03 0.27621924E+03 0.91188000E+02 0.0000E+00 0.9000E+01
        2  1    1    2  502    0 -.14939494E+01 -.19510145E+02 0.13729102E+03 0.13867878E+03 0.32000000E+00 0.0000E+00 0.9000E+01
#aMCatNLO 2  0  0  2  1 0.19567259D+02 0.00000000D+00  -5  7  0 0.00000000D+00 0.00000000D+00 0.00000000D+00 0.00000000D+00 0.00000000D+00
  <mgrwgt>
 0.6177357971D-04    1    2    0
 0.517036320749134D+03 0.000000000000000D+00 0.000000000000000D+00 0.517036320749134D+03
 0.517036320749134D+03 0.000000000000000D+00 0.000000000000000D+00 -.517036320749134D+03
 0.477666970481854D+03 -.352845771904492D+03 0.173101676036924D+03 0.255707165225464D+03
 0.453372814713772D+02 0.210265265918880D+02 -.256202831200711D+02 0.309346951422333D+02
 0.189783838878553D+03 0.162713147231988D+03 -.910483863490602D+02 -.353910802402844D+02
 0.321284550666485D+03 0.169106098080617D+03 -.564330065677929D+02 -.251250780127413D+03
 0.000000000000000D+00 -.000000000000000D+00 -.000000000000000D+00 0.000000000000000D+00
 0.630013641557310D+03 0.000000000000000D+00 0.000000000000000D+00 0.630013641557310D+03
 0.517976817072541D+03 0.000000000000000D+00 0.000000000000000D+00 -.517976817072541D+03
 0.480508674190780D+03 -.352153684235353D+03 0.182139954321962D+03 0.255707165225464D+03
 0.448923898168665D+02 0.210916992387157D+02 -.247691647648876D+02 0.309346951422333D+02
 0.188335052566711D+03 0.162986261481649D+03 -.874816668392150D+02 -.353910802402844D+02
 0.320521639275776D+03 0.169569672950742D+03 -.503789777662781D+02 -.251250780127413D+03
 0.113732702779717D+03 -.149394943575392D+01 -.195101449515812D+02 0.112036824484769D+03
0.501053431288D-06 0.000000000000D+00 0.000000000000D+00 0.180304551123D-06 0.116855720340D-11  7 2 21 23 -13 13 23 2 2 0.11847638D+00 0.65193123D-01 0.17762650D+06 0.17762650D+06 0.17762650D+06 0.11018045D+01  1  2  1  4  7  2       -2 0.617735797100D-04 0.100000000000D+01
  </mgrwgt>
  </event>
  <event>
  8     66 0.29152272E-05 0.43032731E+03 0.75467711E-02 0.93503979E-01
        2 -1    0    0  501    0 0.00000000E+00 0.00000000E+00 0.48818117E+04 0.48818117E+04 0.32000000E+00 0.0000E+00 0.9000E+01
       -2 -1    0    0    0  501 0.00000000E+00 0.00000000E+00 -.63492018E+02 0.63492825E+02 0.32000000E+00 0.0000E+00 0.9000E+01
       25  2    1    2    0    0 -.44869865E+03 0.20056531E+03 0.32058713E+04 0.32571511E+04 0.29977608E+03 0.0000E+00 0.0000E+00
       23  2    3    3    0    0 -.25945626E+03 0.19992318E+02 0.20189950E+04 0.20383772E+04 0.10451560E+03 0.0000E+00 0.0000E+00
       23  1    1    2    0    0 0.44869865E+03 -.20056531E+03 0.16124484E+04 0.16881534E+04 0.91188000E+02 0.0000E+00 0.9000E+01
      -11  1    4    4    0    0 -.97377001E+02 0.55270011E+02 0.68170756E+03 0.69084170E+03 0.51099893E-03 0.0000E+00 0.9000E+01
       11  1    4    4    0    0 -.16207926E+03 -.35277693E+02 0.13372875E+04 0.13475355E+04 0.51099893E-03 0.0000E+00 0.9000E+01
       23  1    3    3    0    0 -.18924239E+03 0.18057299E+03 0.11868762E+04 0.12187739E+04 0.91188000E+02 0.0000E+00 0.9000E+01
#aMCatNLO 1  0  0  2  1 0.49084389D+02 0.00000000D+00  -5  7  0 0.00000000D+00 0.00000000D+00 0.00000000D+00 0.00000000D+00 0.00000000D+00
  <mgrwgt>
 0.9960771141D-04    9    2    0
 0.556738804369752D+03 0.000000000000000D+00 0.000000000000000D+00 0.556738804369752D+03
 0.556738804369752D+03 0.000000000000000D+00 0.000000000000000D+00 -.556738804369752D+03
 0.520119098733929D+03 0.448698652947387D+03 -.200565306165959D+03 -.143707001671982D+03
 0.118311879629966D+03 -.973770006032831D+02 0.552700111258055D+02 0.382184050587818D+02
 0.198023726323493D+03 -.162079261566895D+03 -.352776933610509D+02 0.108162810189526D+03
 0.277022904052114D+03 -.189242390777208D+03 0.180572988401204D+03 -.267421357632550D+01
 0.000000000000000D+00 0.000000000000000D+00 -.000000000000000D+00 -.000000000000000D+00
 0.570104029096174D+03 0.000000000000000D+00 0.000000000000000D+00 0.570104029096174D+03
 0.604245585790956D+03 0.000000000000000D+00 0.000000000000000D+00 -.604245585790956D+03
 0.499140033580737D+03 0.429554022082003D+03 -.188831039722294D+03 -.143707001671982D+03
 0.123359811198522D+03 -.101916293080376D+03 0.580522672981220D+02 0.382184050587818D+02
 0.203494959052164D+03 -.169620942355778D+03 -.306551914997153D+02 0.108162810189526D+03
 0.288564150363768D+03 -.199865749485256D+03 0.187084334714611D+03 -.267421357632550D+01
 0.597906606919394D+02 0.418489628394071D+02 -.256503707907230D+02 -.341415566947814D+02
0.246007389249D-03 0.000000000000D+00 0.000000000000D+00 0.154368305432D-07 0.000000000000D+00  7 2 -2 23 -11 11 23 21 0 0.75104801D+00 0.97680657D-02 0.27811131D+06 0.27811131D+06 0.27811131D+06 0.10869946D+01  1  2  2  2  7  2       -2 0.921071690044D-04 0.100000000000D+01
-.136182477844D-04 0.000000000000D+00 -.944733149951D-06 0.154368305432D-07 0.000000000000D+00  7 2 -2 23 -11 11 23 21 2 0.75104801D+00 0.97680657D-02 0.27811131D+06 0.27811131D+06 0.27811131D+06 0.10869946D+01  1  2  3  2  7  2       -2 -.602450352611D-05 0.100000000000D+01
0.155475444343D-04 0.000000000000D+00 0.000000000000D+00 0.154368305432D-07 0.000000000000D+00  7 2 -2 23 -11 11 23 21 2 0.75104801D+00 0.97680657D-02 0.27811131D+06 0.27811131D+06 0.27811131D+06 0.10869946D+01  1  2 15  2  7  2       -2 0.687799471339D-05 0.100000000000D+01
0.551389948234D-03 0.000000000000D+00 0.000000000000D+00 0.154368305432D-07 0.000000000000D+00  7 2 -2 23 -11 11 23 21 2 0.75104801D+00 0.10712022D-01 0.30542229D+06 0.30542229D+06 0.30542229D+06 0.10839768D+01  1  2 12  2  7  2       -2 0.208136979139D-03 0.100000000000D+01
-.550895533546D-03 0.000000000000D+00 0.000000000000D+00 0.154368305432D-07 0.000000000000D+00  7 2 -2 23 -11 11 23 21 2 0.75104801D+00 0.97680657D-02 0.27811131D+06 0.27811131D+06 0.27811131D+06 0.10869946D+01  1  2  4  2  7  2       -2 -.243707717536D-03 0.100000000000D+01
-.115208816484D-02 0.000000000000D+00 -.224336164635D-03 0.154368305432D-07 0.000000000000D+00  7 2 -2 23 -11 11 23 21 2 0.75104801D+00 0.11410386D-01 0.27811131D+06 0.27811131D+06 0.27811131D+06 0.10869946D+01  1  2  5  2  7  2       -2 -.399406232113D-03 0.100000000000D+01
0.117541101385D-02 0.000000000000D+00 0.221654202282D-03 0.154368305432D-07 0.000000000000D+00  7 2 -2 23 -11 11 23 21 2 0.75104801D+00 0.97680657D-02 0.27811131D+06 0.27811131D+06 0.27811131D+06 0.10869946D+01  1  2  6  2  7  2       -2 0.519983768081D-03 0.100000000000D+01
0.834966966804D-05 0.000000000000D+00 0.000000000000D+00 0.154368305432D-07 0.000000000000D+00  7 2 21 23 -11 11 23 2 2 0.75104801D+00 0.10712022D-01 0.30542229D+06 0.30542229D+06 0.30542229D+06 0.10839768D+01  1  2 12  4  7  2       -2 0.443993704474D-04 0.100000000000D+01
-.253828070080D-04 0.000000000000D+00 -.526561828488D-05 0.154368305432D-07 0.000000000000D+00  7 2 21 23 -11 11 23 2 2 0.75104801D+00 0.11410386D-01 0.27811131D+06 0.27811131D+06 0.27811131D+06 0.10869946D+01  1  2  5  4  7  2       -2 -.122759116800D-03 0.100000000000D+01
  </mgrwgt>
  </event>
  <event>
  8     66 0.29152272E-05 0.18691965E+03 0.75467711E-02 0.98271438E-01
        2 -1    0    0  501    0 0.00000000E+00 0.00000000E+00 0.13347565E+03 0.13347604E+03 0.32000000E+00 0.0000E+00 0.9000E+01
       -2 -1    0    0    0  501 0.00000000E+00 0.00000000E+00 -.50961678E+03 0.50961688E+03 0.32000000E+00 0.0000E+00 0.9000E+01
       25  2    1    2    0    0 -.85166039E+02 0.32484648E+02 -.40348946E+03 0.51129121E+03 0.30051033E+03 0.0000E+00 0.0000E+00
       23  2    3    3    0    0 -.10744561E+03 0.50044825E+02 -.71408737E+02 0.16575164E+03 0.91243387E+02 0.0000E+00 0.0000E+00
       23  1    1    2    0    0 0.85166039E+02 -.32484648E+02 0.27348330E+02 0.13180170E+03 0.91188000E+02 0.0000E+00 0.9000E+01
      -11  1    4    4    0    0 0.89180590E+01 0.30041218E+02 -.11776619E+02 0.33476788E+02 0.51099893E-03 0.0000E+00 0.9000E+01
       11  1    4    4    0    0 -.11636367E+03 0.20003607E+02 -.59632117E+02 0.13227485E+03 0.51099893E-03 0.0000E+00 0.9000E+01
       23  1    3    3    0    0 0.22279570E+02 -.17560177E+02 -.33208072E+03 0.34553957E+03 0.91188000E+02 0.0000E+00 0.9000E+01
#aMCatNLO 1  0  0  1  2 0.27458613D+03 0.00000000D+00  -5  7  0 0.00000000D+00 0.00000000D+00 0.00000000D+00 0.00000000D+00 0.00000000D+00
  <mgrwgt>
 0.4494958440D-03    3    2    0
 0.260809486059210D+03 0.000000000000000D+00 0.000000000000000D+00 0.260809486059210D+03
 0.260809486059210D+03 0.000000000000000D+00 0.000000000000000D+00 -.260809486059210D+03
 0.182216480984975D+03 0.851660392639048D+02 -.324846485020229D+02 0.128759807262774D+03
 0.327806604178983D+02 0.891805901254618D+01 0.300412183391269D+02 0.962107694508356D+01
 0.120077937099211D+03 -.116363668762308D+03 0.200036070931529D+02 0.218646580910986D+02
 0.186543893616336D+03 0.222795704858575D+02 -.175601769302569D+02 -.160245542298956D+03
 0.000000000000000D+00 0.000000000000000D+00 0.000000000000000D+00 -.000000000000000D+00
 0.366368777893389D+03 0.000000000000000D+00 0.000000000000000D+00 0.366368777893389D+03
 0.557888318475672D+03 0.000000000000000D+00 0.000000000000000D+00 -.557888318475672D+03
 0.186075102428977D+03 0.204603772738692D+02 -.964934059685868D+02 0.128759807262774D+03
 0.225861854750767D+02 -.809419369110245D+00 0.204185085894210D+02 0.962107694508356D+01
 0.171841479529377D+03 -.167651398244487D+03 -.307317340882884D+02 0.218646580910986D+02
 0.208974880137959D+03 -.472096745520710D+02 -.863009964408023D+02 -.160245542298956D+03
 0.334779448797670D+03 0.195210114891799D+03 0.193107627908257D+03 -.191519540582283D+03
0.883626760433D-05 0.000000000000D+00 0.000000000000D+00 0.183445409975D-06 0.000000000000D+00  7 2 -2 23 -11 11 23 21 0 0.20534753D-01 0.78402619D-01 0.34938955D+05 0.34938955D+05 0.34938955D+05 0.11612442D+01  1  2  2  1  7  1        2 0.441793743837D-03 0.100000000000D+01
-.424673452058D-06 0.000000000000D+00 -.339335942433D-07 0.183445409975D-06 0.000000000000D+00  7 2 -2 23 -11 11 23 21 2 0.20534753D-01 0.78402619D-01 0.34938955D+05 0.34938955D+05 0.34938955D+05 0.11612442D+01  1  2  3  1  7  1        2 -.286320815766D-04 0.100000000000D+01
0.538911651949D-06 0.000000000000D+00 0.000000000000D+00 0.183445409975D-06 0.000000000000D+00  7 2 -2 23 -11 11 23 21 2 0.20534753D-01 0.78402619D-01 0.34938955D+05 0.34938955D+05 0.34938955D+05 0.11612442D+01  1  2 15  1  7  1        2 0.363341817257D-04 0.100000000000D+01
  </mgrwgt>
  </event>
  <event>
  8     66 0.29152272E-05 0.16637384E+03 0.75467711E-02 0.10103387E+00
        2 -1    0    0  501    0 0.00000000E+00 0.00000000E+00 0.24863318E+04 0.24863319E+04 0.32000000E+00 0.0000E+00 0.9000E+01
       -2 -1    0    0    0  501 0.00000000E+00 0.00000000E+00 -.33465172E+02 0.33466702E+02 0.32000000E+00 0.0000E+00 0.9000E+01
       25  2    1    2    0    0 -.58617611E+02 -.18044031E+03 0.12452248E+04 0.12939483E+04 0.29618014E+03 0.0000E+00 0.0000E+00
       23  2    3    3    0    0 0.41832033E+02 -.85767225E+02 0.91329384E+03 0.92307563E+03 0.94111916E+02 0.0000E+00 0.0000E+00
       23  1    1    2    0    0 0.58617611E+02 0.18044031E+03 0.12076418E+04 0.12258502E+04 0.91188000E+02 0.0000E+00 0.9000E+01
      -13  1    4    4    0    0 -.10303750E+02 -.80834701E+02 0.57832598E+03 0.58403884E+03 0.10565837E+00 0.0000E+00 0.9000E+01
       13  1    4    4    0    0 0.52135783E+02 -.49325239E+01 0.33496786E+03 0.33903679E+03 0.10565837E+00 0.0000E+00 0.9000E+01
       23  1    3    3    0    0 -.10044964E+03 -.94673087E+02 0.33193100E+03 0.37087271E+03 0.91188000E+02 0.0000E+00 0.9000E+01
#aMCatNLO 1  0  0  1  2 0.74053649D+02 0.00000000D+00  -5  7  0 0.00000000D+00 0.00000000D+00 0.00000000D+00 0.00000000D+00 0.00000000D+00
  <mgrwgt>
 0.7286737202D-03    9    2    0
 0.288457061539375D+03 0.000000000000000D+00 0.000000000000000D+00 0.288457061539375D+03
 0.288457061539375D+03 0.000000000000000D+00 0.000000000000000D+00 -.288457061539375D+03
 0.219636227283884D+03 0.586176114232831D+02 0.180440313363150D+03 0.626904293806893D+02
 0.920478984983876D+02 -.103038231010009D+02 -.808347915977702D+02 0.428063466651594D+02
 0.566339086220189D+02 0.521358579818000D+02 -.493243144816443D+01 0.215620740727305D+02
 0.208596088674458D+03 -.100449646304082D+03 -.946730903172158D+02 -.127058850118579D+03
 0.000000000000000D+00 -.000000000000000D+00 0.000000000000000D+00 0.000000000000000D+00
 0.432982544615972D+03 0.000000000000000D+00 0.000000000000000D+00 0.432982544615972D+03
 0.300467809948307D+03 0.000000000000000D+00 0.000000000000000D+00 -.300467809948307D+03
 0.211917953027880D+03 0.794329033553111D+02 0.162340048663715D+03 0.626904293806893D+02
 0.986136407238937D+02 -.110758360158382D+01 -.888315263888271D+02 0.428063466651594D+02
 0.625640261521503D+02 0.578851704046962D+02 -.993183655062430D+01 0.215620740727305D+02
 0.208551909342292D+03 -.803292124079098D+02 -.112169130275601D+03 -.127058850118579D+03
 0.151802825318063D+03 -.558812777505137D+02 0.485924445513376D+02 0.132514734667665D+03
0.735175358159D-05 0.000000000000D+00 0.000000000000D+00 0.762911737046D-09 0.000000000000D+00  7 2 -2 23 -13 13 23 21 0 0.38251271D+00 0.51486073D-02 0.64971659D+05 0.64971659D+05 0.64971659D+05 0.11374221D+01  1  2  2  1  7  1        2 0.592022106518D-03 0.100000000000D+01
-.400832911177D-06 0.000000000000D+00 -.282326695145D-07 0.762911737046D-09 0.000000000000D+00  7 2 -2 23 -13 13 23 21 2 0.38251271D+00 0.51486073D-02 0.64971659D+05 0.64971659D+05 0.64971659D+05 0.11374221D+01  1  2  3  1  7  1        2 -.417593421450D-04 0.100000000000D+01
0.467638775636D-06 0.000000000000D+00 0.000000000000D+00 0.762911737046D-09 0.000000000000D+00  7 2 -2 23 -13 13 23 21 2 0.38251271D+00 0.51486073D-02 0.64971659D+05 0.64971659D+05 0.64971659D+05 0.11374221D+01  1  2 15  1  7  1        2 0.487192720146D-04 0.100000000000D+01
0.109423347564D-04 0.000000000000D+00 0.000000000000D+00 0.762911737046D-09 0.000000000000D+00  7 2 -2 23 -13 13 23 21 2 0.57893187D+00 0.51486073D-02 0.86858208D+05 0.86858208D+05 0.86858208D+05 0.11267782D+01  1  2 12  1  7  1        2 0.167027724292D-03 0.100000000000D+01
-.111795079662D-04 0.000000000000D+00 0.000000000000D+00 0.762911737046D-09 0.000000000000D+00  7 2 -2 23 -13 13 23 21 2 0.38251271D+00 0.51486073D-02 0.64971659D+05 0.64971659D+05 0.64971659D+05 0.11374221D+01  1  2  4  1  7  1        2 -.116469702251D-02 0.100000000000D+01
-.128906505579D-04 0.000000000000D+00 -.203149264481D-05 0.762911737046D-09 0.000000000000D+00  7 2 -2 23 -13 13 23 21 2 0.57848933D+00 0.51486073D-02 0.64971659D+05 0.64971659D+05 0.64971659D+05 0.11374221D+01  1  2  5  1  7  1        2 -.204451005759D-03 0.100000000000D+01
0.127837933858D-04 0.000000000000D+00 0.186927073083D-05 0.762911737046D-09 0.000000000000D+00  7 2 -2 23 -13 13 23 21 2 0.38251271D+00 0.51486073D-02 0.64971659D+05 0.64971659D+05 0.64971659D+05 0.11374221D+01  1  2  6  1  7  1        2 0.133183375672D-02 0.100000000000D+01
0.534625572617D-06 0.000000000000D+00 0.000000000000D+00 0.762911737046D-09 0.000000000000D+00  7 21 -2 23 -13 13 23 -2 2 0.57893187D+00 0.51486073D-02 0.86858208D+05 0.86858208D+05 0.86858208D+05 0.11267782D+01  1  2 12  3  7  1        2 0.214903409219D-06 0.100000000000D+01
-.556423432713D-06 0.000000000000D+00 -.991200910127D-07 0.762911737046D-09 0.000000000000D+00  7 21 -2 23 -13 13 23 -2 2 0.57848933D+00 0.51486073D-02 0.64971659D+05 0.64971659D+05 0.64971659D+05 0.11374221D+01  1  2  5  3  7  1        2 -.236672331973D-06 0.100000000000D+01
  </mgrwgt>
  </event>
  <event>
  8     66 0.29152272E-05 0.25227256E+03 0.75467711E-02 0.99909163E-01
        2 -1    0    0  501    0 0.00000000E+00 0.00000000E+00 0.92136150E+03 0.92136155E+03 0.32000000E+00 0.0000E+00 0.9000E+01
       -2 -1    0    0    0  501 0.00000000E+00 0.00000000E+00 -.74635787E+02 0.74636473E+02 0.32000000E+00 0.0000E+00 0.9000E+01
       25  2    1    2    0    0 0.13089719E+03 0.69855218E+02 0.43500861E+03 0.54896330E+03 0.30019058E+03 0.0000E+00 0.0000E+00
       23  2    3    3    0    0 0.58056238E+02 0.15300302E+03 0.28913261E+03 0.34447755E+03 0.91031116E+02 0.0000E+00 0.0000E+00
       23  1    1    2    0    0 -.13089719E+03 -.69855218E+02 0.41171710E+03 0.44703473E+03 0.91188000E+02 0.0000E+00 0.9000E+01
      -13  1    4    4    0    0 -.43311426E+01 0.11278106E+03 0.16721721E+03 0.20174224E+03 0.10565837E+00 0.0000E+00 0.9000E+01
       13  1    4    4    0    0 0.62387380E+02 0.40221961E+02 0.12191540E+03 0.14273530E+03 0.10565837E+00 0.0000E+00 0.9000E+01
       23  1    3    3    0    0 0.72840956E+02 -.83147805E+02 0.14587600E+03 0.20448575E+03 0.91188000E+02 0.0000E+00 0.9000E+01
#aMCatNLO 1  0  0  1  2 0.12507090D+03 0.00000000D+00  -5  7  0 0.00000000D+00 0.00000000D+00 0.00000000D+00 0.00000000D+00 0.00000000D+00
  <mgrwgt>
 0.3441655082D-03    7    2    0
 0.262234455091950D+03 0.000000000000000D+00 0.000000000000000D+00 0.262234455091950D+03
 0.262234455091950D+03 0.000000000000000D+00 0.000000000000000D+00 -.262234455091950D+03
 0.184251633927845D+03 -.130897194669140D+03 -.698552185847075D+02 0.601629963126217D+02
 0.113157885488758D+03 -.433123154918403D+01 0.112781158066258D+03 -.814603380719150D+01
 0.742372902877967D+02 0.623874697743255D+02 0.402218639203552D+02 0.108652989128255D+01
 0.152822100479500D+03 0.728409564439987D+02 -.831478034019060D+02 -.531034923967128D+02
 0.000000000000000D+00 -.000000000000000D+00 -.000000000000000D+00 0.000000000000000D+00
 0.332333190381108D+03 0.000000000000000D+00 0.000000000000000D+00 0.332333190381108D+03
 0.331914047313784D+03 0.000000000000000D+00 0.000000000000000D+00 -.331914047313784D+03
 0.156352305185242D+03 -.911659602156334D+02 -.648072030362996D+02 0.601629963126217D+02
 0.118696207875875D+03 0.227144020581742D+02 0.116217416235539D+03 -.814603380719150D+01
 0.922869324623486D+02 0.818124152212345D+02 0.426898825457950D+02 0.108652989128255D+01
 0.171840191352035D+03 0.110712607807046D+03 -.783360554772785D+02 -.531034923967128D+02
 0.125071600819392D+03 -.124073464870822D+03 -.157640402677563D+02 0.419143067323874D+00
0.174985712449D-05 0.000000000000D+00 0.000000000000D+00 0.226517287431D-06 0.000000000000D+00  7 2 -2 23 -13 13 23 21 0 0.14174798D+00 0.11482486D-01 0.63641446D+05 0.63641446D+05 0.63641446D+05 0.11381923D+01  1  2  2  1  7  1        2 0.303582737952D-03 0.100000000000D+01
-.970369959530D-07 0.000000000000D+00 -.671991210602D-08 0.226517287431D-06 0.000000000000D+00  7 2 -2 23 -13 13 23 21 2 0.14174798D+00 0.11482486D-01 0.63641446D+05 0.63641446D+05 0.63641446D+05 0.11381923D+01  1  2  3  1  7  1        2 -.218093705322D-04 0.100000000000D+01
0.112491205844D-06 0.000000000000D+00 0.000000000000D+00 0.226517287431D-06 0.000000000000D+00  7 2 -2 23 -13 13 23 21 2 0.14174798D+00 0.11482486D-01 0.63641446D+05 0.63641446D+05 0.63641446D+05 0.11381923D+01  1  2 15  1  7  1        2 0.252827528900D-04 0.100000000000D+01
-.637700338559D-06 0.000000000000D+00 0.000000000000D+00 0.226517287431D-06 0.000000000000D+00  7 2 -2 23 -13 13 23 21 2 0.14174798D+00 0.11482486D-01 0.63641446D+05 0.63641446D+05 0.63641446D+05 0.11381923D+01  1  2  4  1  7  1        2 -.143325160013D-03 0.100000000000D+01
-.135610233952D-05 0.000000000000D+00 -.686665157571D-06 0.226517287431D-06 0.000000000000D+00  7 2 -2 23 -13 13 23 21 2 0.21152114D+00 0.11482486D-01 0.63641446D+05 0.63641446D+05 0.63641446D+05 0.11381923D+01  1  2  5  1  7  1        2 -.167082697362D-03 0.100000000000D+01
0.155617918754D-05 0.000000000000D+00 0.635104187342D-06 0.226517287431D-06 0.000000000000D+00  7 2 -2 23 -13 13 23 21 2 0.14174798D+00 0.11482486D-01 0.63641446D+05 0.63641446D+05 0.63641446D+05 0.11381923D+01  1  2  6  1  7  1        2 0.349756174769D-03 0.100000000000D+01
-.411235199540D-07 0.000000000000D+00 -.327015554104D-07 0.226517287431D-06 0.000000000000D+00  7 21 -2 23 -13 13 23 -2 2 0.21152114D+00 0.11482486D-01 0.63641446D+05 0.63641446D+05 0.63641446D+05 0.11381923D+01  1  2  5  3  7  1        2 -.223892953655D-05 0.100000000000D+01
  </mgrwgt>
  </event>
  <event>
  9     66 0.29152272E-05 0.20054030E+03 0.75467711E-02 0.10388746E+00
        2 -1    0    0  501    0 0.00000000E+00 0.00000000E+00 0.24434704E+03 0.24434725E+03 0.32000000E+00 0.0000E+00 0.9000E+01
       -2 -1    0    0    0  502 0.00000000E+00 0.00000000E+00 -.31687983E+03 0.31687999E+03 0.32000000E+00 0.0000E+00 0.9000E+01
       25  2    1    2    0    0 0.54806177E+02 -.88641179E+02 -.13561091E+03 0.34697563E+03 0.30189533E+03 0.0000E+00 0.0000E+00
       23  2    3    3    0    0 -.59622585E+02 0.46052060E+02 -.74147267E+02 0.13881886E+03 0.89984518E+02 0.0000E+00 0.0000E+00
       23  1    1    2    0    0 0.19547372E+02 0.82561420E+02 0.63145061E+02 0.13964612E+03 0.91188000E+02 0.0000E+00 0.9000E+01
      -11  1    4    4    0    0 -.56809124E+02 0.35654266E+02 -.94446386E+02 0.11583878E+03 0.51099893E-03 0.0000E+00 0.9000E+01
       11  1    4    4    0    0 -.28134602E+01 0.10397794E+02 0.20299120E+02 0.22980077E+02 0.51099893E-03 0.0000E+00 0.9000E+01
       23  1    3    3    0    0 0.11442876E+03 -.13469324E+03 -.61463641E+02 0.20815677E+03 0.91188000E+02 0.0000E+00 0.9000E+01
       21  1    1    2  501  502 -.74353550E+02 0.60797587E+01 -.66940740E-01 0.74605501E+02 0.75000000E+00 0.0000E+00 0.9000E+01
#aMCatNLO 2  0  0  2  2 0.74601701D+02 0.00000000D+00  -5  7  0 0.00000000D+00 0.00000000D+00 0.00000000D+00 0.00000000D+00 0.00000000D+00
  <mgrwgt>
 0.1047781758D-03    1    2    0
 0.237688877193769D+03 0.000000000000000D+00 0.000000000000000D+00 0.237688877193769D+03
 0.237688877193769D+03 0.000000000000000D+00 0.000000000000000D+00 -.237688877193769D+03
 0.150573378279752D+03 -.387265945273917D+01 0.844764354187387D+02 0.848871325365861D+02
 0.113522900808416D+03 -.736331625775554D+02 0.370299373359012D+02 -.780665749068320D+02
 0.271910176552213D+02 -.697096658198106D+01 0.107377457673959D+02 0.239887032136844D+02
 0.184090457644149D+03 0.844767886122756D+02 -.132244118522036D+03 -.308092608434385D+02
 0.000000000000000D+00 -.000000000000000D+00 0.000000000000000D+00 0.000000000000000D+00
 0.283898110576170D+03 0.000000000000000D+00 0.000000000000000D+00 0.283898110576170D+03
 0.272730640745981D+03 0.000000000000000D+00 0.000000000000000D+00 -.272730640745981D+03
 0.150730105037624D+03 0.195473721602961D+02 0.825614207241866D+02 0.848871325365861D+02
 0.102921782746781D+03 -.568091243171128D+02 0.356542653887924D+02 -.780665749068320D+02
 0.262961509631268D+02 -.281346011660120D+01 0.103977937935707D+02 0.239887032136844D+02
 0.201247787474308D+03 0.114428761895239D+03 -.134693238570865D+03 -.308092608434385D+02
 0.754329251003107D+02 -.743535496218209D+02 0.607975866431579D+01 0.111674698301886D+02
0.119896276602D-05 0.000000000000D+00 0.000000000000D+00 0.939269223706D-08 0.119917014979D-10  7 2 -2 23 -11 11 23 21 2 0.37591629D-01 0.48750444D-01 0.56614003D+05 0.56614003D+05 0.56614003D+05 0.11425797D+01  1  2  1  2  7  2       -2 0.104778175839D-03 0.100000000000D+01
  </mgrwgt>
  </event>
  <event>
  9     66 -.29152272E-05 0.34757342E+03 0.75467711E-02 0.98823110E-01
        2 -1    0    0  501    0 0.00000000E+00 0.00000000E+00 0.19204479E+04 0.19204479E+04 0.32000000E+00 0.0000E+00 0.9000E+01
       -2 -1    0    0    0  502 0.00000000E+00 0.00000000E+00 -.24764546E+03 0.24764566E+03 0.32000000E+00 0.0000E+00 0.9000E+01
       25  2    1    2    0    0 -.29661163E+03 -.67108782E+02 -.22518801E+02 0.42778651E+03 0.30002026E+03 0.0000E+00 0.0000E+00
       23  2    3    3    0    0 -.19079881E+03 -.95655502E+02 -.11505409E+03 0.25781799E+03 0.87627113E+02 0.0000E+00 0.0000E+00
       23  1    1    2    0    0 0.30223406E+03 0.64151239E+02 0.17013124E+04 0.17315426E+04 0.91188000E+02 0.0000E+00 0.9000E+01
      -11  1    4    4    0    0 -.43824733E+02 -.68407798E+02 -.40994391E+02 0.90998759E+02 0.51099893E-03 0.0000E+00 0.9000E+01
       11  1    4    4    0    0 -.14697407E+03 -.27247704E+02 -.74059697E+02 0.16681923E+03 0.51099893E-03 0.0000E+00 0.9000E+01
       23  1    3    3    0    0 -.10581282E+03 0.28546720E+02 0.92535287E+02 0.16996852E+03 0.91188000E+02 0.0000E+00 0.9000E+01
       21  1    1    2  501  502 -.56224338E+01 0.29575432E+01 -.59911556E+01 0.87644320E+01 0.75000000E+00 0.0000E+00 0.9000E+01
#aMCatNLO 2  0  0  2  1 0.63528595D+01 0.00000000D+00  -5  7  0 0.00000000D+00 0.00000000D+00 0.00000000D+00 0.00000000D+00 0.00000000D+00
  <mgrwgt>
 -.5022567620D-03    5    2    0
 0.679027628119407D+03 0.000000000000000D+00 0.000000000000000D+00 0.679027628119407D+03
 0.679027628119407D+03 0.000000000000000D+00 0.000000000000000D+00 -.679027628119407D+03
 0.648948990684408D+03 0.299545100767178D+03 0.655657007447836D+02 0.564617935119439D+03
 0.195398141571772D+03 -.446336174621639D+02 -.679823037730206D+02 -.177670144637912D+03
 0.357345051569056D+03 -.148452352323739D+03 -.264700924438248D+02 -.323970244276315D+03
 0.156363072413577D+03 -.106459130981275D+03 0.288866954720618D+02 -.629775462052122D+02
 0.000000000000000D+00 -.000000000000000D+00 0.000000000000000D+00 -.000000000000000D+00
 0.679519114779126D+03 0.000000000000000D+00 0.000000000000000D+00 0.679519114779126D+03
 0.699879095139302D+03 0.000000000000000D+00 0.000000000000000D+00 -.699879095139302D+03
 0.650053438982644D+03 0.302234061754205D+03 0.641512388514752D+02 0.564617935119439D+03
 0.195363543905722D+03 -.438247329647400D+02 -.684077975987824D+02 -.177670144637912D+03
 0.356792005367605D+03 -.146974074345472D+03 -.272477042716142D+02 -.323970244276315D+03
 0.155861126952214D+03 -.105812820649496D+03 0.285467197937370D+02 -.629775462052122D+02
 0.213280947102429D+02 -.562243379449693D+01 0.295754322518448D+01 -.203599803601761D+02
-.441456348794D-03 0.000000000000D+00 0.000000000000D+00 0.378664119445D-06 0.000000000000D+00  7 2 -2 23 -11 11 23 21 2 0.29523698D+00 0.38112108D-01 0.12312631D+06 0.12312631D+06 0.12312631D+06 0.11143823D+01  1  2 13  2  7  2       -2 -.351725577962D-02 0.100000000000D+01
-.231200131056D-02 0.000000000000D+00 0.000000000000D+00 0.378664119445D-06 0.000000000000D+00  7 2 -2 23 -11 11 23 21 2 0.29523698D+00 0.36963869D-01 0.12080728D+06 0.12080728D+06 0.12080728D+06 0.11150470D+01  1  2  8  2  7  2       -2 -.195260048859D-01 0.100000000000D+01
-.128182003542D-02 0.000000000000D+00 0.000000000000D+00 0.378664119445D-06 0.000000000000D+00  7 2 -2 23 -11 11 23 21 2 0.29523698D+00 0.38114131D-01 0.12080728D+06 0.12080728D+06 0.12080728D+06 0.11150470D+01  1  2  9  2  7  2       -2 -.102331211258D-01 0.100000000000D+01
0.128121841489D-02 0.000000000000D+00 0.000000000000D+00 0.378664119445D-06 0.000000000000D+00  7 2 -2 23 -11 11 23 21 2 0.29523698D+00 0.36963869D-01 0.12080728D+06 0.12080728D+06 0.12080728D+06 0.11150470D+01  1  2 10  2  7  2       -2 0.108205289135D-01 0.100000000000D+01
0.275841915643D-02 0.000000000000D+00 0.000000000000D+00 0.378664119445D-06 0.621726658337D-07  7 2 -2 23 -11 11 23 21 2 0.29545067D+00 0.38098950D-01 0.12312631D+06 0.12312631D+06 0.12312631D+06 0.11143823D+01  1  2  1  2  7  2       -2 0.219535961159D-01 0.100000000000D+01
  </mgrwgt>
  </event>
  <event>
  8     66 0.29152272E-05 0.30787679E+03 0.75467711E-02 0.92621688E-01
        2 -1    0    0  501    0 0.00000000E+00 0.00000000E+00 0.12693792E+04 0.12693792E+04 0.32000000E+00 0.0000E+00 0.9000E+01
       -2 -1    0    0    0  501 0.00000000E+00 0.00000000E+00 -.86919225E+02 0.86919814E+02 0.32000000E+00 0.0000E+00 0.9000E+01
       25  2    1    2    0    0 -.53567996E+02 -.22397908E+03 0.47853785E+03 0.61007002E+03 0.30025123E+03 0.0000E+00 0.0000E+00
       23  2    3    3    0    0 -.13644765E+03 -.11780247E+03 0.33346221E+03 0.39211429E+03 0.10030547E+03 0.0000E+00 0.0000E+00
       23  1    1    2    0    0 0.53567996E+02 0.22397908E+03 0.70392210E+03 0.74622901E+03 0.91188000E+02 0.0000E+00 0.9000E+01
      -13  1    4    4    0    0 -.14385695E+03 -.75517678E+02 0.24811233E+03 0.29657626E+03 0.10565837E+00 0.0000E+00 0.9000E+01
       13  1    4    4    0    0 0.74092943E+01 -.42284796E+02 0.85349879E+02 0.95538027E+02 0.10565837E+00 0.0000E+00 0.9000E+01
       23  1    3    3    0    0 0.82879655E+02 -.10617660E+03 0.14507564E+03 0.21795573E+03 0.91188000E+02 0.0000E+00 0.9000E+01
#aMCatNLO 1  0  0  1  1 0.44967008D+03 0.00000000D+00  -5  7  0 0.00000000D+00 0.00000000D+00 0.00000000D+00 0.00000000D+00 0.00000000D+00
  <mgrwgt>
 0.4625284856D-03    5    2    0
 0.332165441975052D+03 0.000000000000000D+00 0.000000000000000D+00 0.332165441975052D+03
 0.332165441975052D+03 0.000000000000000D+00 0.000000000000000D+00 -.332165441975052D+03
 0.270572979429190D+03 0.535679963474298D+02 0.223979075244199D+03 0.108895957102474D+03
 0.163869080783649D+03 -.143857109748639D+03 -.755177186187113D+02 -.213373331574360D+02
 0.431339515788615D+02 0.740943824871952D+01 -.422847408086296D+02 0.419984504392667D+01
 0.186754872158404D+03 0.828796751524895D+02 -.106176615816858D+03 -.917584689889644D+02
 0.000000000000000D+00 0.000000000000000D+00 0.000000000000000D+00 0.000000000000000D+00
 0.736946860826478D+03 0.000000000000000D+00 0.000000000000000D+00 0.736946860826478D+03
 0.551623650819342D+03 0.000000000000000D+00 0.000000000000000D+00 -.551623650819342D+03
 0.185218616278122D+03 -.329474373994130D+02 0.114222683244310D+03 0.108895957102474D+03
 0.298302453342047D+03 -.231583542436101D+03 -.186810424645841D+03 -.213373331574360D+02
 0.714593598928778D+02 -.143419282526299D+02 -.698792566639290D+02 0.419984504392667D+01
 0.247228210216403D+03 0.503793359007091D+00 -.210681432840814D+03 -.917584689889644D+02
 0.486361871916370D+03 0.278369114729137D+03 0.353148430906274D+03 0.185323210007136D+03
0.537446132358D-05 0.000000000000D+00 0.000000000000D+00 0.102354280234D-07 0.000000000000D+00  7 2 -2 23 -13 13 23 21 0 0.19528915D+00 0.13372237D-01 0.94788116D+05 0.94788116D+05 0.94788116D+05 0.11236347D+01  1  2  2  1  7  1        2 0.458396248768D-03 0.100000000000D+01
-.296487984332D-06 0.000000000000D+00 -.206393466107D-07 0.102354280234D-07 0.000000000000D+00  7 2 -2 23 -13 13 23 21 2 0.19528915D+00 0.13372237D-01 0.94788116D+05 0.94788116D+05 0.94788116D+05 0.11236347D+01  1  2  3  1  7  1        2 -.319273935721D-04 0.100000000000D+01
0.345223512790D-06 0.000000000000D+00 0.000000000000D+00 0.102354280234D-07 0.000000000000D+00  7 2 -2 23 -13 13 23 21 2 0.19528915D+00 0.13372237D-01 0.94788116D+05 0.94788116D+05 0.94788116D+05 0.11236347D+01  1  2 15  1  7  1        2 0.371754929226D-04 0.100000000000D+01
-.170258008242D-06 0.000000000000D+00 -.146728062040D-05 0.102354280234D-07 0.000000000000D+00  7 2 -2 23 -13 13 23 21 2 0.51898470D+00 0.13372237D-01 0.94788116D+05 0.94788116D+05 0.94788116D+05 0.11236347D+01  1  2  5  1  7  1        2 -.113611736423D-05 0.100000000000D+01
0.682434405041D-07 0.000000000000D+00 -.159510184031D-06 0.102354280234D-07 0.000000000000D+00  7 21 -2 23 -13 13 23 -2 2 0.51898470D+00 0.13372237D-01 0.94788116D+05 0.94788116D+05 0.94788116D+05 0.11236347D+01  1  2  5  3  7  1        2 0.202548557635D-07 0.100000000000D+01
  </mgrwgt>
  </event>
  <event>
  9     66 0.29152272E-05 0.21446247E+03 0.75467711E-02 0.10028714E+00
        2 -1    0    0  501    0 0.00000000E+00 0.00000000E+00 0.55707552E+03 0.55707561E+03 0.32000000E+00 0.0000E+00 0.9000E+01
       -2 -1    0    0    0  502 0.00000000E+00 0.00000000E+00 -.41221502E+03 0.41221514E+03 0.32000000E+00 0.0000E+00 0.9000E+01
       25  2    1    2    0    0 -.35565560E+02 -.62532759E+02 0.37983017E+03 0.48943669E+03 0.30017005E+03 0.0000E+00 0.0000E+00
       23  2    3    3    0    0 0.53183598E+02 -.23921511E+00 0.31430188E+03 0.33334022E+03 0.97475544E+02 0.0000E+00 0.0000E+00
       23  1    1    2    0    0 0.18143066E+03 0.94893097E+02 -.24254324E+03 0.33024878E+03 0.91188000E+02 0.0000E+00 0.9000E+01
      -13  1    4    4    0    0 -.31679544E+00 -.41733923E+02 0.14832917E+03 0.15408885E+03 0.10565837E+00 0.0000E+00 0.9000E+01
       13  1    4    4    0    0 0.53500393E+02 0.41494708E+02 0.16597271E+03 0.17925137E+03 0.10565837E+00 0.0000E+00 0.9000E+01
       23  1    3    3    0    0 -.88749157E+02 -.62293543E+02 0.65528297E+02 0.15609647E+03 0.91188000E+02 0.0000E+00 0.9000E+01
       21  1    1    2  501  502 -.14586510E+03 -.32360339E+02 0.75735655E+01 0.14960528E+03 0.75000000E+00 0.0000E+00 0.9000E+01
#aMCatNLO 2  0  0  2  1 0.14941157D+03 0.00000000D+00  -5  7  0 0.00000000D+00 0.00000000D+00 0.00000000D+00 0.00000000D+00 0.00000000D+00
  <mgrwgt>
 0.8588548283D-04    2    2    0
 0.397087130530413D+03 0.000000000000000D+00 0.000000000000000D+00 0.397087130530413D+03
 0.397087130530413D+03 0.000000000000000D+00 0.000000000000000D+00 -.397087130530413D+03
 0.345595404544471D+03 0.115722672516172D+03 0.803157057118081D+02 -.302123456189660D+03
 0.135156049891087D+03 -.245554776381192D+02 -.471113806833298D+02 0.124276724088770D+03
 0.144801027201014D+03 0.263331442395148D+02 0.354677025354486D+02 0.137898314238379D+03
 0.168621779424254D+03 -.117500339117567D+03 -.686720275639268D+02 0.399484178625113D+02
 0.000000000000000D+00 -.000000000000000D+00 -.000000000000000D+00 -.000000000000000D+00
 0.470416607500222D+03 0.000000000000000D+00 0.000000000000000D+00 0.470416607500222D+03
 0.488150501495337D+03 0.000000000000000D+00 0.000000000000000D+00 -.488150501495337D+03
 0.376185615841175D+03 0.181430657605187D+03 0.948930973399449D+02 -.302123456189660D+03
 0.131097416032027D+03 -.316853630761408D+00 -.417340142307786D+02 0.124276724088770D+03
 0.153623117736731D+03 0.535004549777420D+02 0.414948014881545D+02 0.137898314238379D+03
 0.147200634904494D+03 -.887491612597699D+02 -.622935458796149D+02 0.399484178625113D+02
 0.150460324481132D+03 -.145865097692398D+03 -.323603387177060D+02 -.177338939951151D+02
-.131974149649D-05 0.000000000000D+00 0.000000000000D+00 0.406118004602D-07 0.000000000000D+00  7 2 -2 23 -13 13 23 21 2 0.72344100D-01 0.67236383D-01 0.97551689D+05 0.97551689D+05 0.97551689D+05 0.11226065D+01  1  2 13  2  7  2       -2 -.282869906685D-04 0.100000000000D+01
0.569565705736D-05 0.000000000000D+00 0.000000000000D+00 0.406118004602D-07 0.124890053031D-10  7 2 -2 23 -13 13 23 21 2 0.85703775D-01 0.63417588D-01 0.97551689D+05 0.97551689D+05 0.97551689D+05 0.11226065D+01  1  2  1  2  7  2       -2 0.114172473497D-03 0.100000000000D+01
  </mgrwgt>
  </event>
  <event>
  8     66 0.29152272E-05 0.87170121E+03 0.75467711E-02 0.86642984E-01
        2 -1    0    0  501    0 0.00000000E+00 0.00000000E+00 0.11168170E+04 0.11168171E+04 0.32000000E+00 0.0000E+00 0.9000E+01
       -2 -1    0    0    0  501 0.00000000E+00 0.00000000E+00 -.13043463E+04 0.13043463E+04 0.32000000E+00 0.0000E+00 0.9000E+01
       25  2    1    2    0    0 -.55662245E+03 -.64096480E+03 -.92648763E+03 0.12919871E+04 0.30031148E+03 0.0000E+00 0.0000E+00
       23  2    3    3    0    0 -.19508254E+03 -.38215393E+03 -.35402808E+03 0.56142614E+03 0.75924995E+02 0.0000E+00 0.0000E+00
       23  1    1    2    0    0 0.55662245E+03 0.64096480E+03 0.73895836E+03 0.11291763E+04 0.91188000E+02 0.0000E+00 0.9000E+01
      -11  1    4    4    0    0 -.91074271E+02 -.25885083E+03 -.22059860E+03 0.35208240E+03 0.51099893E-03 0.0000E+00 0.9000E+01
       11  1    4    4    0    0 -.10400827E+03 -.12330310E+03 -.13342948E+03 0.20934374E+03 0.51099893E-03 0.0000E+00 0.9000E+01
       23  1    3    3    0    0 -.36153991E+03 -.25881087E+03 -.57245955E+03 0.73056099E+03 0.91188000E+02 0.0000E+00 0.9000E+01
#aMCatNLO 1  0  0  1  2 0.37585574D+03 0.00000000D+00  -5  7  0 0.00000000D+00 0.00000000D+00 0.00000000D+00 0.00000000D+00 0.00000000D+00
  <mgrwgt>
 0.6463005501D-02    4    2    0
 0.120694502284687D+04 0.000000000000000D+00 0.000000000000000D+00 0.120694502284687D+04
 0.120694502284687D+04 0.000000000000000D+00 0.000000000000000D+00 -.120694502284687D+04
 0.118998655889500D+04 0.556622451120004D+03 0.640964800520469D+03 0.828907914312370D+03
 0.336005505247344D+03 -.910742706863608D+02 -.258850828298039D+03 -.193910869898749D+03
 0.199608704606070D+03 -.104008269823189D+03 -.123303099717358D+03 -.117568109464222D+03
 0.688289276945328D+03 -.361539910610454D+03 -.258810872505072D+03 -.517428934949400D+03
 0.000000000000000D+00 0.000000000000000D+00 -.000000000000000D+00 -.000000000000000D+00
 0.129394132484716D+04 0.000000000000000D+00 0.000000000000000D+00 0.129394132484716D+04
 0.170893201446305D+04 0.000000000000000D+00 0.000000000000000D+00 -.170893201446305D+04
 0.115757135759946D+04 0.386189702145007D+03 0.703864603555338D+03 0.828907914312370D+03
 0.339403137768502D+03 -.140108950896746D+03 -.240754120091076D+03 -.193910869898749D+03
 0.210559573354051D+03 -.133786494532326D+03 -.112313166854117D+03 -.117568109464222D+03
 0.735442126794418D+03 -.464902837350825D+03 -.220663815837983D+03 -.517428934949400D+03
 0.559897143793783D+03 0.352608580634890D+03 -.130133500772161D+03 -.414990689615884D+03
0.226215209106D-01 0.000000000000D+00 0.000000000000D+00 0.551550314040D-07 0.000000000000D+00  7 2 -2 23 -11 11 23 21 0 0.17181801D+00 0.20066867D+00 0.75986299D+06 0.75986299D+06 0.75986299D+06 0.10558965D+01  1  2  2  1  7  1        2 0.716762837120D-02 0.100000000000D+01
-.109495491036D-02 0.000000000000D+00 -.868725966798D-04 0.551550314040D-07 0.000000000000D+00  7 2 -2 23 -11 11 23 21 2 0.17181801D+00 0.20066867D+00 0.75986299D+06 0.75986299D+06 0.75986299D+06 0.10558965D+01  1  2  3  1  7  1        2 -.386805470789D-03 0.100000000000D+01
0.145389305438D-02 0.000000000000D+00 0.000000000000D+00 0.551550314040D-07 0.000000000000D+00  7 2 -2 23 -11 11 23 21 2 0.17181801D+00 0.20066867D+00 0.75986299D+06 0.75986299D+06 0.75986299D+06 0.10558965D+01  1  2 15  1  7  1        2 0.513604516551D-03 0.100000000000D+01
-.235355903119D-02 0.000000000000D+00 0.000000000000D+00 0.551550314040D-07 0.000000000000D+00  7 2 -2 23 -11 11 23 21 2 0.17181801D+00 0.20066867D+00 0.75986299D+06 0.75986299D+06 0.75986299D+06 0.10558965D+01  1  2  4  1  7  1        2 -.831421915624D-03 0.100000000000D+01
  </mgrwgt>
  </event>
  <event>
  8     66 0.29152272E-05 0.30093593E+03 0.75467711E-02 0.98550662E-01
        2 -1    0    0  501    0 0.00000000E+00 0.00000000E+00 0.27028297E+03 0.27028315E+03 0.32000000E+00 0.0000E+00 0.9000E+01
       -2 -1    0    0    0  501 0.00000000E+00 0.00000000E+00 -.40173272E+03 0.40173285E+03 0.32000000E+00 0.0000E+00 0.9000E+01
       25  2    1    2    0    0 0.16704803E+03 -.17892605E+03 -.13728970E+03 0.41073276E+03 0.29988892E+03 0.0000E+00 0.0000E+00
       23  2    3    3    0    0 0.11928900E+03 -.19531265E+03 -.17449266E+03 0.30005866E+03 0.84915334E+02 0.0000E+00 0.0000E+00
       23  1    1    2    0    0 -.16704803E+03 0.17892605E+03 0.58399453E+01 0.26128324E+03 0.91188000E+02 0.0000E+00 0.9000E+01
      -13  1    4    4    0    0 0.24878732E+02 -.96905723E+02 -.37738390E+02 0.10692926E+03 0.10565837E+00 0.0000E+00 0.9000E+01
       13  1    4    4    0    0 0.94410268E+02 -.98406931E+02 -.13675427E+03 0.19312940E+03 0.10565837E+00 0.0000E+00 0.9000E+01
       23  1    3    3    0    0 0.47759034E+02 0.16386607E+02 0.37202954E+02 0.11067410E+03 0.91188000E+02 0.0000E+00 0.9000E+01
#aMCatNLO 1  0  0  1  2 0.11119415D+03 0.00000000D+00  -5  7  0 0.00000000D+00 0.00000000D+00 0.00000000D+00 0.00000000D+00 0.00000000D+00
  <mgrwgt>
 0.4162245475D-03    4    2    0
 0.329517250431819D+03 0.000000000000000D+00 0.000000000000000D+00 0.329517250431819D+03
 0.329517250431819D+03 0.000000000000000D+00 0.000000000000000D+00 -.329517250431819D+03
 0.267594761150203D+03 -.167048034086144D+03 0.178926047182398D+03 0.580700335687059D+02
 0.101508199238014D+03 0.248786247904781D+02 -.969057198170212D+02 -.171537170264645D+02
 0.169656974041216D+03 0.944103750375676D+02 -.984069341316184D+02 -.100926930206477D+03
 0.120274566434204D+03 0.477590342580987D+02 0.163866067662415D+02 0.600106136642352D+02
 0.000000000000000D+00 0.000000000000000D+00 -.000000000000000D+00 -.000000000000000D+00
 0.350772869941676D+03 0.000000000000000D+00 0.000000000000000D+00 0.350772869941676D+03
 0.520400730110479D+03 0.000000000000000D+00 0.000000000000000D+00 -.520400730110479D+03
 0.310846968583889D+03 -.188221584178489D+03 0.222510882845003D+03 0.580700335687059D+02
 0.864020458587828D+02 0.180002707871270D+02 -.827469260598198D+02 -.171537170264645D+02
 0.150159876615580D+03 0.827036502982053D+02 -.743091483712164D+02 -.100926930206477D+03
 0.120940278235476D+03 0.389294939014953D+02 0.345618331095100D+02 0.600106136642352D+02
 0.202824430758428D+03 0.485881691916615D+02 -.100016641523477D+03 -.169627860168803D+03
0.121894330783D-04 0.000000000000D+00 0.000000000000D+00 0.142699916463D-07 0.000000000000D+00  7 2 -2 23 -13 13 23 21 0 0.41582019D-01 0.61805059D-01 0.90562431D+05 0.90562431D+05 0.90562431D+05 0.11252722D+01  1  2  2  1  7  1        2 0.453414160423D-03 0.100000000000D+01
-.670412640002D-06 0.000000000000D+00 -.468106325721D-07 0.142699916463D-07 0.000000000000D+00  7 2 -2 23 -13 13 23 21 2 0.41582019D-01 0.61805059D-01 0.90562431D+05 0.90562431D+05 0.90562431D+05 0.11252722D+01  1  2  3  1  7  1        2 -.315768583100D-04 0.100000000000D+01
0.791304274821D-06 0.000000000000D+00 0.000000000000D+00 0.142699916463D-07 0.000000000000D+00  7 2 -2 23 -13 13 23 21 2 0.41582019D-01 0.61805059D-01 0.90562431D+05 0.90562431D+05 0.90562431D+05 0.11252722D+01  1  2 15  1  7  1        2 0.372709305809D-04 0.100000000000D+01
-.910469443773D-06 0.000000000000D+00 0.000000000000D+00 0.142699916463D-07 0.000000000000D+00  7 2 -2 23 -13 13 23 21 2 0.41582019D-01 0.61805059D-01 0.90562431D+05 0.90562431D+05 0.90562431D+05 0.11252722D+01  1  2  4  1  7  1        2 -.428836852203D-04 0.100000000000D+01
  </mgrwgt>
  </event>
  <event>
  8     66 0.29152272E-05 0.35784406E+03 0.75467711E-02 0.90379185E-01
        2 -1    0    0  501    0 0.00000000E+00 0.00000000E+00 0.15838803E+04 0.15838804E+04 0.32000000E+00 0.0000E+00 0.9000E+01
       -2 -1    0    0    0  501 0.00000000E+00 0.00000000E+00 -.85969670E+02 0.85970265E+02 0.32000000E+00 0.0000E+00 0.9000E+01
       25  2    1    2    0    0 0.67307023E+02 -.28397125E+03 0.70454121E+03 0.81960346E+03 0.30033583E+03 0.0000E+00 0.0000E+00
       23  2    3    3    0    0 0.10323721E+02 -.29288103E+03 0.47124573E+03 0.56256550E+03 0.92312114E+02 0.0000E+00 0.0000E+00
       23  1    1    2    0    0 -.67307023E+02 0.28397125E+03 0.79336945E+03 0.85024717E+03 0.91188000E+02 0.0000E+00 0.9000E+01
      -13  1    4    4    0    0 0.36480552E+02 -.24291791E+03 0.33760853E+03 0.41751583E+03 0.10565837E+00 0.0000E+00 0.9000E+01
       13  1    4    4    0    0 -.26156832E+02 -.49963125E+02 0.13363720E+03 0.14504967E+03 0.10565837E+00 0.0000E+00 0.9000E+01
       23  1    3    3    0    0 0.56983303E+02 0.89097844E+01 0.23329548E+03 0.25703796E+03 0.91188000E+02 0.0000E+00 0.9000E+01
#aMCatNLO 1  0  0  1  1 0.57521708D+03 0.00000000D+00  -5  7  0 0.00000000D+00 0.00000000D+00 0.00000000D+00 0.00000000D+00 0.00000000D+00
  <mgrwgt>
 0.4456864346D-03    5    2    0
 0.369007036895888D+03 0.000000000000000D+00 0.000000000000000D+00 0.369007036895888D+03
 0.369007036895888D+03 0.000000000000000D+00 0.000000000000000D+00 -.369007036895888D+03
 0.313529530065736D+03 -.673070233659214D+02 0.283971249509989D+03 0.693945886694045D+02
 0.259455562870227D+03 0.364806342403013D+02 -.242918161086311D+03 -.835291532590664D+02
 0.569562261556776D+02 -.261569135497647D+02 -.499628727658474D+02 0.797113018527361D+01
 0.108072754700136D+03 0.569833026753848D+02 0.890978434216926D+01 0.616343440438835D+01
 0.000000000000000D+00 -.000000000000000D+00 -.000000000000000D+00 0.000000000000000D+00
 0.108112074791532D+04 0.000000000000000D+00 0.000000000000000D+00 0.108112074791532D+04
 0.602732786114089D+03 0.000000000000000D+00 0.000000000000000D+00 -.602732786114089D+03
 0.601112552705276D+03 0.418452146269176D+01 0.590074512684106D+03 0.693945886694045D+02
 0.151049867678755D+03 0.685671388340650D+02 -.105534309841410D+03 -.835291532590664D+02
 0.296550083030670D+02 -.193870840529526D+02 -.209766911820751D+02 0.797113018527361D+01
 0.153885229382297D+03 0.774588321912632D+02 0.965792621112360D+02 0.616343440438835D+01
 0.748150875960011D+03 -.130823408435067D+03 -.560142773771857D+03 0.478387961801229D+03
0.758378089923D-05 0.000000000000D+00 0.000000000000D+00 0.253934880586D-06 0.000000000000D+00  7 2 -2 23 -13 13 23 21 0 0.24367395D+00 0.13226151D-01 0.12805237D+06 0.12805237D+06 0.12805237D+06 0.11130147D+01  1  2  2  1  7  1        2 0.441315455106D-03 0.100000000000D+01
-.420837777301D-06 0.000000000000D+00 -.291237155084D-07 0.253934880586D-06 0.000000000000D+00  7 2 -2 23 -13 13 23 21 2 0.24367395D+00 0.13226151D-01 0.12805237D+06 0.12805237D+06 0.12805237D+06 0.11130147D+01  1  2  3  1  7  1        2 -.303375085473D-04 0.100000000000D+01
0.483039333908D-06 0.000000000000D+00 0.000000000000D+00 0.253934880586D-06 0.000000000000D+00  7 2 -2 23 -13 13 23 21 2 0.24367395D+00 0.13226151D-01 0.12805237D+06 0.12805237D+06 0.12805237D+06 0.11130147D+01  1  2 15  1  7  1        2 0.348215172485D-04 0.100000000000D+01
-.450201994338D-06 0.000000000000D+00 -.202772420059D-05 0.253934880586D-06 0.000000000000D+00  7 2 -2 23 -13 13 23 21 2 0.76250821D+00 0.13226151D-01 0.12805237D+06 0.12805237D+06 0.12805237D+06 0.11130147D+01  1  2  5  1  7  1        2 -.113089901824D-06 0.100000000000D+01
0.338132796396D-07 0.000000000000D+00 -.265293891753D-06 0.253934880586D-06 0.000000000000D+00  7 21 -2 23 -13 13 23 -2 2 0.76250821D+00 0.13226151D-01 0.12805237D+06 0.12805237D+06 0.12805237D+06 0.11130147D+01  1  2  5  3  7  1        2 0.607359977455D-10 0.100000000000D+01
  </mgrwgt>
  </event>
  <event>
  8     66 0.29152272E-05 0.10998921E+03 0.75467711E-02 0.10603334E+00
        2 -1    0    0  501    0 0.00000000E+00 0.00000000E+00 0.22802477E+04 0.22802477E+04 0.32000000E+00 0.0000E+00 0.9000E+01
       -2 -1    0    0    0  501 0.00000000E+00 0.00000000E+00 -.65910932E+02 0.65911708E+02 0.32000000E+00 0.0000E+00 0.9000E+01
       25  2    1    2    0    0 0.10821130E+03 -.77704242E+02 0.21458197E+04 0.21707813E+04 0.30000321E+03 0.0000E+00 0.0000E+00
       23  2    3    3    0    0 0.78848908E+02 -.18940868E+02 0.33309812E+03 0.35457927E+03 0.90532833E+02 0.0000E+00 0.0000E+00
       23  1    1    2    0    0 -.10821130E+03 0.77704242E+02 0.68517110E+02 0.17537810E+03 0.91188000E+02 0.0000E+00 0.9000E+01
      -11  1    4    4    0    0 0.64813869E+02 0.28427473E+02 0.22156569E+03 0.23259474E+03 0.51099893E-03 0.0000E+00 0.9000E+01
       11  1    4    4    0    0 0.14035039E+02 -.47368341E+02 0.11153243E+03 0.12198453E+03 0.51099893E-03 0.0000E+00 0.9000E+01
       23  1    3    3    0    0 0.29362388E+02 -.58763374E+02 0.18127215E+04 0.18162021E+04 0.91188000E+02 0.0000E+00 0.9000E+01
#aMCatNLO 1  0  0  1  2 0.13051658D+02 0.00000000D+00  -5  7  0 0.00000000D+00 0.00000000D+00 0.00000000D+00 0.00000000D+00 0.00000000D+00
  <mgrwgt>
 0.8040447504D-03    9    2    0
 0.387677943366721D+03 0.000000000000000D+00 0.000000000000000D+00 0.387677943366721D+03
 0.387677943366721D+03 0.000000000000000D+00 0.000000000000000D+00 -.387677943366721D+03
 0.335001052799014D+03 -.108211295914634D+03 0.777042421853862D+02 -.293535040864491D+03
 0.710425926063746D+02 0.648138686563135D+02 0.284274731200582D+02 0.617180411596349D+01
 0.505894004217226D+02 0.140350390177111D+02 -.473683409037947D+02 -.108878553821497D+02
 0.318722840906331D+03 0.293623882406091D+02 -.587633744016498D+02 0.298251092130677D+03
 0.000000000000000D+00 0.000000000000000D+00 -.000000000000000D+00 0.000000000000000D+00
 0.396467898972302D+03 0.000000000000000D+00 0.000000000000000D+00 0.396467898972302D+03
 0.392608225231569D+03 0.000000000000000D+00 0.000000000000000D+00 -.392608225231569D+03
 0.336914648657325D+03 -.113862658855539D+03 0.779018859779242D+02 -.293535040864491D+03
 0.699790290692621D+02 0.636277609870378D+02 0.284689545857799D+02 0.617180411596349D+01
 0.503325893914331D+02 0.131862021890489D+02 -.473386547321902D+02 -.108878553821497D+02
 0.318239461891435D+03 0.240050120921084D+02 -.585760121403486D+02 0.298251092130677D+03
 0.136103951944155D+02 0.130436835873442D+02 -.456173691165223D+00 0.385967374073301D+01
0.618506058431D-05 0.000000000000D+00 0.000000000000D+00 0.798789817233D-06 0.000000000000D+00  7 2 -2 23 -11 11 23 21 0 0.35080740D+00 0.10140205D-01 0.38809700D+05 0.38809700D+05 0.38809700D+05 0.11571012D+01  1  2  2  1  7  1        2 0.237125568111D-03 0.100000000000D+01
-.152152828936D-06 0.000000000000D+00 -.237522612076D-07 0.798789817233D-06 0.000000000000D+00  7 2 -2 23 -11 11 23 21 2 0.35080740D+00 0.10140205D-01 0.38809700D+05 0.38809700D+05 0.38809700D+05 0.11571012D+01  1  2  3  1  7  1        2 -.781010952556D-05 0.100000000000D+01
0.374875568644D-06 0.000000000000D+00 0.000000000000D+00 0.798789817233D-06 0.000000000000D+00  7 2 -2 23 -11 11 23 21 2 0.35080740D+00 0.10140205D-01 0.38809700D+05 0.38809700D+05 0.38809700D+05 0.11571012D+01  1  2 15  1  7  1        2 0.192426211859D-04 0.100000000000D+01
0.744855632906D-05 0.000000000000D+00 0.000000000000D+00 0.798789817233D-06 0.000000000000D+00  7 2 -2 23 -11 11 23 21 2 0.36095241D+00 0.10140205D-01 0.41673252D+05 0.41673252D+05 0.41673252D+05 0.11543198D+01  1  2 12  1  7  1        2 0.349542979216D-03 0.100000000000D+01
-.675752903830D-05 0.000000000000D+00 0.000000000000D+00 0.798789817233D-06 0.000000000000D+00  7 2 -2 23 -11 11 23 21 2 0.35080740D+00 0.10140205D-01 0.38809700D+05 0.38809700D+05 0.38809700D+05 0.11571012D+01  1  2  4  1  7  1        2 -.346868620718D-03 0.100000000000D+01
-.133436762375D-03 0.000000000000D+00 -.204948862522D-04 0.798789817233D-06 0.000000000000D+00  7 2 -2 23 -11 11 23 21 2 0.36066812D+00 0.10140205D-01 0.38809700D+05 0.38809700D+05 0.38809700D+05 0.11571012D+01  1  2  5  1  7  1        2 -.631992629851D-02 0.100000000000D+01
0.133961295920D-03 0.000000000000D+00 0.204870141686D-04 0.798789817233D-06 0.000000000000D+00  7 2 -2 23 -11 11 23 21 2 0.35080740D+00 0.10140205D-01 0.38809700D+05 0.38809700D+05 0.38809700D+05 0.11571012D+01  1  2  6  1  7  1        2 0.687632560392D-02 0.100000000000D+01
0.176347136903D-06 0.000000000000D+00 0.000000000000D+00 0.798789817233D-06 0.000000000000D+00  7 21 -2 23 -11 11 23 -2 2 0.36095241D+00 0.10140205D-01 0.41673252D+05 0.41673252D+05 0.41673252D+05 0.11543198D+01  1  2 12  3  7  1        2 0.128031378564D-05 0.100000000000D+01
-.659899075613D-06 0.000000000000D+00 -.102231546421D-06 0.798789817233D-06 0.000000000000D+00  7 21 -2 23 -11 11 23 -2 2 0.36066812D+00 0.10140205D-01 0.38809700D+05 0.38809700D+05 0.38809700D+05 0.11571012D+01  1  2  5  3  7  1        2 -.486730703966D-05 0.100000000000D+01
  </mgrwgt>
  </event>
  <event>
  8     66 0.29152272E-05 0.25832369E+03 0.75467711E-02 0.99148699E-01
        2 -1    0    0  501    0 0.00000000E+00 0.00000000E+00 0.42411875E+03 0.42411887E+03 0.32000000E+00 0.0000E+00 0.9000E+01
       -2 -1    0    0    0  501 0.00000000E+00 0.00000000E+00 -.18142419E+03 0.18142448E+03 0.32000000E+00 0.0000E+00 0.9000E+01
       25  2    1    2    0    0 -.66991470E+01 0.15920689E+03 0.57247975E+02 0.34458856E+03 0.30012036E+03 0.0000E+00 0.0000E+00
       23  2    3    3    0    0 -.40022232E+02 -.45802588E+02 -.66575300E+01 0.10892252E+03 0.90111806E+02 0.0000E+00 0.0000E+00
       23  1    1    2    0    0 0.66991470E+01 -.15920689E+03 0.18544658E+03 0.26095479E+03 0.91188000E+02 0.0000E+00 0.9000E+01
      -13  1    4    4    0    0 -.47358833E+02 0.11264346E+02 -.14641957E+02 0.50834463E+02 0.10565837E+00 0.0000E+00 0.9000E+01
       13  1    4    4    0    0 0.73366014E+01 -.57066934E+02 0.79844270E+01 0.58088062E+02 0.10565837E+00 0.0000E+00 0.9000E+01
       23  1    3    3    0    0 0.33323085E+02 0.20500948E+03 0.63905505E+02 0.23566604E+03 0.91188000E+02 0.0000E+00 0.9000E+01
#aMCatNLO 1  0  0  1  2 0.14387824D+03 0.00000000D+00  -5  7  0 0.00000000D+00 0.00000000D+00 0.00000000D+00 0.00000000D+00 0.00000000D+00
  <mgrwgt>
 0.3356842773D-03    4    2    0
 0.277390562521120D+03 0.000000000000000D+00 0.000000000000000D+00 0.277390562521120D+03
 0.277390562521120D+03 0.000000000000000D+00 0.000000000000000D+00 -.277390562521120D+03
 0.203706566809599D+03 0.669914701149563D+01 -.159206895135933D+03 0.882575775095157D+02
 0.618910664830969D+02 -.473589079844918D+02 0.112644398203240D+02 -.382197637416280D+02
 0.599102222771666D+02 0.733667631933831D+01 -.570670273631884D+02 -.166961762632610D+02
 0.229273269472376D+03 0.333230846536578D+02 0.205009482678797D+03 -.333416375046267D+02
 0.000000000000000D+00 0.000000000000000D+00 0.000000000000000D+00 -.000000000000000D+00
 0.330773675086745D+03 0.000000000000000D+00 0.000000000000000D+00 0.330773675086745D+03
 0.403636859718695D+03 0.000000000000000D+00 0.000000000000000D+00 -.403636859718695D+03
 0.227454237711186D+03 -.424299558249072D+02 -.183930633037634D+03 0.882575775095157D+02
 0.735965727424533D+02 -.627971994311639D+02 0.349527145898397D+01 -.382197637416280D+02
 0.668455068623045D+02 -.710664781101198D+01 -.643354882063917D+02 -.166961762632610D+02
 0.205238085559046D+03 -.161878004293447D+02 0.180093616615670D+03 -.333416375046267D+02
 0.161276131930450D+03 0.128521603496428D+03 0.646772331693716D+02 -.728631846319498D+02
0.426437578322D-05 0.000000000000D+00 0.000000000000D+00 0.161903554404D-06 0.000000000000D+00  7 2 -2 23 -13 13 23 21 0 0.65249070D-01 0.27911445D-01 0.66731129D+05 0.66731129D+05 0.66731129D+05 0.11364295D+01  1  2  2  1  7  1        2 0.433032253937D-03 0.100000000000D+01
-.235448988810D-06 0.000000000000D+00 -.163763258435D-07 0.161903554404D-06 0.000000000000D+00  7 2 -2 23 -13 13 23 21 2 0.65249070D-01 0.27911445D-01 0.66731129D+05 0.66731129D+05 0.66731129D+05 0.11364295D+01  1  2  3  1  7  1        2 -.308778170591D-04 0.100000000000D+01
0.266227301279D-06 0.000000000000D+00 0.000000000000D+00 0.161903554404D-06 0.000000000000D+00  7 2 -2 23 -13 13 23 21 2 0.65249070D-01 0.27911445D-01 0.66731129D+05 0.66731129D+05 0.66731129D+05 0.11364295D+01  1  2 15  1  7  1        2 0.349142204711D-04 0.100000000000D+01
-.773074395442D-06 0.000000000000D+00 0.000000000000D+00 0.161903554404D-06 0.000000000000D+00  7 2 -2 23 -13 13 23 21 2 0.65249070D-01 0.27911445D-01 0.66731129D+05 0.66731129D+05 0.66731129D+05 0.11364295D+01  1  2  4  1  7  1        2 -.101384380014D-03 0.100000000000D+01
  </mgrwgt>
  </event>
  <event>
  8     66 0.29152272E-05 0.58815957E+03 0.75467711E-02 0.85006812E-01
        2 -1    0    0  501    0 0.00000000E+00 0.00000000E+00 0.23459585E+04 0.23459585E+04 0.32000000E+00 0.0000E+00 0.9000E+01
       -2 -1    0    0    0  501 0.00000000E+00 0.00000000E+00 -.15618061E+03 0.15618094E+03 0.32000000E+00 0.0000E+00 0.9000E+01
       25  2    1    2    0    0 -.52902704E+03 0.18706935E+03 0.10492065E+04 0.12277444E+04 0.30274969E+03 0.0000E+00 0.0000E+00
       23  2    3    3    0    0 -.36642892E+03 0.36591689E+02 0.77997482E+03 0.86735204E+03 0.91267363E+02 0.0000E+00 0.0000E+00
       23  1    1    2    0    0 0.52902704E+03 -.18706935E+03 0.11405714E+04 0.12743951E+04 0.91188000E+02 0.0000E+00 0.9000E+01
      -13  1    4    4    0    0 -.23592786E+03 0.24160379E+02 0.59597409E+03 0.64142872E+03 0.10565837E+00 0.0000E+00 0.9000E+01
       13  1    4    4    0    0 -.13050106E+03 0.12431310E+02 0.18400073E+03 0.22592332E+03 0.10565837E+00 0.0000E+00 0.9000E+01
       23  1    3    3    0    0 -.16259812E+03 0.15047766E+03 0.26923168E+03 0.36039232E+03 0.91188000E+02 0.0000E+00 0.9000E+01
#aMCatNLO 1  0  0  1  2 0.10185236D+04 0.00000000D+00  -5  7  0 0.00000000D+00 0.00000000D+00 0.00000000D+00 0.00000000D+00 0.00000000D+00
  <mgrwgt>
 0.6289215151D-03    3    2    0
 0.605304614282904D+03 0.000000000000000D+00 0.000000000000000D+00 0.605304614282904D+03
 0.605304614282904D+03 0.000000000000000D+00 0.000000000000000D+00 -.605304614282904D+03
 0.570883052929228D+03 0.529027043080821D+03 -.187069347538128D+03 0.522269631380000D+02
 0.247721072530699D+03 -.235927996458089D+03 0.241603950277048D+02 0.715540744831264D+02
 0.134123156696834D+03 -.130500922566360D+03 0.124312948971781D+02 -.283547752386072D+02
 0.257881946409046D+03 -.162598124056372D+03 0.150477657613245D+03 -.954262623825192D+02
 0.000000000000000D+00 0.000000000000000D+00 0.000000000000000D+00 -.000000000000000D+00
 0.104628154863225D+04 0.000000000000000D+00 0.000000000000000D+00 0.104628154863225D+04
 0.180711720951665D+04 0.000000000000000D+00 0.000000000000000D+00 -.180711720951665D+04
 0.628082741183771D+03 0.284852611211685D+03 -.549821800801119D+03 0.522269631380000D+02
 0.417708466471029D+03 -.371445523674029D+03 -.177168282514024D+03 0.715540744831264D+02
 0.227910645196757D+03 -.204230630560397D+03 -.971036480059975D+02 -.283547752386072D+02
 0.308374302581789D+03 -.277918593221195D+03 -.208456983202646D+02 -.954262623825192D+02
 0.127132260271556D+04 0.568742136243936D+03 0.844939429641405D+03 -.760835660884403D+03
0.775399733016D-04 0.000000000000D+00 0.000000000000D+00 0.737367600027D-07 0.000000000000D+00  7 2 -2 23 -13 13 23 21 0 0.36091672D+00 0.24027814D-01 0.34593168D+06 0.34593168D+06 0.34593168D+06 0.10800040D+01  1  2  2  1  7  1        2 0.625402141533D-03 0.100000000000D+01
-.430345202444D-05 0.000000000000D+00 -.297773914222D-06 0.737367600027D-07 0.000000000000D+00  7 2 -2 23 -13 13 23 21 2 0.36091672D+00 0.24027814D-01 0.34593168D+06 0.34593168D+06 0.34593168D+06 0.10800040D+01  1  2  3  1  7  1        2 -.404856762958D-04 0.100000000000D+01
0.467754619408D-05 0.000000000000D+00 0.000000000000D+00 0.737367600027D-07 0.000000000000D+00  7 2 -2 23 -13 13 23 21 2 0.36091672D+00 0.24027814D-01 0.34593168D+06 0.34593168D+06 0.34593168D+06 0.10800040D+01  1  2 15  1  7  1        2 0.440050498987D-04 0.100000000000D+01
  </mgrwgt>
  </event>
  <event>
  8     66 0.29152272E-05 0.42919520E+03 0.75467711E-02 0.90488297E-01
        2 -1    0    0  501    0 0.00000000E+00 0.00000000E+00 0.21723664E+04 0.21723664E+04 0.32000000E+00 0.0000E+00 0.9000E+01
       -2 -1    0    0    0  501 0.00000000E+00 0.00000000E+00 -.87426607E+02 0.87427193E+02 0.32000000E+00 0.0000E+00 0.9000E+01
       25  2    1    2    0    0 -.21333139E+03 -.31323974E+03 0.10851499E+04 0.11867025E+04 0.29509855E+03 0.0000E+00 0.0000E+00
       23  2    3    3    0    0 -.21663299E+03 -.14093417E+03 0.51390469E+03 0.58309963E+03 0.95471757E+02 0.0000E+00 0.0000E+00
       23  1    1    2    0    0 0.21333139E+03 0.31323974E+03 0.99978993E+03 0.10730911E+04 0.91188000E+02 0.0000E+00 0.9000E+01
      -13  1    4    4    0    0 -.17429793E+03 -.15041908E+03 0.40490191E+03 0.46578025E+03 0.10565837E+00 0.0000E+00 0.9000E+01
       13  1    4    4    0    0 -.42335064E+02 0.94849154E+01 0.10900277E+03 0.11731938E+03 0.10565837E+00 0.0000E+00 0.9000E+01
       23  1    3    3    0    0 0.33015978E+01 -.17230557E+03 0.57124517E+03 0.60360285E+03 0.91188000E+02 0.0000E+00 0.9000E+01
#aMCatNLO 1  0  0  2  1 0.48660745D+03 0.00000000D+00  -5  7  0 0.00000000D+00 0.00000000D+00 0.00000000D+00 0.00000000D+00 0.00000000D+00
  <mgrwgt>
 0.7857945628D-03    5    2    0
 0.435801918934561D+03 0.000000000000000D+00 0.000000000000000D+00 0.435801918934561D+03
 0.435801918934561D+03 0.000000000000000D+00 0.000000000000000D+00 -.435801918934561D+03
 0.390616309858680D+03 0.213331394169072D+03 0.313239736757482D+03 0.252276388430647D+02
 0.239066555088092D+03 -.174298089541913D+03 -.150419278017377D+03 -.643974731216863D+02
 0.434293160895625D+02 -.423349027944068D+02 0.948510996297956D+01 0.197337031128039D+01
 0.198491656832787D+03 0.330159816724783D+01 -.172305568703084D+03 0.371964639673412D+02
 0.000000000000000D+00 -.000000000000000D+00 -.000000000000000D+00 -.000000000000000D+00
 0.597642945947109D+03 0.000000000000000D+00 0.000000000000000D+00 0.597642945947109D+03
 0.109995637853580D+04 0.000000000000000D+00 0.000000000000000D+00 -.109995637853580D+04
 0.658670614971305D+03 0.378470897627362D+03 0.530711855501854D+03 0.252276388430647D+02
 0.148071504933582D+03 -.113369295435245D+03 -.701821835037471D+02 -.643974731216863D+02
 0.396628733409335D+02 -.292576380547956D+02 0.267065525054820D+02 0.197337031128039D+01
 0.151833484831548D+03 0.584366795014379D+02 -.996982112641172D+02 0.371964639673412D+02
 0.699360846405538D+03 -.294280643638759D+03 -.387538013239472D+03 -.502313432588689D+03
0.293898990803D-04 0.000000000000D+00 0.000000000000D+00 0.737770531238D-09 0.000000000000D+00  7 2 -2 23 -13 13 23 21 0 0.33421026D+00 0.13450294D-01 0.18420852D+06 0.18420852D+06 0.18420852D+06 0.11005794D+01  1  2  2  2  7  2       -2 0.792507738286D-03 0.100000000000D+01
-.163230890923D-05 0.000000000000D+00 -.112864951006D-06 0.737770531238D-09 0.000000000000D+00  7 2 -2 23 -13 13 23 21 2 0.33421026D+00 0.13450294D-01 0.18420852D+06 0.18420852D+06 0.18420852D+06 0.11005794D+01  1  2  3  2  7  2       -2 -.533151344134D-04 0.100000000000D+01
0.189290450500D-05 0.000000000000D+00 0.000000000000D+00 0.737770531238D-09 0.000000000000D+00  7 2 -2 23 -13 13 23 21 2 0.33421026D+00 0.13450294D-01 0.18420852D+06 0.18420852D+06 0.18420852D+06 0.11005794D+01  1  2 15  2  7  2       -2 0.618268132615D-04 0.100000000000D+01
-.274107654971D-05 0.000000000000D+00 -.103130893135D-04 0.737770531238D-09 0.000000000000D+00  7 2 -2 23 -13 13 23 21 2 0.33421026D+00 0.49602307D-01 0.18420852D+06 0.18420852D+06 0.18420852D+06 0.11005794D+01  1  2  5  2  7  2       -2 -.919027579374D-05 0.100000000000D+01
-.169871138046D-06 0.000000000000D+00 -.158781715773D-05 0.737770531238D-09 0.000000000000D+00  7 2 21 23 -13 13 23 2 2 0.33421026D+00 0.49602307D-01 0.18420852D+06 0.18420852D+06 0.18420852D+06 0.11005794D+01  1  2  5  4  7  2       -2 -.603457853237D-05 0.100000000000D+01
  </mgrwgt>
  </event>
  <event>
  8     66 0.29152272E-05 0.36223116E+03 0.75467711E-02 0.90727692E-01
        2 -1    0    0  501    0 0.00000000E+00 0.00000000E+00 0.89104803E+03 0.89104808E+03 0.32000000E+00 0.0000E+00 0.9000E+01
       -2 -1    0    0    0  501 0.00000000E+00 0.00000000E+00 -.32243770E+03 0.32243786E+03 0.32000000E+00 0.0000E+00 0.9000E+01
       25  2    1    2    0    0 0.33010878E+02 -.29175264E+03 0.74814348E+03 0.85745684E+03 0.29883814E+03 0.0000E+00 0.0000E+00
       23  2    3    3    0    0 -.68763102E+02 -.14523767E+02 0.18605820E+03 0.21599841E+03 0.84251750E+02 0.0000E+00 0.0000E+00
       23  1    1    2    0    0 -.33010878E+02 0.29175264E+03 -.17953316E+03 0.35602911E+03 0.91188000E+02 0.0000E+00 0.9000E+01
      -11  1    4    4    0    0 -.87581600E+02 -.16109813E+02 0.16645339E+03 0.18877710E+03 0.51099893E-03 0.0000E+00 0.9000E+01
       11  1    4    4    0    0 0.18818497E+02 0.15860463E+01 0.19604810E+02 0.27221314E+02 0.51099893E-03 0.0000E+00 0.9000E+01
       23  1    3    3    0    0 0.10177398E+03 -.27722887E+03 0.56208528E+03 0.64145842E+03 0.91188000E+02 0.0000E+00 0.9000E+01
#aMCatNLO 1  0  0  1  1 0.54955927D+03 0.00000000D+00  -5  7  0 0.00000000D+00 0.00000000D+00 0.00000000D+00 0.00000000D+00 0.00000000D+00
  <mgrwgt>
 0.7286241126D-03    5    2    0
 0.536010827706257D+03 0.000000000000000D+00 0.000000000000000D+00 0.536010827706257D+03
 0.536010827706257D+03 0.000000000000000D+00 0.000000000000000D+00 -.536010827706257D+03
 0.498236878073476D+03 -.330108781010689D+02 0.291752635755499D+03 -.392065577148924D+03
 0.125399744290539D+03 -.875815996097633D+02 -.161098132999609D+02 0.882894851801049D+02
 0.204148718440055D+02 0.188184971245619D+02 0.158604630580477D+01 0.775342604890684D+01
 0.427970161204494D+03 0.101773980586270D+03 -.277228868761343D+03 0.296022665919913D+03
 0.000000000000000D+00 0.000000000000000D+00 0.000000000000000D+00 0.000000000000000D+00
 0.970075854491936D+03 0.000000000000000D+00 0.000000000000000D+00 0.970075854491936D+03
 0.807658265044327D+03 0.000000000000000D+00 0.000000000000000D+00 -.807658265044327D+03
 0.473079788558844D+03 -.208130015666936D+03 0.135851811884282D+03 -.392065577148924D+03
 0.179942594806601D+03 -.142631913191252D+03 -.651186729883825D+02 0.882894851801049D+02
 0.151950038430733D+02 0.123983759288967D+02 -.412950367730768D+01 0.775342604890684D+01
 0.536459259598512D+03 -.721034521975554D+02 -.432024257777091D+03 0.296022665919913D+03
 0.573057472729233D+03 0.410467005126846D+03 0.365420622558499D+03 0.162417589447609D+03
0.480686220082D-04 0.000000000000D+00 0.000000000000D+00 0.134048149527D-07 0.000000000000D+00  7 2 -2 23 -11 11 23 21 0 0.13708433D+00 0.49605817D-01 0.13121141D+06 0.13121141D+06 0.13121141D+06 0.11121678D+01  1  2  2  1  7  1        2 0.704706365900D-03 0.100000000000D+01
-.217187167033D-05 0.000000000000D+00 -.184596165270D-06 0.134048149527D-07 0.000000000000D+00  7 2 -2 23 -11 11 23 21 2 0.13708433D+00 0.49605817D-01 0.13121141D+06 0.13121141D+06 0.13121141D+06 0.11121678D+01  1  2  3  1  7  1        2 -.393841336092D-04 0.100000000000D+01
0.289954016606D-05 0.000000000000D+00 0.000000000000D+00 0.134048149527D-07 0.000000000000D+00  7 2 -2 23 -11 11 23 21 2 0.13708433D+00 0.49605817D-01 0.13121141D+06 0.13121141D+06 0.13121141D+06 0.11121678D+01  1  2 15  1  7  1        2 0.525794773537D-04 0.100000000000D+01
0.236110643533D-05 0.000000000000D+00 -.140082054334D-04 0.134048149527D-07 0.000000000000D+00  7 2 -2 23 -11 11 23 21 2 0.31289754D+00 0.49605817D-01 0.13121141D+06 0.13121141D+06 0.13121141D+06 0.11121678D+01  1  2  5  1  7  1        2 0.980953105454D-05 0.100000000000D+01
0.109810100081D-05 0.000000000000D+00 -.125713189885D-05 0.134048149527D-07 0.000000000000D+00  7 21 -2 23 -11 11 23 -2 2 0.31289754D+00 0.49605817D-01 0.13121141D+06 0.13121141D+06 0.13121141D+06 0.11121678D+01  1  2  5  3  7  1        2 0.912871906201D-06 0.100000000000D+01
  </mgrwgt>
  </event>
  <event>
  8     66 0.29152272E-05 0.30511752E+03 0.75467711E-02 0.96427501E-01
        2 -1    0    0  501    0 0.00000000E+00 0.00000000E+00 0.18528611E+04 0.18528611E+04 0.32000000E+00 0.0000E+00 0.9000E+01
       -2 -1    0    0    0  501 0.00000000E+00 0.00000000E+00 -.17939544E+03 0.17939572E+03 0.32000000E+00 0.0000E+00 0.9000E+01
       25  2    1    2    0    0 0.18721661E+03 -.18228356E+03 0.70226799E+02 0.40530649E+03 0.30176845E+03 0.0000E+00 0.0000E+00
       23  2    3    3    0    0 0.90729096E+02 -.15721676E+03 -.65596472E+02 0.21373041E+03 0.91809099E+02 0.0000E+00 0.0000E+00
       23  1    1    2    0    0 -.18721661E+03 0.18228356E+03 0.16032388E+04 0.16269503E+04 0.91188000E+02 0.0000E+00 0.9000E+01
      -11  1    4    4    0    0 0.86054788E+02 -.69716754E+02 -.59920792E+02 0.12592201E+03 0.51099893E-03 0.0000E+00 0.9000E+01
       11  1    4    4    0    0 0.46743082E+01 -.87500008E+02 -.56756802E+01 0.87808393E+02 0.51099893E-03 0.0000E+00 0.9000E+01
       23  1    3    3    0    0 0.96487513E+02 -.25066797E+02 0.13582327E+03 0.19157609E+03 0.91188000E+02 0.0000E+00 0.9000E+01
#aMCatNLO 1  0  0  1  1 0.22639645D+03 0.00000000D+00  -5  7  0 0.00000000D+00 0.00000000D+00 0.00000000D+00 0.00000000D+00 0.00000000D+00
  <mgrwgt>
 0.6711261196D-03    3    2    0
 0.576537198440343D+03 0.000000000000000D+00 0.000000000000000D+00 0.576537198440343D+03
 0.576537198440343D+03 0.000000000000000D+00 0.000000000000000D+00 -.576537198440343D+03
 0.540655322706667D+03 -.187216609756375D+03 0.182283559025093D+03 0.464451904687154D+03
 0.308897032903125D+03 0.860547881500755D+02 -.697167536024451D+02 -.288360060757269D+03
 0.162996648722509D+03 0.467430824599218D+01 -.875000079721037D+02 -.137440194055714D+03
 0.140525392548384D+03 0.964875133603069D+02 -.250667974505437D+02 -.386516498741714D+02
 0.000000000000000D+00 -.000000000000000D+00 0.000000000000000D+00 -.000000000000000D+00
 0.599003434625865D+03 0.000000000000000D+00 0.000000000000000D+00 0.599003434625865D+03
 0.170582124107137D+04 0.000000000000000D+00 0.000000000000000D+00 -.170582124107137D+04
 0.500611381661715D+03 -.129435510947993D+03 0.991331470465767D+02 0.464451904687154D+03
 0.335677221891650D+03 0.121822962191737D+03 -.121189267428229D+03 -.288360060757269D+03
 0.180740462746599D+03 0.237486797961245D+02 -.114949154584641D+03 -.137440194055714D+03
 0.158060681500734D+03 0.113056401403168D+03 -.489104053985112D+02 -.386516498741714D+02
 0.112973492789654D+04 -.129192532443037D+03 0.185915680364805D+03 -.110681780644551D+04
0.514836389932D-04 0.000000000000D+00 0.000000000000D+00 0.178440648563D-06 0.000000000000D+00  7 2 -2 23 -11 11 23 21 0 0.28505557D+00 0.27599322D-01 0.93096704D+05 0.93096704D+05 0.93096704D+05 0.11242803D+01  1  2  2  1  7  1        2 0.645176568737D-03 0.100000000000D+01
-.145201446599D-05 0.000000000000D+00 -.197710729687D-06 0.178440648563D-06 0.000000000000D+00  7 2 -2 23 -11 11 23 21 2 0.28505557D+00 0.27599322D-01 0.93096704D+05 0.93096704D+05 0.93096704D+05 0.11242803D+01  1  2  3  1  7  1        2 -.230000875338D-04 0.100000000000D+01
0.309023098030D-05 0.000000000000D+00 0.000000000000D+00 0.178440648563D-06 0.000000000000D+00  7 2 -2 23 -11 11 23 21 2 0.28505557D+00 0.27599322D-01 0.93096704D+05 0.93096704D+05 0.93096704D+05 0.11242803D+01  1  2 15  1  7  1        2 0.489496383896D-04 0.100000000000D+01
  </mgrwgt>
  </event>
  <event>
  8     66 0.29152272E-05 0.22374849E+03 0.75467711E-02 0.10271246E+00
        2 -1    0    0  501    0 0.00000000E+00 0.00000000E+00 0.90326009E+03 0.90326015E+03 0.32000000E+00 0.0000E+00 0.9000E+01
       -2 -1    0    0    0  501 0.00000000E+00 0.00000000E+00 -.92039925E+02 0.92040481E+02 0.32000000E+00 0.0000E+00 0.9000E+01
       25  2    1    2    0    0 -.17521185E+03 -.14956866E+02 0.66030566E+03 0.74627585E+03 0.30000198E+03 0.0000E+00 0.0000E+00
       23  2    3    3    0    0 -.17908936E+03 0.53488459E+02 0.27482968E+03 0.34427240E+03 0.89767004E+02 0.0000E+00 0.0000E+00
       23  1    1    2    0    0 0.17521185E+03 0.14956866E+02 0.15091451E+03 0.24902478E+03 0.91188000E+02 0.0000E+00 0.9000E+01
      -11  1    4    4    0    0 -.25576722E+02 0.45035831E+02 0.90189532E+02 0.10400263E+03 0.51099893E-03 0.0000E+00 0.9000E+01
       11  1    4    4    0    0 -.15351264E+03 0.84526277E+01 0.18464015E+03 0.24026977E+03 0.51099893E-03 0.0000E+00 0.9000E+01
       23  1    3    3    0    0 0.38775162E+01 -.68445324E+02 0.38547597E+03 0.40200345E+03 0.91188000E+02 0.0000E+00 0.9000E+01
#aMCatNLO 1  0  0  1  1 0.11868476D+01 0.00000000D+00  -5  7  0 0.00000000D+00 0.00000000D+00 0.00000000D+00 0.00000000D+00 0.00000000D+00
  <mgrwgt>
 0.4273880352D-03   10    2    0
 0.288333653962154D+03 0.000000000000000D+00 0.000000000000000D+00 0.288333653962154D+03
 0.288333653962154D+03 0.000000000000000D+00 0.000000000000000D+00 -.288333653962154D+03
 0.217507777291764D+03 0.175211848353863D+03 0.149568657726238D+02 -.898414280890836D+02
 0.526305419925086D+02 -.255767215951674D+02 0.450358308760098D+02 0.935837593687885D+01
 0.154953889280549D+03 -.153512642935418D+03 0.845262767244175D+01 -.193165563075503D+02
 0.151575099359487D+03 0.387751617672190D+01 -.684453243210753D+02 0.997996084597550D+02
 0.000000000000000D+00 -.000000000000000D+00 0.000000000000000D+00 0.000000000000000D+00
 0.289257209947339D+03 0.000000000000000D+00 0.000000000000000D+00 0.289257209947339D+03
 0.288715816797809D+03 0.000000000000000D+00 0.000000000000000D+00 -.288715816797809D+03
 0.217688435090995D+03 0.175467052656450D+03 0.145888539419304D+02 -.898414280890836D+02
 0.525244897027776D+02 -.255150574175763D+02 0.449469093858412D+02 0.935837593687885D+01
 0.154759878458134D+03 -.153331023050298D+03 0.819072665535247D+01 -.193165563075503D+02
 0.151695726005432D+03 0.405535784280291D+01 -.687017770393271D+02 0.997996084597550D+02
 0.130449748780885D+01 -.676330031378760D+00 0.975287056202970D+00 0.541393149529753D+00
0.116706243767D-05 0.000000000000D+00 0.000000000000D+00 0.148962209628D-06 0.000000000000D+00  7 2 -2 23 -11 11 23 21 0 0.13896314D+00 0.14160036D-01 0.67005070D+05 0.67005070D+05 0.67005070D+05 0.11362775D+01  1  2  2  1  7  1        2 0.149684432482D-03 0.100000000000D+01
-.639197456141D-07 0.000000000000D+00 -.448182705527D-08 0.148962209628D-06 0.000000000000D+00  7 2 -2 23 -11 11 23 21 2 0.13896314D+00 0.14160036D-01 0.67005070D+05 0.67005070D+05 0.67005070D+05 0.11362775D+01  1  2  3  1  7  1        2 -.105848917996D-04 0.100000000000D+01
0.780409402802D-07 0.000000000000D+00 0.000000000000D+00 0.148962209628D-06 0.000000000000D+00  7 2 -2 23 -11 11 23 21 2 0.13896314D+00 0.14160036D-01 0.67005070D+05 0.67005070D+05 0.67005070D+05 0.11362775D+01  1  2 15  1  7  1        2 0.129233134592D-04 0.100000000000D+01
-.658148507842D-04 0.000000000000D+00 0.000000000000D+00 0.148962209628D-06 0.000000000000D+00  7 2 -2 23 -11 11 23 21 2 0.13896314D+00 0.14160036D-01 0.67005070D+05 0.67005070D+05 0.67005070D+05 0.11362775D+01  1  2  4  1  7  1        2 -.108987147503D-01 0.100000000000D+01
-.407696325210D-03 0.000000000000D+00 -.345285571947D-04 0.148962209628D-06 0.000000000000D+00  7 2 -2 23 -11 11 23 21 2 0.13952960D+00 0.14160036D-01 0.67005070D+05 0.67005070D+05 0.67005070D+05 0.11362775D+01  1  2  5  1  7  1        2 -.671514700190D-01 0.100000000000D+01
0.407833700162D-03 0.000000000000D+00 0.345282714897D-04 0.148962209628D-06 0.000000000000D+00  7 2 -2 23 -11 11 23 21 2 0.13896314D+00 0.14160036D-01 0.67005070D+05 0.67005070D+05 0.67005070D+05 0.11362775D+01  1  2  6  1  7  1        2 0.675358693463D-01 0.100000000000D+01
0.658153074964D-04 0.000000000000D+00 0.000000000000D+00 0.148962209628D-06 0.727982545383D-06  7 2 -2 23 -11 11 23 21 2 0.13940825D+00 0.14178804D-01 0.67326980D+05 0.67326980D+05 0.67326980D+05 0.11360999D+01  1  2 11  1  7  1        2 0.108267395180D-01 0.100000000000D+01
0.183026927295D-11 0.000000000000D+00 0.000000000000D+00 0.148962209628D-06 0.000000000000D+00  7 21 -2 23 -11 11 23 -2 2 0.13950013D+00 0.14160036D-01 0.67326980D+05 0.67326980D+05 0.67326980D+05 0.11360999D+01  1  2 12  3  7  1        2 0.261771472701D-09 0.100000000000D+01
-.308871938544D-06 0.000000000000D+00 -.261769924241D-07 0.148962209628D-06 0.000000000000D+00  7 21 -2 23 -11 11 23 -2 2 0.13952960D+00 0.14160036D-01 0.67005070D+05 0.67005070D+05 0.67005070D+05 0.11362775D+01  1  2  5  3  7  1        2 -.441734260054D-04 0.100000000000D+01
0.497524574450D-07 0.000000000000D+00 0.000000000000D+00 0.148962209628D-06 0.434494641333D-09  7 21 -2 23 -11 11 23 -2 2 0.13940825D+00 0.14178804D-01 0.67326980D+05 0.67326980D+05 0.67326980D+05 0.11360999D+01  1  2 11  3  7  1        2 0.711425032089D-05 0.100000000000D+01
  </mgrwgt>
  </event>
  <event>
  8     66 0.29152272E-05 0.23754789E+03 0.75467711E-02 0.91892620E-01
        2 -1    0    0  501    0 0.00000000E+00 0.00000000E+00 0.16065343E+04 0.16065343E+04 0.32000000E+00 0.0000E+00 0.9000E+01
       -2 -1    0    0    0  501 0.00000000E+00 0.00000000E+00 -.44669982E+02 0.44671128E+02 0.32000000E+00 0.0000E+00 0.9000E+01
       25  2    1    2    0    0 0.56745352E+02 -.12659906E+03 0.12992930E+04 0.13405508E+04 0.29944419E+03 0.0000E+00 0.0000E+00
       23  2    3    3    0    0 0.14284389E+03 -.11447131E+03 0.76042737E+03 0.78715091E+03 0.88592908E+02 0.0000E+00 0.0000E+00
       23  1    1    2    0    0 -.56745352E+02 0.12659906E+03 0.26257128E+03 0.31065461E+03 0.91188000E+02 0.0000E+00 0.9000E+01
      -13  1    4    4    0    0 0.43647753E+02 -.36831574E+02 0.42554795E+03 0.42936320E+03 0.10565837E+00 0.0000E+00 0.9000E+01
       13  1    4    4    0    0 0.99196137E+02 -.77639734E+02 0.33487942E+03 0.35778770E+03 0.10565837E+00 0.0000E+00 0.9000E+01
       23  1    3    3    0    0 -.86098538E+02 -.12127756E+02 0.53886562E+03 0.55339990E+03 0.91188000E+02 0.0000E+00 0.9000E+01
#aMCatNLO 1  0  0  1  1 0.56338347D+03 0.00000000D+00  -5  7  0 0.00000000D+00 0.00000000D+00 0.00000000D+00 0.00000000D+00 0.00000000D+00
  <mgrwgt>
 0.7150303650D-03    3    2    0
 0.267889584180463D+03 0.000000000000000D+00 0.000000000000000D+00 0.267889584180463D+03
 0.267889584180463D+03 0.000000000000000D+00 0.000000000000000D+00 -.267889584180463D+03
 0.191970645092998D+03 -.567453522305535D+02 0.126599064886255D+03 -.963852634149952D+02
 0.827181710724661D+02 0.436476741335057D+02 -.368315162599913D+02 0.598382467849707D+02
 0.126441685205164D+03 0.991962159181301D+02 -.776397921949599D+02 -.109395234342752D+02
 0.134648666990296D+03 -.860985378210823D+02 -.121277564313040D+02 0.474865400642997D+02
 0.000000000000000D+00 -.000000000000000D+00 0.000000000000000D+00 -.000000000000000D+00
 0.506370399035774D+03 0.000000000000000D+00 0.000000000000000D+00 0.506370399035774D+03
 0.106328022671874D+04 0.000000000000000D+00 0.000000000000000D+00 -.106328022671874D+04
 0.132719191186540D+03 -.248233002232602D+01 -.168860868514017D+01 -.963852634149952D+02
 0.173581656193718D+03 0.864811775725731D+02 -.138097724508104D+03 0.598382467849707D+02
 0.299304379136932D+03 0.170348021620391D+03 -.245855627813548D+03 -.109395234342752D+02
 0.171865188862019D+03 -.348731334233784D+02 -.133233947913189D+03 0.474865400642997D+02
 0.792180210375310D+03 -.219473735747260D+03 0.518875908919981D+03 -.556909827682971D+03
0.452845183218D-05 0.000000000000D+00 0.000000000000D+00 0.248128974017D-07 0.000000000000D+00  7 2 -2 23 -13 13 23 21 0 0.24715921D+00 0.68723956D-02 0.56429000D+05 0.56429000D+05 0.56429000D+05 0.11427031D+01  1  2  2  1  7  1        2 0.707661955626D-03 0.100000000000D+01
-.247160797225D-06 0.000000000000D+00 -.173904474043D-07 0.248128974017D-07 0.000000000000D+00  7 2 -2 23 -13 13 23 21 2 0.24715921D+00 0.68723956D-02 0.56429000D+05 0.56429000D+05 0.56429000D+05 0.11427031D+01  1  2  3  1  7  1        2 -.504338964282D-04 0.100000000000D+01
0.283271073703D-06 0.000000000000D+00 0.000000000000D+00 0.248128974017D-07 0.000000000000D+00  7 2 -2 23 -13 13 23 21 2 0.24715921D+00 0.68723956D-02 0.56429000D+05 0.56429000D+05 0.56429000D+05 0.11427031D+01  1  2 15  1  7  1        2 0.578023058377D-04 0.100000000000D+01
  </mgrwgt>
  </event>
  <event>
  8     66 0.29152272E-05 0.16515834E+03 0.75467711E-02 0.93381454E-01
        2 -1    0    0  501    0 0.00000000E+00 0.00000000E+00 0.94267703E+02 0.94268246E+02 0.32000000E+00 0.0000E+00 0.9000E+01
       -2 -1    0    0    0  501 0.00000000E+00 0.00000000E+00 -.76341919E+03 0.76341926E+03 0.32000000E+00 0.0000E+00 0.9000E+01
       25  2    1    2    0    0 0.34351625E+02 -.33913710E+02 -.69005118E+03 0.75241537E+03 0.29602040E+03 0.0000E+00 0.0000E+00
       23  2    3    3    0    0 -.44557365E+02 -.46739055E+02 -.57289381E+03 0.58379681E+03 0.91877615E+02 0.0000E+00 0.0000E+00
       23  1    1    2    0    0 -.34351625E+02 0.33913710E+02 0.20899694E+02 0.10527214E+03 0.91188000E+02 0.0000E+00 0.9000E+01
      -13  1    4    4    0    0 -.68242246E+02 -.22193288E+02 -.46870520E+03 0.47416677E+03 0.10565837E+00 0.0000E+00 0.9000E+01
       13  1    4    4    0    0 0.23684881E+02 -.24545767E+02 -.10418861E+03 0.10963004E+03 0.10565837E+00 0.0000E+00 0.9000E+01
       23  1    3    3    0    0 0.78908990E+02 0.12825345E+02 -.11715737E+03 0.16861856E+03 0.91188000E+02 0.0000E+00 0.9000E+01
#aMCatNLO 1  0  0  1  1 0.50250247D+03 0.00000000D+00  -5  7  0 0.00000000D+00 0.00000000D+00 0.00000000D+00 0.00000000D+00 0.00000000D+00
  <mgrwgt>
 0.1156938996D-02    5    2    0
 0.268264859987215D+03 0.000000000000000D+00 0.000000000000000D+00 0.268264859987215D+03
 0.268264859987215D+03 0.000000000000000D+00 0.000000000000000D+00 -.268264859987215D+03
 0.194352063011045D+03 -.343516254153533D+02 0.339137110084844D+02 0.164703670540779D+03
 0.173433483555411D+03 -.682423651889499D+02 -.221932846690580D+02 -.157891136316074D+03
 0.453101861350097D+02 0.236850017850871D+02 -.245457700575572D+02 -.298251375572885D+02
 0.123433987272964D+03 0.789089888192161D+02 0.128253437181308D+02 0.230126033325842D+02
 0.000000000000000D+00 0.000000000000000D+00 0.000000000000000D+00 0.000000000000000D+00
 0.988328781819132D+03 0.000000000000000D+00 0.000000000000000D+00 0.988328781819132D+03
 0.469240648873542D+03 0.000000000000000D+00 0.000000000000000D+00 -.469240648873542D+03
 0.247196930582291D+03 -.930618798234710D+02 -.130396543586946D+03 0.164703670540779D+03
 0.278701209058148D+03 -.128360139694684D+03 -.190442714591169D+03 -.157891136316074D+03
 0.762641064803913D+02 0.751996064016067D+01 -.697862830283411D+02 -.298251375572885D+02
 0.132938343537632D+03 0.448206204082698D+02 -.825765336678913D+02 0.230126033325842D+02
 0.722468841034212D+03 0.169081438469725D+03 0.473202074874347D+03 0.519088132945590D+03
0.311778167324D-04 0.000000000000D+00 0.000000000000D+00 0.646569242500D-08 0.000000000000D+00  7 2 -2 23 -13 13 23 21 0 0.14502770D-01 0.11744915D+00 0.27277277D+05 0.27277277D+05 0.27277277D+05 0.11711892D+01  1  2  2  1  7  1        2 0.918909746304D-03 0.100000000000D+01
-.123657799156D-05 0.000000000000D+00 -.119731025560D-06 0.646569242500D-08 0.000000000000D+00  7 2 -2 23 -13 13 23 21 2 0.14502770D-01 0.11744915D+00 0.27277277D+05 0.27277277D+05 0.27277277D+05 0.11711892D+01  1  2  3  1  7  1        2 -.499922616681D-04 0.100000000000D+01
0.190103964101D-05 0.000000000000D+00 0.000000000000D+00 0.646569242500D-08 0.000000000000D+00  7 2 -2 23 -13 13 23 21 2 0.14502770D-01 0.11744915D+00 0.27277277D+05 0.27277277D+05 0.27277277D+05 0.11711892D+01  1  2 15  1  7  1        2 0.768550563114D-04 0.100000000000D+01
0.297856740454D-04 0.000000000000D+00 -.160955982733D-04 0.646569242500D-08 0.000000000000D+00  7 2 -2 23 -13 13 23 21 2 0.88756352D-01 0.11744915D+00 0.27277277D+05 0.27277277D+05 0.27277277D+05 0.11711892D+01  1  2  5  1  7  1        2 0.160031745106D-03 0.100000000000D+01
0.552167868190D-05 0.000000000000D+00 -.357361721502D-05 0.646569242500D-08 0.000000000000D+00  7 21 -2 23 -13 13 23 -2 2 0.88756352D-01 0.11744915D+00 0.27277277D+05 0.27277277D+05 0.27277277D+05 0.11711892D+01  1  2  5  3  7  1        2 0.511347101808D-04 0.100000000000D+01
  </mgrwgt>
  </event>
  <event>
  8     66 0.29152272E-05 0.46384580E+03 0.75467711E-02 0.87235078E-01
        2 -1    0    0  501    0 0.00000000E+00 0.00000000E+00 0.11216999E+04 0.11216999E+04 0.32000000E+00 0.0000E+00 0.9000E+01
       -2 -1    0    0    0  501 0.00000000E+00 0.00000000E+00 -.89685718E+03 0.89685724E+03 0.32000000E+00 0.0000E+00 0.9000E+01
       25  2    1    2    0    0 -.58207629E+03 0.57052027E+03 0.65940570E+03 0.10904050E+04 0.29976827E+03 0.0000E+00 0.0000E+00
       23  2    3    3    0    0 -.36972526E+03 0.25181848E+03 0.46335904E+03 0.65061718E+03 0.92150950E+02 0.0000E+00 0.0000E+00
       23  1    1    2    0    0 0.58207629E+03 -.57052027E+03 -.43456299E+03 0.92815216E+03 0.91188000E+02 0.0000E+00 0.9000E+01
      -13  1    4    4    0    0 -.82535179E+02 0.13779070E+02 0.81796427E+02 0.11701532E+03 0.10565837E+00 0.0000E+00 0.9000E+01
       13  1    4    4    0    0 -.28719008E+03 0.23803941E+03 0.38156261E+03 0.53360186E+03 0.10565837E+00 0.0000E+00 0.9000E+01
       23  1    3    3    0    0 -.21235103E+03 0.31870178E+03 0.19604666E+03 0.43978782E+03 0.91188000E+02 0.0000E+00 0.9000E+01
#aMCatNLO 1  0  0  1  2 0.32789471D+03 0.00000000D+00  -5  7  0 0.00000000D+00 0.00000000D+00 0.00000000D+00 0.00000000D+00 0.00000000D+00
  <mgrwgt>
 0.5138814214D-03    9    2    0
 0.100299785307007D+04 0.000000000000000D+00 0.000000000000000D+00 0.100299785307007D+04
 0.100299785307007D+04 0.000000000000000D+00 0.000000000000000D+00 -.100299785307007D+04
 0.982672345278723D+03 0.582076289250062D+03 -.570520268597899D+03 -.541316454066792D+03
 0.108579377639447D+03 -.825349096943498D+02 0.137787750727862D+02 0.691925956140451D+02
 0.494176182097634D+03 -.287190348108861D+03 0.238039709360533D+03 0.324143331989503D+03
 0.420567801124345D+03 -.212351031446851D+03 0.318701784164580D+03 0.147980526463244D+03
 0.000000000000000D+00 0.000000000000000D+00 0.000000000000000D+00 0.000000000000000D+00
 0.128061473371579D+04 0.000000000000000D+00 0.000000000000000D+00 0.128061473371579D+04
 0.111800424375546D+04 0.000000000000000D+00 0.000000000000000D+00 -.111800424375546D+04
 0.107115472339765D+04 0.553305800240188D+03 -.734769608850433D+03 -.541316454066792D+03
 0.110129559204843D+03 -.855986355356374D+02 -.371188864076529D+01 0.691925956140451D+02
 0.470508069611711D+03 -.300703870296340D+03 0.160891660086169D+03 0.324143331989503D+03
 0.380825102303887D+03 -.223577130309951D+03 0.254612524811318D+03 0.147980526463244D+03
 0.366001522953161D+03 0.565738359017404D+02 0.322977312593711D+03 0.162610489960337D+03
0.427189019902D-03 0.000000000000D+00 0.000000000000D+00 0.339570683848D-05 0.000000000000D+00  7 2 -2 23 -13 13 23 21 0 0.17256922D+00 0.13797804D+00 0.69764447D+06 0.69764447D+06 0.69764447D+06 0.10584341D+01  1  2  2  1  7  1        2 0.402198681341D-03 0.100000000000D+01
-.227662093761D-04 0.000000000000D+00 -.164051831787D-05 0.339570683848D-05 0.000000000000D+00  7 2 -2 23 -13 13 23 21 2 0.17256922D+00 0.13797804D+00 0.69764447D+06 0.69764447D+06 0.69764447D+06 0.10584341D+01  1  2  3  1  7  1        2 -.240125843669D-04 0.100000000000D+01
0.274580808339D-04 0.000000000000D+00 0.000000000000D+00 0.339570683848D-05 0.000000000000D+00  7 2 -2 23 -13 13 23 21 2 0.17256922D+00 0.13797804D+00 0.69764447D+06 0.69764447D+06 0.69764447D+06 0.10584341D+01  1  2 15  1  7  1        2 0.289613203360D-04 0.100000000000D+01
0.288641699733D-03 0.000000000000D+00 0.000000000000D+00 0.339570683848D-05 0.000000000000D+00  7 2 -2 23 -13 13 23 21 2 0.22809693D+00 0.13797804D+00 0.10300453D+07 0.10300453D+07 0.10300453D+07 0.10470092D+01  1  2 12  1  7  1        2 0.180039408455D-03 0.100000000000D+01
-.342848466037D-03 0.000000000000D+00 0.000000000000D+00 0.339570683848D-05 0.000000000000D+00  7 2 -2 23 -13 13 23 21 2 0.17256922D+00 0.13797804D+00 0.69764447D+06 0.69764447D+06 0.69764447D+06 0.10584341D+01  1  2  4  1  7  1        2 -.361618290501D-03 0.100000000000D+01
-.572278227251D-03 0.000000000000D+00 -.196943566354D-03 0.339570683848D-05 0.000000000000D+00  7 2 -2 23 -13 13 23 21 2 0.23383638D+00 0.13797804D+00 0.69764447D+06 0.69764447D+06 0.69764447D+06 0.10584341D+01  1  2  5  1  7  1        2 -.356186699283D-03 0.100000000000D+01
0.612384816110D-03 0.000000000000D+00 0.188190740055D-03 0.339570683848D-05 0.000000000000D+00  7 2 -2 23 -13 13 23 21 2 0.17256922D+00 0.13797804D+00 0.69764447D+06 0.69764447D+06 0.69764447D+06 0.10584341D+01  1  2  6  1  7  1        2 0.645910868117D-03 0.100000000000D+01
0.105851339266D-04 0.000000000000D+00 0.000000000000D+00 0.339570683848D-05 0.000000000000D+00  7 21 -2 23 -13 13 23 -2 2 0.22809693D+00 0.13797804D+00 0.10300453D+07 0.10300453D+07 0.10300453D+07 0.10470092D+01  1  2 12  3  7  1        2 0.223035208007D-05 0.100000000000D+01
-.178216391900D-04 0.000000000000D+00 -.768285334674D-05 0.339570683848D-05 0.000000000000D+00  7 21 -2 23 -13 13 23 -2 2 0.23383638D+00 0.13797804D+00 0.69764447D+06 0.69764447D+06 0.69764447D+06 0.10584341D+01  1  2  5  3  7  1        2 -.364163474080D-05 0.100000000000D+01
  </mgrwgt>
  </event>
  <event>
  8     66 0.29152272E-05 0.57181570E+03 0.75467711E-02 0.89425128E-01
        2 -1    0    0  501    0 0.00000000E+00 0.00000000E+00 0.70468844E+03 0.70468851E+03 0.32000000E+00 0.0000E+00 0.9000E+01
       -2 -1    0    0    0  501 0.00000000E+00 0.00000000E+00 -.52882696E+03 0.52882706E+03 0.32000000E+00 0.0000E+00 0.9000E+01
       25  2    1    2    0    0 0.46232981E+03 -.26664640E+03 0.29393232E+03 0.67934490E+03 0.30043990E+03 0.0000E+00 0.0000E+00
       23  2    3    3    0    0 0.39440714E+03 -.13011833E+03 0.26074063E+03 0.49859551E+03 0.90133415E+02 0.0000E+00 0.0000E+00
       23  1    1    2    0    0 -.46232981E+03 0.26664640E+03 -.11807084E+03 0.55417067E+03 0.91188000E+02 0.0000E+00 0.9000E+01
      -13  1    4    4    0    0 0.16934898E+03 -.10201729E+03 0.10969249E+03 0.22609524E+03 0.10565837E+00 0.0000E+00 0.9000E+01
       13  1    4    4    0    0 0.22505817E+03 -.28101042E+02 0.15104814E+03 0.27250027E+03 0.10565837E+00 0.0000E+00 0.9000E+01
       23  1    3    3    0    0 0.67922666E+02 -.13652807E+03 0.33191690E+02 0.18074939E+03 0.91188000E+02 0.0000E+00 0.9000E+01
#aMCatNLO 1  0  0  2  2 0.41801690D+03 0.00000000D+00  -5  7  0 0.00000000D+00 0.00000000D+00 0.00000000D+00 0.00000000D+00 0.00000000D+00
  <mgrwgt>
 0.5282192296D-03    3    2    0
 0.610457494322279D+03 0.000000000000000D+00 0.000000000000000D+00 0.610457494322279D+03
 0.610457494322279D+03 0.000000000000000D+00 0.000000000000000D+00 -.610457494322279D+03
 0.576897057785361D+03 -.462329808888161D+03 0.266646403840800D+03 -.199112548749726D+03
 0.212628437472966D+03 0.169348900264219D+03 -.102017390964603D+03 0.782576152350025D+02
 0.253555612410695D+03 0.225058242523039D+03 -.281009400279871D+02 0.113355958056676D+03
 0.177833880975536D+03 0.679226661009029D+02 -.136528072848210D+03 0.749897545804703D+01
 0.000000000000000D+00 0.000000000000000D+00 -.000000000000000D+00 0.000000000000000D+00
 0.939814876587067D+03 0.000000000000000D+00 0.000000000000000D+00 0.939814876587067D+03
 0.793546450728168D+03 0.000000000000000D+00 0.000000000000000D+00 -.793546450728168D+03
 0.791347789566112D+03 -.671150152198098D+03 0.357530053061318D+03 -.199112548749726D+03
 0.157642193817721D+03 0.112838517277302D+03 -.774227095111907D+02 0.782576152350025D+02
 0.193511963626814D+03 0.156827176357063D+03 0.159486539536980D+01 0.113355958056676D+03
 0.147990801854090D+03 0.181955852651610D+02 -.114885648073876D+03 0.749897545804703D+01
 0.442868578450498D+03 0.383288873298573D+03 -.166816560871621D+03 0.146268425858899D+03
0.770334434082D-04 0.000000000000D+00 0.000000000000D+00 0.686754095350D-06 0.000000000000D+00  7 2 -2 23 -13 13 23 21 0 0.10841362D+00 0.81358007D-01 0.32697320D+06 0.32697320D+06 0.32697320D+06 0.10817963D+01  1  2  2  2  7  2       -2 0.523070428986D-03 0.100000000000D+01
-.425738541082D-05 0.000000000000D+00 -.295828706059D-06 0.686754095350D-06 0.000000000000D+00  7 2 -2 23 -13 13 23 21 2 0.10841362D+00 0.81358007D-01 0.32697320D+06 0.32697320D+06 0.32697320D+06 0.10817963D+01  1  2  3  2  7  2       -2 -.338309989341D-04 0.100000000000D+01
0.490532455798D-05 0.000000000000D+00 0.000000000000D+00 0.686754095350D-06 0.000000000000D+00  7 2 -2 23 -13 13 23 21 2 0.10841362D+00 0.81358007D-01 0.32697320D+06 0.32697320D+06 0.32697320D+06 0.10817963D+01  1  2 15  2  7  2       -2 0.389797995432D-04 0.100000000000D+01
  </mgrwgt>
  </event>
</LesHouchesEvents>
