<event>
12    2  0.3561489E-008  0.1529488E+04  0.7818608E-02  0.8865077E-01
          1   -1    0    0  501    0  0.00000000000E+00  0.00000000000E+00  0.21778458226E+04  0.21778458226E+04  0.00000000000E+00 0. -1.
         -1   -1    0    0    0  501 -0.00000000000E+00 -0.00000000000E+00 -0.26853739482E+03  0.26853739482E+03  0.00000000000E+00 0.  1.
         23    2    1    2    0    0 -0.17635752829E+03  0.40103826903E+03  0.26213283484E+03  0.51844184577E+03  0.90192313047E+02 0.  0.
        254    2    1    2    0    0  0.17635752829E+03 -0.40103826903E+03  0.16471755930E+04  0.19279413717E+04  0.90101988189E+03 0.  0.
         23    2    4    4    0    0  0.45288705375E+03 -0.49313160587E+03  0.12887763590E+04  0.14554774562E+04  0.95836621451E+02 0.  0.
         23    2    4    4    0    0 -0.27652952546E+03  0.92093336845E+02  0.35839923402E+03  0.47246391546E+03  0.99107917574E+02 0.  0.
          1    1    3    3  502    0 -0.13469676373E+03  0.29805614652E+03  0.23867341706E+03  0.40490206797E+03  0.00000000000E+00 0. -1.
         -1    1    3    3    0  502 -0.41660764556E+02  0.10298212250E+03  0.23459417787E+02  0.11353977779E+03  0.00000000000E+00 0.  1.
         11    1    5    5    0    0  0.69147177794E+02 -0.12969800476E+03  0.31162686971E+03  0.34454928611E+03  0.00000000000E+00 0. -1.
        -11    1    5    5    0    0  0.38373987595E+03 -0.36343360111E+03  0.97714948926E+03  0.11109281701E+04  0.00000000000E+00 0.  1.
          4    1    6    6  503    0 -0.55961873882E+02  0.57328174897E+02  0.61646013200E+02  0.10108650706E+03  0.00000000000E+00 0. -1.
         -4    1    6    6    0  503 -0.22056765158E+03  0.34765161949E+02  0.29675322082E+03  0.37137740840E+03  0.00000000000E+00 0.  1.
<mgrwt>
<rscale>  0 0.15294876E+04</rscale>
<asrwt>0</asrwt>
<pdfrwt beam="1">  1        1 0.33505319E+00 0.15294876E+04</pdfrwt>
<pdfrwt beam="2">  1       -1 0.41313447E-01 0.15294876E+04</pdfrwt>
<totfact> 0.12507534E+01</totfact>
</mgrwt>
</event>
<event>
12    2  0.3561489E-008  0.2137734E+04  0.7818608E-02  0.8544801E-01
         -1   -1    0    0    0  501 -0.00000000000E+00  0.00000000000E+00  0.42060323336E+03  0.42060323336E+03  0.00000000000E+00 0.  1.
          1   -1    0    0  501    0  0.00000000000E+00 -0.00000000000E+00 -0.27162819209E+04  0.27162819209E+04  0.00000000000E+00 0. -1.
         23    2    1    2    0    0 -0.28854288374E+03  0.77411501342E+03 -0.56873836301E+03  0.10097266320E+04  0.11650534786E+03 0.  0.
        254    2    1    2    0    0  0.28854288374E+03 -0.77411501342E+03 -0.17269403246E+04  0.21271585223E+04  0.92734537500E+03 0.  0.
         23    2    4    4    0    0  0.29055220001E+03 -0.37322842054E+03 -0.16025431769E+03  0.50758173117E+03  0.90761955943E+02 0.  0.
         23    2    4    4    0    0 -0.20093162770E+01 -0.40088659288E+03 -0.15666860069E+04  0.16195767911E+04  0.88373301725E+02 0.  0.
          2    1    3    3  502    0 -0.15178572793E+03  0.47311803905E+03 -0.27735743108E+03  0.56904018369E+03  0.00000000000E+00 0. -1.
         -2    1    3    3    0  502 -0.13675715581E+03  0.30099697437E+03 -0.29138093193E+03  0.44068644833E+03  0.00000000000E+00 0.  1.
         11    1    5    5    0    0  0.11056934024E+03 -0.19339570385E+03 -0.10913781074E+03  0.24806962531E+03  0.00000000000E+00 0. -1.
        -11    1    5    5    0    0  0.17998285977E+03 -0.17983271670E+03 -0.51116506950E+02  0.25951210586E+03  0.00000000000E+00 0.  1.
          1    1    6    6  503    0  0.52881148274E+01 -0.50746222587E+02 -0.10810497585E+03  0.11954007307E+03  0.00000000000E+00 0. -1.
         -1    1    6    6    0  503 -0.72974311044E+01 -0.35014037029E+03 -0.14585810310E+04  0.15000367180E+04  0.00000000000E+00 0.  1.
<mgrwt>
<rscale>  0 0.21377343E+04</rscale>
<asrwt>0</asrwt>
<pdfrwt beam="1">  1        1 0.41788953E+00 0.21377343E+04</pdfrwt>
<pdfrwt beam="2">  1       -1 0.64708189E-01 0.21377343E+04</pdfrwt>
<totfact> 0.21225730E+00</totfact>
</mgrwt>
</event>
<event>
12    2  0.3561489E-008  0.1965808E+04  0.7818608E-02  0.8622775E-01
          2   -1    0    0  501    0  0.00000000000E+00  0.00000000000E+00  0.54207391897E+03  0.54207391897E+03  0.00000000000E+00 0. -1.
         -2   -1    0    0    0  501 -0.00000000000E+00 -0.00000000000E+00 -0.17822300383E+04  0.17822300383E+04  0.00000000000E+00 0.  1.
         23    2    1    2    0    0 -0.25272429236E+03 -0.10038507312E+02  0.37332273795E+03  0.45999975109E+03  0.90882147620E+02 0.  0.
        254    2    1    2    0    0  0.25272429236E+03  0.10038507312E+02 -0.16134788573E+04  0.18643042062E+04  0.89908053627E+03 0.  0.
         23    2    4    4    0    0  0.32815374911E+03  0.17453592951E+03 -0.19122320182E+03  0.42788947109E+03  0.91517281480E+02 0.  0.
         23    2    4    4    0    0 -0.75429456753E+02 -0.16449742220E+03 -0.14222556555E+04  0.14364147351E+04  0.87904134318E+02 0.  0.
          3    1    3    3  502    0 -0.74112227020E+01 -0.65381367628E+01  0.66113199478E+02  0.66847801755E+02  0.00000000000E+00 0. -1.
         -3    1    3    3    0  502 -0.24531306966E+03 -0.35003705489E+01  0.30720953847E+03  0.39315194933E+03  0.00000000000E+00 0.  1.
         11    1    5    5    0    0  0.25954423785E+03  0.11318753856E+03 -0.17914346131E+03  0.33506269565E+03  0.00000000000E+00 0.  1.
        -11    1    5    5    0    0  0.68609511264E+02  0.61348390946E+02 -0.12079740506E+02  0.92826775438E+02  0.00000000000E+00 0. -1.
          4    1    6    6  503    0  0.83970650967E+01 -0.64298029291E+01 -0.28277829741E+03  0.28297600350E+03  0.00000000000E+00 0. -1.
         -4    1    6    6    0  503 -0.83826521850E+02 -0.15806761927E+03 -0.11394773580E+04  0.11534387316E+04  0.00000000000E+00 0.  1.
<mgrwt>
<rscale>  0 0.19658082E+04</rscale>
<asrwt>0</asrwt>
<pdfrwt beam="1">  1        2 0.83395988E-01 0.19658082E+04</pdfrwt>
<pdfrwt beam="2">  1       -2 0.27418924E+00 0.19658082E+04</pdfrwt>
<totfact> 0.23851679E+00</totfact>
</mgrwt>
</event>
<event>
12    2  0.3561489E-008  0.1653641E+04  0.7818608E-02  0.8788255E-01
          2   -1    0    0  501    0  0.00000000000E+00  0.00000000000E+00  0.12236721510E+04  0.12236721510E+04  0.00000000000E+00 0. -1.
         -2   -1    0    0    0  501 -0.00000000000E+00 -0.00000000000E+00 -0.55867279190E+03  0.55867279190E+03  0.00000000000E+00 0.  1.
         23    2    1    2    0    0 -0.37577187751E+03  0.39694391105E+03  0.45440004090E+03  0.71681975628E+03  0.92640128280E+02 0.  0.
        254    2    1    2    0    0  0.37577187751E+03 -0.39694391105E+03  0.21059931816E+03  0.10655251866E+04  0.89006902990E+03 0.  0.
         23    2    4    4    0    0  0.65748646151E+02  0.38771964257E+02 -0.29852160868E+03  0.32153962562E+03  0.91904462945E+02 0.  0.
         23    2    4    4    0    0  0.31002323136E+03 -0.43571587531E+03  0.50912092684E+03  0.74398556097E+03  0.91365577764E+02 0.  0.
          2    1    3    3  502    0 -0.33726868200E+03  0.31669397629E+03  0.35330788902E+03  0.58212687871E+03  0.00000000000E+00 0. -1.
         -2    1    3    3    0  502 -0.38503195505E+02  0.80249934764E+02  0.10109215188E+03  0.13469287756E+03  0.00000000000E+00 0.  1.
         11    1    5    5    0    0  0.64811605919E+02  0.56656517326E+02 -0.15842077932E+03  0.18029877575E+03  0.00000000000E+00 0.  1.
        -11    1    5    5    0    0  0.93704023250E+00 -0.17884553069E+02 -0.14010082936E+03  0.14124084987E+03  0.00000000000E+00 0. -1.
          1    1    6    6  503    0  0.26740066875E+03 -0.34814279651E+03  0.45634099411E+03  0.63320899181E+03  0.00000000000E+00 0. -1.
         -1    1    6    6    0  503  0.42622562605E+02 -0.87573078803E+02  0.52779932732E+02  0.11077656915E+03  0.00000000000E+00 0.  1.
<mgrwt>
<rscale>  0 0.16536412E+04</rscale>
<asrwt>0</asrwt>
<pdfrwt beam="1">  1        2 0.18825725E+00 0.16536412E+04</pdfrwt>
<pdfrwt beam="2">  1       -2 0.85949661E-01 0.16536412E+04</pdfrwt>
<totfact> 0.20571906E+01</totfact>
</mgrwt>
</event>
<event>
12    2  0.3561489E-008  0.2067337E+04  0.7818608E-02  0.8575770E-01
          2   -1    0    0  501    0  0.00000000000E+00  0.00000000000E+00  0.11459459754E+04  0.11459459754E+04  0.00000000000E+00 0. -1.
         -2   -1    0    0    0  501 -0.00000000000E+00 -0.00000000000E+00 -0.93239167332E+03  0.93239167332E+03  0.00000000000E+00 0.  1.
         23    2    1    2    0    0 -0.60216832638E+03  0.35175107711E+03 -0.38026864343E+03  0.79970581940E+03  0.92680326156E+02 0.  0.
        254    2    1    2    0    0  0.60216832638E+03 -0.35175107711E+03  0.59382294551E+03  0.12786318293E+04  0.89215365875E+03 0.  0.
         23    2    4    4    0    0  0.28583328526E+03 -0.84146084131E+02  0.76030067206E+03  0.82163669367E+03  0.90821330100E+02 0.  0.
         23    2    4    4    0    0  0.31633504112E+03 -0.26760499298E+03 -0.16647772656E+03  0.45699513566E+03  0.97208179020E+02 0.  0.
          1    1    3    3  502    0 -0.36591164971E+03  0.21874634831E+03 -0.28285791076E+03  0.51161498998E+03  0.00000000000E+00 0. -1.
         -1    1    3    3    0  502 -0.23625667667E+03  0.13300472881E+03 -0.97410732670E+02  0.28809082942E+03  0.00000000000E+00 0.  1.
         11    1    5    5    0    0  0.35500767896E+02 -0.38901859156E+02  0.19015597532E+03  0.19731435355E+03  0.00000000000E+00 0. -1.
        -11    1    5    5    0    0  0.25033251736E+03 -0.45244224975E+02  0.57014469675E+03  0.62432234012E+03  0.00000000000E+00 0.  1.
          1    1    6    6  503    0  0.84451793520E+02 -0.24775500438E+02 -0.17823816141E+02  0.89797657389E+02  0.00000000000E+00 0. -1.
         -1    1    6    6    0  503  0.23188324760E+03 -0.24282949255E+03 -0.14865391042E+03  0.36719747827E+03  0.00000000000E+00 0.  1.
<mgrwt>
<rscale>  0 0.20673369E+04</rscale>
<asrwt>0</asrwt>
<pdfrwt beam="1">  1        2 0.17629938E+00 0.20673369E+04</pdfrwt>
<pdfrwt beam="2">  1       -2 0.14344487E+00 0.20673369E+04</pdfrwt>
<totfact> 0.63598249E+00</totfact>
</mgrwt>
</event>
<event>
12    2  0.3561489E-008  0.1845935E+04  0.7818608E-02  0.8682246E-01
          4   -1    0    0  501    0  0.00000000000E+00  0.00000000000E+00  0.17124205610E+04  0.17124205610E+04  0.00000000000E+00 0. -1.
         -4   -1    0    0    0  501 -0.00000000000E+00 -0.00000000000E+00 -0.49746483672E+03  0.49746483672E+03  0.00000000000E+00 0.  1.
         23    2    1    2    0    0 -0.36013745629E+02  0.60423751177E+03  0.38126029598E+02  0.61367601282E+03  0.93513068978E+02 0.  0.
        254    2    1    2    0    0  0.36013745629E+02 -0.60423751177E+03  0.11768296947E+04  0.15962093849E+04  0.89250003344E+03 0.  0.
         23    2    4    4    0    0 -0.22826798036E+03 -0.73041134657E+03  0.87518410457E+03  0.11660799347E+04  0.90488624522E+02 0.  0.
         23    2    4    4    0    0  0.26428172599E+03  0.12617383480E+03  0.30164559012E+03  0.43012945022E+03  0.90865915654E+02 0.  0.
          3    1    3    3  502    0  0.66901699884E+01  0.43583040439E+03  0.54005999049E+02  0.43921469431E+03  0.00000000000E+00 0. -1.
         -3    1    3    3    0  502 -0.42703915617E+02  0.16840710738E+03 -0.15879969451E+02  0.17446131851E+03  0.00000000000E+00 0.  1.
         11    1    5    5    0    0 -0.22375076726E+03 -0.72595118869E+03  0.87619746811E+03  0.11596514724E+04  0.00000000000E+00 0.  1.
        -11    1    5    5    0    0 -0.45172130941E+01 -0.44601578780E+01 -0.10133635434E+01  0.64284623437E+01  0.00000000000E+00 0. -1.
          2    1    6    6  503    0  0.20878480094E+03  0.90286527234E+02  0.27963799698E+03  0.36047213409E+03  0.00000000000E+00 0.  1.
         -2    1    6    6    0  503  0.55496925048E+02  0.35887307564E+02  0.22007593142E+02  0.69657316126E+02  0.00000000000E+00 0. -1.
<mgrwt>
<rscale>  0 0.18459350E+04</rscale>
<asrwt>0</asrwt>
<pdfrwt beam="1">  1        4 0.26344931E+00 0.18459350E+04</pdfrwt>
<pdfrwt beam="2">  1       -4 0.76533053E-01 0.18459350E+04</pdfrwt>
<totfact> 0.15059126E-01</totfact>
</mgrwt>
</event>
<event>
12    2  0.3561489E-008  0.1086996E+04  0.7818608E-02  0.9217960E-01
          1   -1    0    0  501    0  0.00000000000E+00  0.00000000000E+00  0.76572810312E+03  0.76572810312E+03  0.00000000000E+00 0. -1.
         -1   -1    0    0    0  501 -0.00000000000E+00 -0.00000000000E+00 -0.38576353613E+03  0.38576353613E+03  0.00000000000E+00 0.  1.
         23    2    1    2    0    0 -0.22054628170E+02  0.19675376263E+02  0.22559710502E+03  0.24601611165E+03  0.93575351152E+02 0.  0.
        254    2    1    2    0    0  0.22054628170E+02 -0.19675376263E+02  0.15436746197E+03  0.90547552761E+03  0.89173039127E+03 0.  0.
         23    2    4    4    0    0  0.13079282942E+03 -0.45203640181E+02  0.50165853149E+03  0.52798927500E+03  0.89225887411E+02 0.  0.
         23    2    4    4    0    0 -0.10873820125E+03  0.25528263918E+02 -0.34729106951E+03  0.37748625261E+03  0.97000491091E+02 0.  0.
          1    1    3    3  502    0 -0.74721271352E+01 -0.13186661541E+02  0.20297219458E+03  0.20353730002E+03  0.00000000000E+00 0. -1.
         -1    1    3    3    0  502 -0.14582501035E+02  0.32862037804E+02  0.22624910437E+02  0.42478811628E+02  0.00000000000E+00 0.  1.
         11    1    5    5    0    0  0.10478335649E+03 -0.46774973997E+02  0.25107393189E+03  0.27605356231E+03  0.00000000000E+00 0. -1.
        -11    1    5    5    0    0  0.26009472937E+02  0.15713338160E+01  0.25058459960E+03  0.25193571269E+03  0.00000000000E+00 0.  1.
          3    1    6    6  503    0 -0.53202791562E+02  0.49470443593E+02 -0.10446844699E+03  0.12724589673E+03  0.00000000000E+00 0. -1.
         -3    1    6    6    0  503 -0.55535409690E+02 -0.23942179675E+02 -0.24282262253E+03  0.25024035587E+03  0.00000000000E+00 0.  1.
<mgrwt>
<rscale>  0 0.10869958E+04</rscale>
<asrwt>0</asrwt>
<pdfrwt beam="1">  1        1 0.11780432E+00 0.10869958E+04</pdfrwt>
<pdfrwt beam="2">  1       -1 0.59348237E-01 0.10869958E+04</pdfrwt>
<totfact> 0.68053458E+01</totfact>
</mgrwt>
</event>
<event>
12    2  0.3561489E-008  0.2024161E+04  0.7818608E-02  0.8595407E-01
          1   -1    0    0  501    0  0.00000000000E+00  0.00000000000E+00  0.14750640514E+04  0.14750640514E+04  0.00000000000E+00 0. -1.
         -1   -1    0    0    0  501 -0.00000000000E+00 -0.00000000000E+00 -0.69441537954E+03  0.69441537954E+03  0.00000000000E+00 0.  1.
         23    2    1    2    0    0  0.30414920365E+03 -0.70717511222E+03  0.58345801520E+03  0.97032186764E+03  0.92184021830E+02 0.  0.
        254    2    1    2    0    0 -0.30414920365E+03  0.70717511222E+03  0.19719065669E+03  0.11991575633E+04  0.89804862294E+03 0.  0.
         23    2    4    4    0    0 -0.27673456582E+03  0.88141679649E+03  0.12230762987E+02  0.92820013694E+03  0.89041078094E+02 0.  0.
         23    2    4    4    0    0 -0.27414637835E+02 -0.17424168427E+03  0.18495989370E+03  0.27095742638E+03  0.89977984700E+02 0.  0.
          2    1    3    3  502    0  0.95878124265E+01 -0.48899753182E+00  0.89148416429E+01  0.13101132288E+02  0.00000000000E+00 0. -1.
         -2    1    3    3    0  502  0.29456139123E+03 -0.70668611469E+03  0.57454317356E+03  0.95722073535E+03  0.00000000000E+00 0.  1.
         11    1    5    5    0    0 -0.25347728596E+03  0.78058752822E+03  0.37902615172E+02  0.82158641174E+03  0.00000000000E+00 0.  1.
        -11    1    5    5    0    0 -0.23257279856E+02  0.10082926827E+03 -0.25671852185E+02  0.10661372520E+03  0.00000000000E+00 0. -1.
          4    1    6    6  503    0  0.13797478178E+02 -0.11919192266E+03  0.15482531539E+03  0.19587741860E+03  0.00000000000E+00 0.  1.
         -4    1    6    6    0  503 -0.41212116013E+02 -0.55049761605E+02  0.30134578316E+02  0.75080007787E+02  0.00000000000E+00 0. -1.
<mgrwt>
<rscale>  0 0.20241612E+04</rscale>
<asrwt>0</asrwt>
<pdfrwt beam="1">  1        1 0.22693293E+00 0.20241612E+04</pdfrwt>
<pdfrwt beam="2">  1       -1 0.10683314E+00 0.20241612E+04</pdfrwt>
<totfact> 0.51525184E+00</totfact>
</mgrwt>
</event>
<event>
12    2  0.3561489E-008  0.1544886E+04  0.7818608E-02  0.8855141E-01
          1   -1    0    0  501    0  0.00000000000E+00  0.00000000000E+00  0.13466852928E+04  0.13466852928E+04  0.00000000000E+00 0. -1.
         -1   -1    0    0    0  501 -0.00000000000E+00 -0.00000000000E+00 -0.44306417753E+03  0.44306417753E+03  0.00000000000E+00 0.  1.
         23    2    1    2    0    0 -0.44611122446E+03  0.13593394291E+03  0.51803015144E+03  0.70271696397E+03  0.89233582381E+02 0.  0.
        254    2    1    2    0    0  0.44611122446E+03 -0.13593394291E+03  0.38559096382E+03  0.10870325064E+04  0.90303157036E+03 0.  0.
         23    2    4    4    0    0  0.44999711357E+03 -0.14752477591E+03  0.64927519584E+03  0.80863012084E+03  0.89796607276E+02 0.  0.
         23    2    4    4    0    0 -0.38858891111E+01  0.11590832997E+02 -0.26368423201E+03  0.27840238551E+03  0.88482012312E+02 0.  0.
          4    1    3    3  502    0 -0.29177163451E+03  0.12268520134E+03  0.38600089676E+03  0.49917836254E+03  0.00000000000E+00 0. -1.
         -4    1    3    3    0  502 -0.15433958995E+03  0.13248741576E+02  0.13202925468E+03  0.20353860142E+03  0.00000000000E+00 0.  1.
         11    1    5    5    0    0  0.83327024691E+02 -0.57059021127E+02  0.17851792258E+03  0.20510429937E+03  0.00000000000E+00 0. -1.
        -11    1    5    5    0    0  0.36667008888E+03 -0.90465754784E+02  0.47075727325E+03  0.60352582148E+03  0.00000000000E+00 0.  1.
          3    1    6    6  503    0 -0.21607823591E+02 -0.14379512941E+02 -0.23309761242E+03  0.23453819593E+03  0.00000000000E+00 0. -1.
         -3    1    6    6    0  503  0.17721934479E+02  0.25970345938E+02 -0.30586619593E+02  0.43864189585E+02  0.00000000000E+00 0.  1.
<mgrwt>
<rscale>  0 0.15448858E+04</rscale>
<asrwt>0</asrwt>
<pdfrwt beam="1">  1        1 0.20718235E+00 0.15448858E+04</pdfrwt>
<pdfrwt beam="2">  1       -1 0.68163720E-01 0.15448858E+04</pdfrwt>
<totfact> 0.17595232E+01</totfact>
</mgrwt>
</event>
<event>
12    2  0.3561489E-008  0.1431354E+04  0.7818608E-02  0.8931431E-01
          2   -1    0    0  501    0  0.00000000000E+00  0.00000000000E+00  0.12466308275E+04  0.12466308275E+04  0.00000000000E+00 0. -1.
         -2   -1    0    0    0  501 -0.00000000000E+00 -0.00000000000E+00 -0.41086199990E+03  0.41086199990E+03  0.00000000000E+00 0.  1.
         23    2    1    2    0    0  0.89268429675E+02 -0.39497777497E+03  0.41419195799E+03  0.58663712768E+03  0.92800033670E+02 0.  0.
        254    2    1    2    0    0 -0.89268429675E+02  0.39497777497E+03  0.42157686957E+03  0.10708556997E+04  0.89723384762E+03 0.  0.
         23    2    4    4    0    0  0.12728162778E+03  0.61568901218E+03  0.16379647931E+03  0.65708149444E+03  0.98250858562E+02 0.  0.
         23    2    4    4    0    0 -0.21655005745E+03 -0.22071123721E+03  0.25778039026E+03  0.41377420524E+03  0.95660784542E+02 0.  0.
          2    1    3    3  502    0  0.90313711199E+02 -0.38399541836E+03  0.41820754962E+03  0.57489703626E+03  0.00000000000E+00 0. -1.
         -2    1    3    3    0  502 -0.10452815239E+01 -0.10982356611E+02 -0.40155916282E+01  0.11740091411E+02  0.00000000000E+00 0.  1.
         11    1    5    5    0    0  0.89085355612E+02  0.51225221189E+03  0.16893773538E+03  0.54669780281E+03  0.00000000000E+00 0. -1.
        -11    1    5    5    0    0  0.38196272165E+02  0.10343680030E+03 -0.51412560689E+01  0.11038369162E+03  0.00000000000E+00 0.  1.
          3    1    6    6  503    0 -0.21254152930E+03 -0.19840338105E+03  0.20333580768E+03  0.35480030154E+03  0.00000000000E+00 0. -1.
         -3    1    6    6    0  503 -0.40085281566E+01 -0.22307856169E+02  0.54444582584E+02  0.58973903700E+02  0.00000000000E+00 0.  1.
<mgrwt>
<rscale>  0 0.14313535E+04</rscale>
<asrwt>0</asrwt>
<pdfrwt beam="1">  1        2 0.19178936E+00 0.14313535E+04</pdfrwt>
<pdfrwt beam="2">  1       -2 0.63209539E-01 0.14313535E+04</pdfrwt>
<totfact> 0.39998664E+01</totfact>
</mgrwt>
</event>
<event>
12    2  0.3561489E-008  0.1463065E+04  0.7818608E-02  0.8909393E-01
         -1   -1    0    0    0  501 -0.00000000000E+00  0.00000000000E+00  0.24525732118E+03  0.24525732118E+03  0.00000000000E+00 0.  1.
          1   -1    0    0  501    0  0.00000000000E+00 -0.00000000000E+00 -0.21819530059E+04  0.21819530059E+04  0.00000000000E+00 0. -1.
         23    2    1    2    0    0  0.21628615994E+02  0.28666104838E+03 -0.31939293607E+02  0.30300356365E+03  0.90270080440E+02 0.  0.
        254    2    1    2    0    0 -0.21628615994E+02 -0.28666104838E+03 -0.19047563911E+04  0.21242067634E+04  0.89527376295E+03 0.  0.
         23    2    4    4    0    0 -0.16051408305E+03  0.10848487032E+03 -0.47341951374E+02  0.21802330268E+03  0.88086106764E+02 0.  0.
         23    2    4    4    0    0  0.13888546706E+03 -0.39514591870E+03 -0.18574144398E+04  0.19061834608E+04  0.90097253307E+02 0.  0.
          4    1    3    3  502    0 -0.26300508628E+02  0.81911335298E+02  0.15547637640E+02  0.87423753297E+02  0.00000000000E+00 0. -1.
         -4    1    3    3    0  502  0.47929124622E+02  0.20474971308E+03 -0.47486931247E+02  0.21557981036E+03  0.00000000000E+00 0.  1.
         11    1    5    5    0    0 -0.14544145260E+03  0.88219698220E+02 -0.67794467391E+01  0.17024068899E+03  0.00000000000E+00 0.  1.
        -11    1    5    5    0    0 -0.15072630450E+02  0.20265172103E+02 -0.40562504635E+02  0.47782613693E+02  0.00000000000E+00 0. -1.
          4    1    6    6  503    0  0.10173193644E+02 -0.14343758724E+03 -0.54372316854E+03  0.56241685547E+03  0.00000000000E+00 0. -1.
         -4    1    6    6    0  503  0.12871227341E+03 -0.25170833146E+03 -0.13136912712E+04  0.13437666053E+04  0.00000000000E+00 0.  1.
<mgrwt>
<rscale>  0 0.14630652E+04</rscale>
<asrwt>0</asrwt>
<pdfrwt beam="1">  1        1 0.33568507E+00 0.14630652E+04</pdfrwt>
<pdfrwt beam="2">  1       -1 0.37731897E-01 0.14630652E+04</pdfrwt>
<totfact> 0.14752422E+01</totfact>
</mgrwt>
</event>
<event>
12    2  0.3561489E-008  0.1347566E+04  0.7818608E-02  0.8992673E-01
          2   -1    0    0  501    0  0.00000000000E+00  0.00000000000E+00  0.65266068685E+03  0.65266068685E+03  0.00000000000E+00 0.  1.
         -2   -1    0    0    0  501 -0.00000000000E+00 -0.00000000000E+00 -0.69558863660E+03  0.69558863660E+03  0.00000000000E+00 0. -1.
         23    2    1    2    0    0  0.10115108794E+03  0.18701228372E+03 -0.24040208937E+03  0.33401910408E+03  0.92576781433E+02 0.  0.
        254    2    1    2    0    0 -0.10115108794E+03 -0.18701228372E+03  0.19747413963E+03  0.10142302194E+04  0.97183422723E+03 0.  0.
         23    2    4    4    0    0  0.27162482594E+03  0.20071522697E+03  0.29757558629E+03  0.45947179620E+03  0.92176209189E+02 0.  0.
         23    2    4    4    0    0 -0.37277591388E+03 -0.38772751069E+03 -0.10010144667E+03  0.55475842318E+03  0.91880922658E+02 0.  0.
          1    1    3    3  502    0  0.89237851824E+02  0.72025128693E+02 -0.13940187751E+03  0.18051010170E+03  0.00000000000E+00 0. -1.
         -1    1    3    3    0  502  0.11913236117E+02  0.11498715502E+03 -0.10100021186E+03  0.15350900238E+03  0.00000000000E+00 0.  1.
         11    1    5    5    0    0  0.95041081681E+02  0.27328119981E+02  0.56062327896E+02  0.11367769332E+03  0.00000000000E+00 0. -1.
        -11    1    5    5    0    0  0.17658374426E+03  0.17338710699E+03  0.24151325840E+03  0.34579410288E+03  0.00000000000E+00 0.  1.
          2    1    6    6  503    0 -0.68386743402E+02 -0.10830791071E+03  0.57590815744E+01  0.12822058031E+03  0.00000000000E+00 0. -1.
         -2    1    6    6    0  503 -0.30438917048E+03 -0.27941959998E+03 -0.10586052824E+03  0.42653784287E+03  0.00000000000E+00 0.  1.
<mgrwt>
<rscale>  0 0.13475657E+04</rscale>
<asrwt>0</asrwt>
<pdfrwt beam="1">  1        2 0.10040934E+00 0.13475657E+04</pdfrwt>
<pdfrwt beam="2">  1       -2 0.10701364E+00 0.13475657E+04</pdfrwt>
<totfact> 0.30693367E+01</totfact>
</mgrwt>
</event>
<event>
12    2  0.3561489E-008  0.2434066E+04  0.7818608E-02  0.8426859E-01
          2   -1    0    0  501    0  0.00000000000E+00  0.00000000000E+00  0.80730325433E+03  0.80730325433E+03  0.00000000000E+00 0.  1.
         -2   -1    0    0    0  501 -0.00000000000E+00 -0.00000000000E+00 -0.18347129382E+04  0.18347129382E+04  0.00000000000E+00 0. -1.
         23    2    1    2    0    0  0.70755918633E+03 -0.34862569413E+03 -0.11908276599E+04  0.14311053787E+04  0.88386721806E+02 0.  0.
        254    2    1    2    0    0 -0.70755918633E+03  0.34862569413E+03  0.16341797601E+03  0.12109108139E+04  0.90411265197E+03 0.  0.
         23    2    4    4    0    0 -0.77548412569E+03  0.11439152758E+03  0.37701340314E+03  0.87456554886E+03  0.90910628310E+02 0.  0.
         23    2    4    4    0    0  0.67924939352E+02  0.23423416656E+03 -0.21359542713E+03  0.33634526499E+03  0.89586207764E+02 0.  0.
          3    1    3    3  502    0  0.25818336886E+03 -0.13445814869E+03 -0.51732912965E+03  0.59360514999E+03  0.00000000000E+00 0. -1.
         -3    1    3    3    0  502  0.44937581748E+03 -0.21416754544E+03 -0.67349853026E+03  0.83750022873E+03  0.00000000000E+00 0.  1.
         11    1    5    5    0    0 -0.72817528707E+03  0.98651032524E+02  0.37422083775E+03  0.82462871059E+03  0.00000000000E+00 0.  1.
        -11    1    5    5    0    0 -0.47308838616E+02  0.15740495054E+02  0.27925653918E+01  0.49936838278E+02  0.00000000000E+00 0. -1.
          4    1    6    6  503    0  0.39169599710E+02  0.60963021733E+02 -0.20475913814E+02  0.75299472819E+02  0.00000000000E+00 0. -1.
         -4    1    6    6    0  503  0.28755339642E+02  0.17327114482E+03 -0.19311951332E+03  0.26104579217E+03  0.00000000000E+00 0.  1.
<mgrwt>
<rscale>  0 0.24340663E+04</rscale>
<asrwt>0</asrwt>
<pdfrwt beam="1">  1        2 0.12420050E+00 0.24340663E+04</pdfrwt>
<pdfrwt beam="2">  1       -2 0.28226353E+00 0.24340663E+04</pdfrwt>
<totfact> 0.12449801E+00</totfact>
</mgrwt>
</event>
<event>
12    2  0.3561489E-008  0.1541548E+04  0.7818608E-02  0.8857285E-01
          1   -1    0    0  501    0  0.00000000000E+00  0.00000000000E+00  0.82367664788E+03  0.82367664788E+03  0.00000000000E+00 0. -1.
         -1   -1    0    0    0  501 -0.00000000000E+00 -0.00000000000E+00 -0.72126875465E+03  0.72126875465E+03  0.00000000000E+00 0.  1.
         23    2    1    2    0    0  0.10587316938E+03  0.39838375915E+03 -0.25354021413E+03  0.49566783389E+03  0.10716908989E+03 0.  0.
        254    2    1    2    0    0 -0.10587316938E+03 -0.39838375915E+03  0.35594810736E+03  0.10492775686E+04  0.89686432272E+03 0.  0.
         23    2    4    4    0    0 -0.30902400133E+03  0.17491704580E+03  0.19033033219E+03  0.41252180412E+03  0.88638576308E+02 0.  0.
         23    2    4    4    0    0  0.20315083195E+03 -0.57330080495E+03  0.16561777518E+03  0.63675576452E+03  0.89914307644E+02 0.  0.
          3    1    3    3  502    0  0.52889434474E+01  0.26590490651E+02 -0.57316225837E+02  0.63404864640E+02  0.00000000000E+00 0. -1.
         -3    1    3    3    0  502  0.10058422594E+03  0.37179326849E+03 -0.19622398829E+03  0.43226296925E+03  0.00000000000E+00 0.  1.
         11    1    5    5    0    0 -0.12199588972E+03  0.22538383268E+02  0.76704187777E+02  0.14585783575E+03  0.00000000000E+00 0.  1.
        -11    1    5    5    0    0 -0.18702811162E+03  0.15237866253E+03  0.11362614441E+03  0.26666396836E+03  0.00000000000E+00 0. -1.
          1    1    6    6  503    0  0.78859725384E+02 -0.33353699570E+03  0.66813800729E+02  0.34918457549E+03  0.00000000000E+00 0. -1.
         -1    1    6    6    0  503  0.12429110657E+03 -0.23976380924E+03  0.98803974447E+02  0.28757118903E+03  0.00000000000E+00 0.  1.
<mgrwt>
<rscale>  0 0.15415476E+04</rscale>
<asrwt>0</asrwt>
<pdfrwt beam="1">  1        1 0.12671948E+00 0.15415476E+04</pdfrwt>
<pdfrwt beam="2">  1       -1 0.11096442E+00 0.15415476E+04</pdfrwt>
<totfact> 0.15204316E+01</totfact>
</mgrwt>
</event>
<event>
12    2  0.3561489E-008  0.1319463E+04  0.7818608E-02  0.9014272E-01
         -2   -1    0    0    0  501 -0.00000000000E+00  0.00000000000E+00  0.34726296831E+03  0.34726296831E+03  0.00000000000E+00 0.  1.
          2   -1    0    0  501    0  0.00000000000E+00 -0.00000000000E+00 -0.12533601012E+04  0.12533601012E+04  0.00000000000E+00 0. -1.
         23    2    1    2    0    0 -0.13252630548E+03  0.22979320301E+03 -0.50746185510E+03  0.58006250401E+03  0.92665184322E+02 0.  0.
        254    2    1    2    0    0  0.13252630548E+03 -0.22979320301E+03 -0.39863527781E+03  0.10205605655E+04  0.90125781295E+03 0.  0.
         23    2    4    4    0    0  0.42682690334E+03  0.12945484276E+03 -0.27324729196E+03  0.53088014027E+03  0.90718680800E+02 0.  0.
         23    2    4    4    0    0 -0.29430059786E+03 -0.35924804577E+03 -0.12538798586E+03  0.48968042525E+03  0.91612071188E+02 0.  0.
          4    1    3    3  502    0  0.50757257332E+01  0.52614212102E+02 -0.63346646482E+02  0.82503429792E+02  0.00000000000E+00 0.  1.
         -4    1    3    3    0  502 -0.13760203122E+03  0.17717899091E+03 -0.44411520862E+03  0.49755907422E+03  0.00000000000E+00 0. -1.
         11    1    5    5    0    0  0.24410901747E+03  0.79394938309E+02 -0.20839028895E+03  0.33063466420E+03  0.00000000000E+00 0. -1.
        -11    1    5    5    0    0  0.18271788587E+03  0.50059904455E+02 -0.64857003007E+02  0.20024547608E+03  0.00000000000E+00 0.  1.
          1    1    6    6  503    0 -0.18729642112E+03 -0.28285673094E+03 -0.66882162559E+02  0.34577608834E+03  0.00000000000E+00 0. -1.
         -1    1    6    6    0  503 -0.10700417674E+03 -0.76391314835E+02 -0.58505823297E+02  0.14390433691E+03  0.00000000000E+00 0.  1.
<mgrwt>
<rscale>  0 0.13194628E+04</rscale>
<asrwt>0</asrwt>
<pdfrwt beam="1">  1        2 0.19282463E+00 0.13194628E+04</pdfrwt>
<pdfrwt beam="2">  1       -2 0.53425071E-01 0.13194628E+04</pdfrwt>
<totfact> 0.56903957E+01</totfact>
</mgrwt>
</event>
<event>
12    2  0.3561489E-008  0.1582976E+04  0.7818608E-02  0.8831075E-01
         -1   -1    0    0    0  501 -0.00000000000E+00  0.00000000000E+00  0.19124294664E+04  0.19124294664E+04  0.00000000000E+00 0.  1.
          1   -1    0    0  501    0  0.00000000000E+00 -0.00000000000E+00 -0.32756922444E+03  0.32756922444E+03  0.00000000000E+00 0. -1.
         23    2    1    2    0    0 -0.11086392622E+03 -0.35343938478E+03  0.79060663983E+01  0.38348208996E+03  0.98923195360E+02 0.  0.
        254    2    1    2    0    0  0.11086392622E+03  0.35343938478E+03  0.15769541755E+04  0.18565166008E+04  0.90700562769E+03 0.  0.
         23    2    4    4    0    0 -0.17562247671E+03 -0.24152839874E+03  0.53696601714E+03  0.62108133147E+03  0.90720973423E+02 0.  0.
         23    2    4    4    0    0  0.28648640293E+03  0.59496778352E+03  0.10399881584E+04  0.12354352694E+04  0.93079604283E+02 0.  0.
          3    1    3    3  502    0 -0.76769898001E+02 -0.32979603712E+03 -0.88683609758E+01  0.33872952509E+03  0.00000000000E+00 0. -1.
         -3    1    3    3    0  502 -0.34094028216E+02 -0.23643347661E+02  0.16774427374E+02  0.44752564869E+02  0.00000000000E+00 0.  1.
         11    1    5    5    0    0 -0.11555561907E+03 -0.86594291094E+02  0.21917718772E+03  0.26246964008E+03  0.00000000000E+00 0. -1.
        -11    1    5    5    0    0 -0.60066857644E+02 -0.15493410764E+03  0.31778882942E+03  0.35861169139E+03  0.00000000000E+00 0.  1.
          3    1    6    6  503    0  0.21854654398E+03  0.50363646252E+03  0.80584611671E+03  0.97508986359E+03  0.00000000000E+00 0.  1.
         -3    1    6    6    0  503  0.67939858942E+02  0.91331321000E+02  0.23414204168E+03  0.26034540578E+03  0.00000000000E+00 0. -1.
<mgrwt>
<rscale>  0 0.15829757E+04</rscale>
<asrwt>0</asrwt>
<pdfrwt beam="1">  1        1 0.50395266E-01 0.15829757E+04</pdfrwt>
<pdfrwt beam="2">  1       -1 0.29421991E+00 0.15829757E+04</pdfrwt>
<totfact> 0.27079747E+00</totfact>
</mgrwt>
</event>
<event>
12    2  0.3561489E-008  0.1458847E+04  0.7818608E-02  0.8912290E-01
          1   -1    0    0  501    0  0.00000000000E+00  0.00000000000E+00  0.26362499600E+03  0.26362499600E+03  0.00000000000E+00 0. -1.
         -1   -1    0    0    0  501 -0.00000000000E+00 -0.00000000000E+00 -0.20182400210E+04  0.20182400210E+04  0.00000000000E+00 0.  1.
         23    2    1    2    0    0 -0.33698183160E+03 -0.63458106527E+02 -0.99631005388E+03  0.10573104618E+04  0.87681258175E+02 0.  0.
        254    2    1    2    0    0  0.33698183160E+03  0.63458106527E+02 -0.75830497112E+03  0.12245545552E+04  0.89828934279E+03 0.  0.
         23    2    4    4    0    0 -0.11230394096E+03  0.17087745674E+03  0.99779553749E+02  0.24571476551E+03  0.92782036330E+02 0.  0.
         23    2    4    4    0    0  0.44928577256E+03 -0.10741935021E+03 -0.85808452486E+03  0.97883978971E+03  0.91769602154E+02 0.  0.
          2    1    3    3  502    0 -0.20514984502E+03 -0.27339408786E+02 -0.47019880903E+03  0.51373224757E+03  0.00000000000E+00 0. -1.
         -2    1    3    3    0  502 -0.13183198658E+03 -0.36118697742E+02 -0.52611124486E+03  0.54357821422E+03  0.00000000000E+00 0.  1.
         11    1    5    5    0    0 -0.11924901989E+03  0.12154559149E+03  0.96662216828E+02  0.19579898804E+03  0.00000000000E+00 0.  1.
        -11    1    5    5    0    0  0.69450789338E+01  0.49331865257E+02  0.31173369211E+01  0.49915777471E+02  0.00000000000E+00 0. -1.
          3    1    6    6  503    0  0.12581977700E+02 -0.13612794438E+01 -0.32351036578E+01  0.13062355846E+02  0.00000000000E+00 0. -1.
         -3    1    6    6    0  503  0.43670379486E+03 -0.10605807077E+03 -0.85484942121E+03  0.96577743386E+03  0.00000000000E+00 0.  1.
<mgrwt>
<rscale>  0 0.14588468E+04</rscale>
<asrwt>0</asrwt>
<pdfrwt beam="1">  1        1 0.40557691E-01 0.14588468E+04</pdfrwt>
<pdfrwt beam="2">  1       -1 0.31049847E+00 0.14588468E+04</pdfrwt>
<totfact> 0.28528728E+00</totfact>
</mgrwt>
</event>
<event>
12    2  0.3561489E-008  0.1777833E+04  0.7818608E-02  0.8718177E-01
          2   -1    0    0  501    0  0.00000000000E+00  0.00000000000E+00  0.39831998115E+03  0.39831998115E+03  0.00000000000E+00 0. -1.
         -2   -1    0    0    0  501 -0.00000000000E+00 -0.00000000000E+00 -0.19837630925E+04  0.19837630925E+04  0.00000000000E+00 0.  1.
         23    2    1    2    0    0  0.23142193181E+03  0.40523221784E+03  0.27646599675E+02  0.47647337719E+03  0.92159013628E+02 0.  0.
        254    2    1    2    0    0 -0.23142193181E+03 -0.40523221784E+03 -0.16130897111E+04  0.19056096965E+04  0.90084440308E+03 0.  0.
         23    2    4    4    0    0  0.29172710738E+03 -0.37355685605E+03 -0.74129071685E+03  0.88437104742E+03  0.89167217888E+02 0.  0.
         23    2    4    4    0    0 -0.52314903919E+03 -0.31675361796E+02 -0.87179899422E+03  0.10212386491E+04  0.90590542096E+02 0.  0.
          3    1    3    3  502    0  0.23603460620E+03  0.36232290942E+03  0.22463719260E+02  0.43300674902E+03  0.00000000000E+00 0. -1.
         -3    1    3    3    0  502 -0.46126743948E+01  0.42909308426E+02  0.51828804151E+01  0.43466628165E+02  0.00000000000E+00 0.  1.
         11    1    5    5    0    0  0.25552646970E+03 -0.36030345371E+03 -0.65699439850E+03  0.79167796176E+03  0.00000000000E+00 0. -1.
        -11    1    5    5    0    0  0.36200637684E+02 -0.13253402335E+02 -0.84296318350E+02  0.92693085662E+02  0.00000000000E+00 0.  1.
          4    1    6    6  503    0 -0.52254242271E+03 -0.23343933519E+02 -0.86272259169E+03  0.10089032624E+04  0.00000000000E+00 0. -1.
         -4    1    6    6    0  503 -0.60661648140E+00 -0.83314282769E+01 -0.90764025228E+01  0.12335386635E+02  0.00000000000E+00 0.  1.
<mgrwt>
<rscale>  0 0.17778329E+04</rscale>
<asrwt>0</asrwt>
<pdfrwt beam="1">  1        2 0.61279996E-01 0.17778329E+04</pdfrwt>
<pdfrwt beam="2">  1       -2 0.30519433E+00 0.17778329E+04</pdfrwt>
<totfact> 0.22364355E+00</totfact>
</mgrwt>
</event>
<event>
12    2  0.3561489E-008  0.2511761E+04  0.7818608E-02  0.8398808E-01
          2   -1    0    0  501    0  0.00000000000E+00  0.00000000000E+00  0.19676474674E+04  0.19676474674E+04  0.00000000000E+00 0. -1.
         -2   -1    0    0    0  501 -0.00000000000E+00 -0.00000000000E+00 -0.80158426947E+03  0.80158426947E+03  0.00000000000E+00 0.  1.
         23    2    1    2    0    0  0.10740166821E+03 -0.64165843144E+03  0.14882509642E+04  0.16270172469E+04  0.95044875021E+02 0.  0.
        254    2    1    2    0    0 -0.10740166821E+03  0.64165843144E+03 -0.32218776636E+03  0.11422144899E+04  0.88180968648E+03 0.  0.
         23    2    4    4    0    0 -0.40388024015E+03  0.65353511946E+02 -0.23882223658E+03  0.48238073474E+03  0.90910850042E+02 0.  0.
         23    2    4    4    0    0  0.29647857194E+03  0.57630491949E+03 -0.83365529778E+02  0.65983375516E+03  0.91672618802E+02 0.  0.
          1    1    3    3  502    0  0.71031952299E+02 -0.20734388512E+03  0.56652499126E+03  0.60744348763E+03  0.00000000000E+00 0. -1.
         -1    1    3    3    0  502  0.36369715911E+02 -0.43431454632E+03  0.92172597299E+03  0.10195737593E+04  0.00000000000E+00 0.  1.
         11    1    5    5    0    0 -0.19164042693E+03 -0.14444106009E+02 -0.10246454855E+03  0.21779272059E+03  0.00000000000E+00 0. -1.
        -11    1    5    5    0    0 -0.21223981322E+03  0.79797617955E+02 -0.13635768803E+03  0.26458801415E+03  0.00000000000E+00 0.  1.
          1    1    6    6  503    0  0.26023844162E+03  0.42916509404E+03 -0.47763197734E+02  0.50417065315E+03  0.00000000000E+00 0.  1.
         -1    1    6    6    0  503  0.36240130323E+02  0.14713982545E+03 -0.35602332045E+02  0.15566310201E+03  0.00000000000E+00 0. -1.
<mgrwt>
<rscale>  0 0.25117605E+04</rscale>
<asrwt>0</asrwt>
<pdfrwt beam="1">  1        2 0.30271499E+00 0.25117605E+04</pdfrwt>
<pdfrwt beam="2">  1       -2 0.12332066E+00 0.25117605E+04</pdfrwt>
<totfact> 0.30779081E+00</totfact>
</mgrwt>
</event>
<event>
12    2  0.3561489E-008  0.1292628E+04  0.7818608E-02  0.9035432E-01
          1   -1    0    0  501    0  0.00000000000E+00  0.00000000000E+00  0.15360186113E+04  0.15360186113E+04  0.00000000000E+00 0. -1.
         -1   -1    0    0    0  501 -0.00000000000E+00 -0.00000000000E+00 -0.27195088563E+03  0.27195088563E+03  0.00000000000E+00 0.  1.
         23    2    1    2    0    0 -0.63810052111E+02 -0.29057769602E+03  0.15809997039E+03  0.34903670604E+03  0.91235417207E+02 0.  0.
        254    2    1    2    0    0  0.63810052111E+02  0.29057769602E+03  0.11059677552E+04  0.14589327908E+04  0.90377712540E+03 0.  0.
         23    2    4    4    0    0 -0.11799620316E+03  0.13602838310E+02 -0.11600560291E+03  0.18957432069E+03  0.91503999839E+02 0.  0.
         23    2    4    4    0    0  0.18180625527E+03  0.27697485771E+03  0.12219733581E+04  0.12693584702E+04  0.91013468587E+02 0.  0.
          3    1    3    3  502    0 -0.35785444558E+02 -0.19824573346E+03  0.15198515956E+03  0.25235185278E+03  0.00000000000E+00 0.  1.
         -3    1    3    3    0  502 -0.28024607554E+02 -0.92331962561E+02  0.61148108379E+01  0.96684853263E+02  0.00000000000E+00 0. -1.
         11    1    5    5    0    0  0.34585367603E+01  0.20885572431E+02 -0.42343585932E+02  0.47340763427E+02  0.00000000000E+00 0.  1.
        -11    1    5    5    0    0 -0.12145473992E+03 -0.72827341214E+01 -0.73662016982E+02  0.14223355726E+03  0.00000000000E+00 0. -1.
          2    1    6    6  503    0  0.36736821261E+02  0.74775396266E+01  0.13908833786E+03  0.14405232856E+03  0.00000000000E+00 0.  1.
         -2    1    6    6    0  503  0.14506943401E+03  0.26949731808E+03  0.10828850203E+04  0.11253061416E+04  0.00000000000E+00 0. -1.
<mgrwt>
<rscale>  0 0.12926277E+04</rscale>
<asrwt>0</asrwt>
<pdfrwt beam="1">  1        1 0.23631055E+00 0.12926277E+04</pdfrwt>
<pdfrwt beam="2">  1       -1 0.41838599E-01 0.12926277E+04</pdfrwt>
<totfact> 0.34044029E+01</totfact>
</mgrwt>
</event>
<event>
12    2  0.3561489E-008  0.1394822E+04  0.7818608E-02  0.8957575E-01
         -2   -1    0    0    0  501 -0.00000000000E+00  0.00000000000E+00  0.97879294219E+03  0.97879294219E+03  0.00000000000E+00 0.  1.
          2   -1    0    0  501    0  0.00000000000E+00 -0.00000000000E+00 -0.49692037122E+03  0.49692037122E+03  0.00000000000E+00 0. -1.
         23    2    1    2    0    0  0.84751342093E+01  0.38587204235E+03  0.43452141552E+02  0.39883533934E+03  0.90622725240E+02 0.  0.
        254    2    1    2    0    0 -0.84751342093E+01 -0.38587204235E+03  0.43842042942E+03  0.10768779741E+04  0.90470140773E+03 0.  0.
         23    2    4    4    0    0 -0.45207951224E+02 -0.56457093868E+03  0.59110641497E+03  0.82370519954E+03  0.91100813841E+02 0.  0.
         23    2    4    4    0    0  0.36732817015E+02  0.17869889633E+03 -0.15268598554E+03  0.25317277453E+03  0.86607437256E+02 0.  0.
          3    1    3    3  502    0 -0.32868790557E+02  0.29228979190E+03  0.34035475598E+02  0.29609473728E+03  0.00000000000E+00 0. -1.
         -3    1    3    3    0  502  0.41343924766E+02  0.93582250449E+02  0.94166659548E+01  0.10274060206E+03  0.00000000000E+00 0.  1.
         11    1    5    5    0    0 -0.19126120314E+02 -0.51886058955E+03  0.55423588760E+03  0.75944686382E+03  0.00000000000E+00 0.  1.
        -11    1    5    5    0    0 -0.26081830910E+02 -0.45710349129E+02  0.36870527368E+02  0.64258335720E+02  0.00000000000E+00 0. -1.
          1    1    6    6  503    0  0.60086541813E+02  0.12985002447E+03 -0.84731762167E+02  0.16628557629E+03  0.00000000000E+00 0. -1.
         -1    1    6    6    0  503 -0.23353724798E+02  0.48848871859E+02 -0.67954223378E+02  0.86887198244E+02  0.00000000000E+00 0.  1.
<mgrwt>
<rscale>  0 0.13948221E+04</rscale>
<asrwt>0</asrwt>
<pdfrwt beam="1">  1        2 0.76449288E-01 0.13948221E+04</pdfrwt>
<pdfrwt beam="2">  1       -2 0.15058353E+00 0.13948221E+04</pdfrwt>
<totfact> 0.17892501E+01</totfact>
</mgrwt>
</event>
<event>
12    2  0.3561489E-008  0.1391210E+04  0.7818608E-02  0.8960206E-01
          2   -1    0    0  501    0  0.00000000000E+00  0.00000000000E+00  0.97676055590E+03  0.97676055590E+03  0.00000000000E+00 0. -1.
         -2   -1    0    0    0  501 -0.00000000000E+00 -0.00000000000E+00 -0.49537861145E+03  0.49537861145E+03  0.00000000000E+00 0.  1.
         23    2    1    2    0    0 -0.15807888081E+03  0.10101562736E+03 -0.23441002202E+03  0.31412499645E+03  0.92376216866E+02 0.  0.
        254    2    1    2    0    0  0.15807888081E+03 -0.10101562736E+03  0.71579196646E+03  0.11580141709E+04  0.89075562935E+03 0.  0.
         23    2    4    4    0    0  0.91664535144E+02 -0.36269155670E+03 -0.26549851777E+01  0.38512840671E+03  0.91483814968E+02 0.  0.
         23    2    4    4    0    0  0.66414345662E+02  0.26167592935E+03  0.71844695164E+03  0.77288576419E+03  0.91111057806E+02 0.  0.
          4    1    3    3  502    0 -0.35141004791E+02  0.50310798059E+02 -0.25446728984E+02  0.66434950403E+02  0.00000000000E+00 0. -1.
         -4    1    3    3    0  502 -0.12293787602E+03  0.50704829297E+02 -0.20896329304E+03  0.24769004604E+03  0.00000000000E+00 0.  1.
         11    1    5    5    0    0  0.85097199275E+02 -0.33418682915E+03  0.23822770685E+02  0.34567310353E+03  0.00000000000E+00 0.  1.
        -11    1    5    5    0    0  0.65673358690E+01 -0.28504727551E+02 -0.26477755863E+02  0.39455303176E+02  0.00000000000E+00 0. -1.
          4    1    6    6  503    0  0.14217219487E+02  0.15770561811E+03  0.30868373182E+03  0.34692771236E+03  0.00000000000E+00 0.  1.
         -4    1    6    6    0  503  0.52197126175E+02  0.10397031124E+03  0.40976321982E+03  0.42595805183E+03  0.00000000000E+00 0. -1.
<mgrwt>
<rscale>  0 0.13912100E+04</rscale>
<asrwt>0</asrwt>
<pdfrwt beam="1">  1        2 0.15027085E+00 0.13912100E+04</pdfrwt>
<pdfrwt beam="2">  1       -2 0.76212094E-01 0.13912100E+04</pdfrwt>
<totfact> 0.39143147E+01</totfact>
</mgrwt>
</event>
<event>
12    2  0.3561489E-008  0.3349069E+04  0.7818608E-02  0.8150521E-01
          2   -1    0    0  501    0  0.00000000000E+00  0.00000000000E+00  0.15043899691E+04  0.15043899691E+04  0.00000000000E+00 0. -1.
         -2   -1    0    0    0  501 -0.00000000000E+00 -0.00000000000E+00 -0.18639218979E+04  0.18639218979E+04  0.00000000000E+00 0.  1.
         23    2    1    2    0    0 -0.11604641514E+04 -0.33422049359E+03 -0.11487951178E+04  0.16692414186E+04  0.90864215216E+02 0.  0.
        254    2    1    2    0    0  0.11604641514E+04  0.33422049359E+03  0.78926318903E+03  0.16990704484E+04  0.89750967789E+03 0.  0.
         23    2    4    4    0    0  0.33483872271E+03  0.53154450163E+03  0.45982142566E+03  0.78381654939E+03  0.90973139747E+02 0.  0.
         23    2    4    4    0    0  0.82562542872E+03 -0.19732400805E+03  0.32944176337E+03  0.91525389899E+03  0.92540323438E+02 0.  0.
          1    1    3    3  502    0 -0.11014842073E+04 -0.33337499343E+03 -0.11080202589E+04  0.15975341121E+04  0.00000000000E+00 0. -1.
         -1    1    3    3    0  502 -0.58979944141E+02 -0.84550015800E+00 -0.40774858945E+02  0.71707306485E+02  0.00000000000E+00 0.  1.
         11    1    5    5    0    0  0.32219082691E+03  0.47232370652E+03  0.43479777338E+03  0.71829361436E+03  0.00000000000E+00 0.  1.
        -11    1    5    5    0    0  0.12647895797E+02  0.59220795110E+02  0.25023652281E+02  0.65522935030E+02  0.00000000000E+00 0. -1.
          1    1    6    6  503    0  0.33745615581E+03 -0.12758811410E+03  0.13681550422E+03  0.38584176310E+03  0.00000000000E+00 0. -1.
         -1    1    6    6    0  503  0.48816927291E+03 -0.69735893949E+02  0.19262625915E+03  0.52941213589E+03  0.00000000000E+00 0.  1.
<mgrwt>
<rscale>  0 0.33490688E+04</rscale>
<asrwt>0</asrwt>
<pdfrwt beam="1">  1        2 0.23144461E+00 0.33490688E+04</pdfrwt>
<pdfrwt beam="2">  1       -2 0.28675721E+00 0.33490688E+04</pdfrwt>
<totfact> 0.40208362E-01</totfact>
</mgrwt>
</event>
<event>
12    2  0.3561489E-008  0.1495058E+04  0.7818608E-02  0.8887746E-01
         -2   -1    0    0    0  501 -0.00000000000E+00  0.00000000000E+00  0.81837436691E+03  0.81837436691E+03  0.00000000000E+00 0.  1.
          2   -1    0    0  501    0  0.00000000000E+00 -0.00000000000E+00 -0.68281682096E+03  0.68281682096E+03  0.00000000000E+00 0. -1.
         23    2    1    2    0    0  0.29817715444E+03 -0.35582112952E+03 -0.43888289753E+02  0.47218361500E+03  0.74248856318E+02 0.  0.
        254    2    1    2    0    0 -0.29817715444E+03  0.35582112952E+03  0.17944583571E+03  0.10290075729E+04  0.90063171464E+03 0.  0.
         23    2    4    4    0    0  0.21116206870E+03 -0.88364808354E+02 -0.13223331656E+03  0.27938929638E+03  0.90415542405E+02 0.  0.
         23    2    4    4    0    0 -0.50933922314E+03  0.44418593787E+03  0.31167915226E+03  0.74961827649E+03  0.89755639701E+02 0.  0.
          3    1    3    3  502    0  0.21342078213E+03 -0.29048260943E+03 -0.12560302473E+02  0.36067483669E+03  0.00000000000E+00 0. -1.
         -3    1    3    3    0  502  0.84756372307E+02 -0.65338520088E+02 -0.31327987280E+02  0.11150877831E+03  0.00000000000E+00 0.  1.
         11    1    5    5    0    0  0.21679463252E+03 -0.91795484126E+02 -0.11722987194E+03  0.26300031649E+03  0.00000000000E+00 0. -1.
        -11    1    5    5    0    0 -0.56325638222E+01  0.34306757714E+01 -0.15003444617E+02  0.16388979890E+02  0.00000000000E+00 0.  1.
          1    1    6    6  503    0 -0.34228945301E+03  0.35185051860E+03  0.22349751294E+03  0.53936258247E+03  0.00000000000E+00 0. -1.
         -1    1    6    6    0  503 -0.16704977013E+03  0.92335419274E+02  0.88181639327E+02  0.21025569402E+03  0.00000000000E+00 0.  1.
<mgrwt>
<rscale>  0 0.14950582E+04</rscale>
<asrwt>0</asrwt>
<pdfrwt beam="1">  1        2 0.10504874E+00 0.14950582E+04</pdfrwt>
<pdfrwt beam="2">  1       -2 0.12590375E+00 0.14950582E+04</pdfrwt>
<totfact> 0.19238026E+01</totfact>
</mgrwt>
</event>
<event>
12    2  0.3561489E-008  0.5522191E+04  0.7818608E-02  0.7752643E-01
         -1   -1    0    0    0  501 -0.00000000000E+00  0.00000000000E+00  0.13662661834E+04  0.13662661834E+04  0.00000000000E+00 0.  1.
          1   -1    0    0  501    0  0.00000000000E+00 -0.00000000000E+00 -0.55799142012E+04  0.55799142012E+04  0.00000000000E+00 0. -1.
         23    2    1    2    0    0 -0.23127635810E+04  0.80155589894E+03 -0.65462950046E+03  0.25354930734E+04  0.93904748396E+02 0.  0.
        254    2    1    2    0    0  0.23127635810E+04 -0.80155589894E+03 -0.35590185173E+04  0.44106873113E+04  0.89229059769E+03 0.  0.
         23    2    4    4    0    0  0.91715626648E+03 -0.56547599995E+03 -0.94345674439E+03  0.14351849555E+04  0.93308650165E+02 0.  0.
         23    2    4    4    0    0  0.13956073145E+04 -0.23607989899E+03 -0.26155617729E+04  0.29755023558E+04  0.94854554538E+02 0.  0.
          2    1    3    3  502    0 -0.11137973247E+04  0.35009316097E+03 -0.27863595521E+03  0.12003115002E+04  0.00000000000E+00 0. -1.
         -2    1    3    3    0  502 -0.11989662562E+04  0.45146273797E+03 -0.37599354525E+03  0.13351815732E+04  0.00000000000E+00 0.  1.
         11    1    5    5    0    0  0.91325532064E+03 -0.56739861592E+03 -0.93183624904E+03  0.14227773069E+04  0.00000000000E+00 0. -1.
        -11    1    5    5    0    0  0.39009458442E+01  0.19226159705E+01 -0.11620495346E+02  0.12407648558E+02  0.00000000000E+00 0.  1.
          2    1    6    6  503    0  0.41136284421E+03 -0.10344296031E+03 -0.84202281444E+03  0.94282673682E+03  0.00000000000E+00 0.  1.
         -2    1    6    6    0  503  0.98424447026E+03 -0.13263693868E+03 -0.17735389585E+04  0.20326756190E+04  0.00000000000E+00 0. -1.
<mgrwt>
<rscale>  0 0.55221909E+04</rscale>
<asrwt>0</asrwt>
<pdfrwt beam="1">  1        1 0.85844835E+00 0.55221909E+04</pdfrwt>
<pdfrwt beam="2">  1       -1 0.21019479E+00 0.55221909E+04</pdfrwt>
<totfact> 0.92277248E-05</totfact>
</mgrwt>
</event>
<event>
12    2  0.3561489E-008  0.1569280E+04  0.7818608E-02  0.8839646E-01
         -2   -1    0    0    0  501 -0.00000000000E+00  0.00000000000E+00  0.10932753262E+04  0.10932753262E+04  0.00000000000E+00 0.  1.
          2   -1    0    0  501    0  0.00000000000E+00 -0.00000000000E+00 -0.56313373498E+03  0.56313373498E+03  0.00000000000E+00 0. -1.
         23    2    1    2    0    0 -0.11093378338E+03 -0.35662225183E+03  0.56809286113E+03  0.68603873790E+03  0.91836355779E+02 0.  0.
        254    2    1    2    0    0  0.11093378338E+03  0.35662225183E+03 -0.37951269904E+02  0.97037032328E+03  0.89481424364E+03 0.  0.
         23    2    4    4    0    0 -0.18552279599E+03  0.52004546705E+03 -0.18821790613E+03  0.58900373161E+03  0.81445810399E+02 0.  0.
         23    2    4    4    0    0  0.29645657937E+03 -0.16342321521E+03  0.15026663623E+03  0.38136659167E+03  0.90921749649E+02 0.  0.
          3    1    3    3  502    0 -0.76607957798E+02 -0.13971786388E+03  0.29809039676E+03  0.33800554038E+03  0.00000000000E+00 0. -1.
         -3    1    3    3    0  502 -0.34325825582E+02 -0.21690438796E+03  0.27000246436E+03  0.34803319752E+03  0.00000000000E+00 0.  1.
         11    1    5    5    0    0 -0.81742687831E+02  0.30642724231E+03 -0.13997995897E+03  0.34666108919E+03  0.00000000000E+00 0.  1.
        -11    1    5    5    0    0 -0.10378010816E+03  0.21361822474E+03 -0.48237947166E+02  0.24234264242E+03  0.00000000000E+00 0. -1.
          3    1    6    6  503    0  0.21060212196E+03 -0.66753062642E+02  0.87201884127E+02  0.23751503898E+03  0.00000000000E+00 0. -1.
         -3    1    6    6    0  503  0.85854457413E+02 -0.96670152571E+02  0.63064752104E+02  0.14385155270E+03  0.00000000000E+00 0.  1.
<mgrwt>
<rscale>  0 0.15692804E+04</rscale>
<asrwt>0</asrwt>
<pdfrwt beam="1">  1        2 0.86635959E-01 0.15692804E+04</pdfrwt>
<pdfrwt beam="2">  1       -2 0.16819620E+00 0.15692804E+04</pdfrwt>
<totfact> 0.11284888E+01</totfact>
</mgrwt>
</event>
<event>
12    2  0.3561489E-008  0.1102531E+04  0.7818608E-02  0.9202728E-01
         -2   -1    0    0    0  501 -0.00000000000E+00  0.00000000000E+00  0.29568803512E+03  0.29568803512E+03  0.00000000000E+00 0.  1.
          2   -1    0    0  501    0  0.00000000000E+00 -0.00000000000E+00 -0.10277513637E+04  0.10277513637E+04  0.00000000000E+00 0. -1.
         23    2    1    2    0    0  0.15239738896E+03  0.21747681667E+02 -0.10646134904E+03  0.20720892497E+03  0.88902159310E+02 0.  0.
        254    2    1    2    0    0 -0.15239738896E+03 -0.21747681667E+02 -0.62560197958E+03  0.11162304739E+04  0.91153426055E+03 0.  0.
         23    2    4    4    0    0 -0.14553650106E+03 -0.18847985467E+03  0.16425283356E+03  0.30366660504E+03  0.92351962232E+02 0.  0.
         23    2    4    4    0    0 -0.68608878926E+01  0.16673217300E+03 -0.78985481314E+03  0.81256386884E+03  0.92426867313E+02 0.  0.
          2    1    3    3  502    0  0.82197473203E+02  0.22049788193E+02 -0.10736424808E+03  0.13700255299E+03  0.00000000000E+00 0. -1.
         -2    1    3    3    0  502  0.70199915753E+02 -0.30210652565E+00  0.90289903865E+00  0.70206371981E+02  0.00000000000E+00 0.  1.
         11    1    5    5    0    0 -0.18213253555E+02 -0.55199034414E+02  0.85124333725E+02  0.10307671026E+03  0.00000000000E+00 0.  1.
        -11    1    5    5    0    0 -0.12732324751E+03 -0.13328082026E+03  0.79128499834E+02  0.20058989479E+03  0.00000000000E+00 0. -1.
          3    1    6    6  503    0 -0.17199491631E+02  0.92886262105E+02 -0.61871833969E+03  0.62588822011E+03  0.00000000000E+00 0. -1.
         -3    1    6    6    0  503  0.10338603738E+02  0.73845910900E+02 -0.17113647345E+03  0.18667564873E+03  0.00000000000E+00 0.  1.
<mgrwt>
<rscale>  0 0.11025312E+04</rscale>
<asrwt>0</asrwt>
<pdfrwt beam="1">  1        2 0.15811559E+00 0.11025312E+04</pdfrwt>
<pdfrwt beam="2">  1       -2 0.45490468E-01 0.11025312E+04</pdfrwt>
<totfact> 0.10994725E+02</totfact>
</mgrwt>
</event>
<event>
12    2  0.3561489E-008  0.3695115E+04  0.7818608E-02  0.8069045E-01
          3   -1    0    0  501    0  0.00000000000E+00  0.00000000000E+00  0.10612398665E+04  0.10612398665E+04  0.00000000000E+00 0. -1.
         -3   -1    0    0    0  501 -0.00000000000E+00 -0.00000000000E+00 -0.32164906302E+04  0.32164906302E+04  0.00000000000E+00 0.  1.
         23    2    1    2    0    0 -0.37812302158E+03 -0.25345994045E+03  0.89896231978E+03  0.10117506060E+04  0.91033375260E+02 0.  0.
        254    2    1    2    0    0  0.37812302158E+03  0.25345994045E+03 -0.30542130834E+04  0.32659798907E+04  0.10635732823E+04 0.  0.
         23    2    4    4    0    0  0.30769400147E+02  0.34787459417E+03 -0.27818358360E+04  0.28052714851E+04  0.94731183440E+02 0.  0.
         23    2    4    4    0    0  0.34735362143E+03 -0.94414653723E+02 -0.27237724740E+03  0.46070840565E+03  0.92164011270E+02 0.  0.
          3    1    3    3  502    0 -0.13365183486E+03 -0.87757925583E+02  0.41570495343E+03  0.44539294423E+03  0.00000000000E+00 0. -1.
         -3    1    3    3    0  502 -0.24447118671E+03 -0.16570201486E+03  0.48325736635E+03  0.56635766172E+03  0.00000000000E+00 0.  1.
         11    1    5    5    0    0 -0.28616686353E+01  0.23705752645E+03 -0.21379236503E+04  0.21510281250E+04  0.00000000000E+00 0. -1.
        -11    1    5    5    0    0  0.33631068783E+02  0.11081706772E+03 -0.64391218576E+03  0.65424336011E+03  0.00000000000E+00 0.  1.
          3    1    6    6  503    0  0.34622311271E+03 -0.83029166112E+02 -0.27384676095E+03  0.44917294518E+03  0.00000000000E+00 0. -1.
         -3    1    6    6    0  503  0.11305087218E+01 -0.11385487611E+02  0.14695135494E+01  0.11535460466E+02  0.00000000000E+00 0.  1.
<mgrwt>
<rscale>  0 0.36951147E+04</rscale>
<asrwt>0</asrwt>
<pdfrwt beam="1">  1        3 0.16326767E+00 0.36951147E+04</pdfrwt>
<pdfrwt beam="2">  1       -3 0.49484471E+00 0.36951147E+04</pdfrwt>
<totfact> 0.17482205E-03</totfact>
</mgrwt>
</event>
<event>
12    2  0.3561489E-008  0.1872056E+04  0.7818608E-02  0.8668892E-01
          1   -1    0    0  501    0  0.00000000000E+00  0.00000000000E+00  0.82595168860E+03  0.82595168860E+03  0.00000000000E+00 0. -1.
         -1   -1    0    0    0  501 -0.00000000000E+00 -0.00000000000E+00 -0.10607743198E+04  0.10607743198E+04  0.00000000000E+00 0.  1.
         23    2    1    2    0    0 -0.24310100553E+03 -0.53494209477E+03  0.32685567264E+03  0.67559998061E+03  0.65875332347E+02 0.  0.
        254    2    1    2    0    0  0.24310100553E+03  0.53494209477E+03 -0.56167830380E+03  0.12111260278E+04  0.89782102588E+03 0.  0.
         23    2    4    4    0    0 -0.24334407225E+03  0.13879807532E+03  0.83995489202E+02  0.30622528550E+03  0.90760344114E+02 0.  0.
         23    2    4    4    0    0  0.48644507777E+03  0.39614401945E+03 -0.64567379300E+03  0.90490074226E+03  0.91606814907E+02 0.  0.
          3    1    3    3  502    0 -0.20499136455E+03 -0.39840929739E+03  0.26821253333E+03  0.52219669744E+03  0.00000000000E+00 0. -1.
         -3    1    3    3    0  502 -0.38109640973E+02 -0.13653279739E+03  0.58643139308E+02  0.15340328316E+03  0.00000000000E+00 0.  1.
         11    1    5    5    0    0 -0.45314345105E+02  0.29523709389E+02 -0.19501191187E+02  0.57492049416E+02  0.00000000000E+00 0. -1.
        -11    1    5    5    0    0 -0.19802972714E+03  0.10927436593E+03  0.10349668039E+03  0.24873323609E+03  0.00000000000E+00 0.  1.
          1    1    6    6  503    0  0.50995213497E+02  0.47477853283E+02 -0.11797419784E+03  0.13701302751E+03  0.00000000000E+00 0. -1.
         -1    1    6    6    0  503  0.43544986428E+03  0.34866616617E+03 -0.52769959516E+03  0.76788771475E+03  0.00000000000E+00 0.  1.
<mgrwt>
<rscale>  0 0.18720559E+04</rscale>
<asrwt>0</asrwt>
<pdfrwt beam="1">  1        1 0.12706949E+00 0.18720559E+04</pdfrwt>
<pdfrwt beam="2">  1       -1 0.16319605E+00 0.18720559E+04</pdfrwt>
<totfact> 0.54433898E+00</totfact>
</mgrwt>
</event>
<event>
12    2  0.3561489E-008  0.1914889E+04  0.7818608E-02  0.8647481E-01
         -2   -1    0    0    0  501 -0.00000000000E+00  0.00000000000E+00  0.65092489557E+03  0.65092489557E+03  0.00000000000E+00 0. -1.
          2   -1    0    0  501    0  0.00000000000E+00 -0.00000000000E+00 -0.14083033787E+04  0.14083033787E+04  0.00000000000E+00 0.  1.
         23    2    1    2    0    0 -0.72667097517E+03  0.35580725262E+02 -0.23326596480E+03  0.76948719110E+03  0.91546888380E+02 0.  0.
        254    2    1    2    0    0  0.72667097517E+03 -0.35580725262E+02 -0.52411251830E+03  0.12897410831E+04  0.92704985600E+03 0.  0.
         23    2    4    4    0    0  0.41412562600E+03 -0.32444509629E+03  0.85580571876E+02  0.54067199239E+03  0.90760753912E+02 0.  0.
         23    2    4    4    0    0  0.31254534916E+03  0.28886437103E+03 -0.60969309017E+03  0.74906909074E+03  0.90838418956E+02 0.  0.
          2    1    3    3  502    0 -0.42823122990E+03 -0.13705270709E+02 -0.10631004713E+03  0.44144268804E+03  0.00000000000E+00 0.  1.
         -2    1    3    3    0  502 -0.29843974527E+03  0.49285995971E+02 -0.12695591767E+03  0.32804450306E+03  0.00000000000E+00 0. -1.
         11    1    5    5    0    0  0.14802454852E+03 -0.69921292974E+02  0.52985257861E+01  0.16379355467E+03  0.00000000000E+00 0. -1.
        -11    1    5    5    0    0  0.26610107748E+03 -0.25452380332E+03  0.80282046090E+02  0.37687843772E+03  0.00000000000E+00 0.  1.
          1    1    6    6  503    0  0.35987210084E+02  0.59819848341E+02 -0.15247429265E+03  0.16769586597E+03  0.00000000000E+00 0. -1.
         -1    1    6    6    0  503  0.27655813908E+03  0.22904452269E+03 -0.45721879753E+03  0.58137322477E+03  0.00000000000E+00 0.  1.
<mgrwt>
<rscale>  0 0.19148887E+04</rscale>
<asrwt>0</asrwt>
<pdfrwt beam="1">  1        2 0.21666206E+00 0.19148887E+04</pdfrwt>
<pdfrwt beam="2">  1       -2 0.10014229E+00 0.19148887E+04</pdfrwt>
<totfact> 0.11023797E+01</totfact>
</mgrwt>
</event>
<event>
12    2  0.3561489E-008  0.1868297E+04  0.7818608E-02  0.8670800E-01
          2   -1    0    0  501    0  0.00000000000E+00  0.00000000000E+00  0.12744357056E+04  0.12744357056E+04  0.00000000000E+00 0.  1.
         -2   -1    0    0    0  501 -0.00000000000E+00 -0.00000000000E+00 -0.68472139809E+03  0.68472139809E+03  0.00000000000E+00 0. -1.
         23    2    1    2    0    0  0.26437942547E+03 -0.65896414879E+03  0.30703132966E+03  0.77912642830E+03  0.92949039161E+02 0.  0.
        254    2    1    2    0    0 -0.26437942547E+03  0.65896414879E+03  0.28268297787E+03  0.11800306754E+04  0.89912874437E+03 0.  0.
         23    2    4    4    0    0  0.11330226801E+03  0.34102165905E+03 -0.25085358051E+03  0.44749201166E+03  0.90489810304E+02 0.  0.
         23    2    4    4    0    0 -0.37768169349E+03  0.31794248975E+03  0.53353655838E+03  0.73253866376E+03  0.90668331842E+02 0.  0.
          4    1    3    3  502    0  0.83183972887E+02 -0.13247019656E+03  0.96840139271E+02  0.18397265801E+03  0.00000000000E+00 0. -1.
         -4    1    3    3    0  502  0.18119545258E+03 -0.52649395223E+03  0.21019119039E+03  0.59515377029E+03  0.00000000000E+00 0.  1.
         11    1    5    5    0    0  0.46012961065E+02  0.26403351653E+03 -0.17334771211E+03  0.31918696674E+03  0.00000000000E+00 0.  1.
        -11    1    5    5    0    0  0.67289306948E+02  0.76988142515E+02 -0.77505868392E+02  0.12830504492E+03  0.00000000000E+00 0. -1.
          3    1    6    6  503    0 -0.31152989188E+03  0.30103360728E+03  0.47127923877E+03  0.64013766265E+03  0.00000000000E+00 0. -1.
         -3    1    6    6    0  503 -0.66151801604E+02  0.16908882469E+02  0.62257319612E+02  0.92401001115E+02  0.00000000000E+00 0.  1.
<mgrwt>
<rscale>  0 0.18682970E+04</rscale>
<asrwt>0</asrwt>
<pdfrwt beam="1">  1        2 0.19606703E+00 0.18682970E+04</pdfrwt>
<pdfrwt beam="2">  1       -2 0.10534175E+00 0.18682970E+04</pdfrwt>
<totfact> 0.11720250E+01</totfact>
</mgrwt>
</event>
<event>
12    2  0.3561489E-008  0.1533827E+04  0.7818608E-02  0.8862265E-01
         -1   -1    0    0    0  501 -0.00000000000E+00  0.00000000000E+00  0.12962350356E+04  0.12962350356E+04  0.00000000000E+00 0.  1.
          1   -1    0    0  501    0  0.00000000000E+00 -0.00000000000E+00 -0.45374193545E+03  0.45374193545E+03  0.00000000000E+00 0. -1.
         23    2    1    2    0    0 -0.29099570169E+03  0.12427799434E+03 -0.16530156318E+03  0.36840883411E+03  0.90977711453E+02 0.  0.
        254    2    1    2    0    0  0.29099570169E+03 -0.12427799434E+03  0.10077946633E+04  0.13815681370E+04  0.89048128297E+03 0.  0.
         23    2    4    4    0    0  0.43341691187E+03 -0.32153915732E+03  0.29250350332E+03  0.62066800922E+03  0.91830436296E+02 0.  0.
         23    2    4    4    0    0 -0.14242121018E+03  0.19726116298E+03  0.71529116002E+03  0.76090012773E+03  0.90176456225E+02 0.  0.
          3    1    3    3  502    0 -0.23106588103E+03  0.11601916027E+03 -0.94509117275E+02  0.27528868515E+03  0.00000000000E+00 0. -1.
         -3    1    3    3    0  502 -0.59929820661E+02  0.82588340713E+01 -0.70792445901E+02  0.93120148954E+02  0.00000000000E+00 0.  1.
         11    1    5    5    0    0  0.29869904014E+03 -0.22295451389E+03  0.15223058408E+03  0.40262138862E+03  0.00000000000E+00 0.  1.
        -11    1    5    5    0    0  0.13471787174E+03 -0.98584643430E+02  0.14027291924E+03  0.21804662061E+03  0.00000000000E+00 0. -1.
          3    1    6    6  503    0 -0.38238414670E+02  0.35775300652E+02  0.68865155536E+02  0.86512762875E+02  0.00000000000E+00 0. -1.
         -3    1    6    6    0  503 -0.10418279551E+03  0.16148586233E+03  0.64642600448E+03  0.67438736486E+03  0.00000000000E+00 0.  1.
<mgrwt>
<rscale>  0 0.15338268E+04</rscale>
<asrwt>0</asrwt>
<pdfrwt beam="1">  1        1 0.69806452E-01 0.15338268E+04</pdfrwt>
<pdfrwt beam="2">  1       -1 0.19942077E+00 0.15338268E+04</pdfrwt>
<totfact> 0.74180361E+00</totfact>
</mgrwt>
</event>
<event>
12    2  0.3561489E-008  0.1756564E+04  0.7818608E-02  0.8729745E-01
          1   -1    0    0  501    0  0.00000000000E+00  0.00000000000E+00  0.13654681203E+04  0.13654681203E+04  0.00000000000E+00 0. -1.
         -1   -1    0    0    0  501 -0.00000000000E+00 -0.00000000000E+00 -0.56491933323E+03  0.56491933323E+03  0.00000000000E+00 0.  1.
         23    2    1    2    0    0  0.58300156648E+03  0.21838343565E+03  0.14994922992E+03  0.64643735692E+03  0.88398718214E+02 0.  0.
        254    2    1    2    0    0 -0.58300156648E+03 -0.21838343565E+03  0.65059955711E+03  0.12839500966E+04  0.91524090561E+03 0.  0.
         23    2    4    4    0    0 -0.54672815558E+03 -0.51476929852E+03  0.60522464450E+03  0.96879575430E+03  0.91483530996E+02 0.  0.
         23    2    4    4    0    0 -0.36273410899E+02  0.29638586287E+03  0.45374912613E+02  0.31515434227E+03  0.90016869022E+02 0.  0.
          3    1    3    3  502    0  0.43399662485E+03  0.17100838641E+03  0.72920945419E+02  0.47213811844E+03  0.00000000000E+00 0. -1.
         -3    1    3    3    0  502  0.14900494163E+03  0.47375049234E+02  0.77028284503E+02  0.17429923848E+03  0.00000000000E+00 0.  1.
         11    1    5    5    0    0 -0.47219363527E+03 -0.40063713917E+03  0.51389845343E+03  0.80471645125E+03  0.00000000000E+00 0. -1.
        -11    1    5    5    0    0 -0.74534520307E+02 -0.11413215935E+03  0.91326191067E+02  0.16407930305E+03  0.00000000000E+00 0.  1.
          2    1    6    6  503    0  0.21608436635E+01  0.87130184457E+02 -0.25655358389E+02  0.90854475415E+02  0.00000000000E+00 0.  1.
         -2    1    6    6    0  503 -0.38434254563E+02  0.20925567842E+03  0.71030271002E+02  0.22429986686E+03  0.00000000000E+00 0. -1.
<mgrwt>
<rscale>  0 0.17565641E+04</rscale>
<asrwt>0</asrwt>
<pdfrwt beam="1">  1        1 0.21007202E+00 0.17565641E+04</pdfrwt>
<pdfrwt beam="2">  1       -1 0.86910667E-01 0.17565641E+04</pdfrwt>
<totfact> 0.10038427E+01</totfact>
</mgrwt>
</event>
<event>
12    2  0.3561489E-008  0.3622381E+04  0.7818608E-02  0.8085384E-01
          2   -1    0    0  501    0  0.00000000000E+00  0.00000000000E+00  0.24048214727E+04  0.24048214727E+04  0.00000000000E+00 0. -1.
         -2   -1    0    0    0  501 -0.00000000000E+00 -0.00000000000E+00 -0.13640976282E+04  0.13640976282E+04  0.00000000000E+00 0.  1.
         23    2    1    2    0    0 -0.10807736406E+04  0.10006064986E+04  0.13843449438E+04  0.20234910747E+04  0.93915806921E+02 0.  0.
        254    2    1    2    0    0  0.10807736406E+04 -0.10006064986E+04 -0.34362109935E+03  0.17454280262E+04  0.87129702589E+03 0.  0.
         23    2    4    4    0    0  0.36407318553E+03 -0.81542337234E+02  0.22517182967E+03  0.44525072985E+03  0.91364229140E+02 0.  0.
         23    2    4    4    0    0  0.71670045507E+03 -0.91906416140E+03 -0.56879292902E+03  0.13001772963E+04  0.92720713628E+02 0.  0.
          3    1    3    3  502    0 -0.97811640356E+03  0.90712252151E+03  0.12138345268E+04  0.18036011827E+04  0.00000000000E+00 0. -1.
         -3    1    3    3    0  502 -0.10265723704E+03  0.93483977127E+02  0.17051041699E+03  0.21988989199E+03  0.00000000000E+00 0.  1.
         11    1    5    5    0    0  0.18659247812E+03  0.24647722087E+01  0.92529180253E+02  0.20828940730E+03  0.00000000000E+00 0. -1.
        -11    1    5    5    0    0  0.17748070741E+03 -0.84007109443E+02  0.13264264942E+03  0.23696132255E+03  0.00000000000E+00 0.  1.
          4    1    6    6  503    0  0.58762652692E+03 -0.80590171894E+03 -0.49172486895E+03  0.11120143266E+04  0.00000000000E+00 0. -1.
         -4    1    6    6    0  503  0.12907392815E+03 -0.11316244246E+03 -0.77068060067E+02  0.18816296978E+03  0.00000000000E+00 0.  1.
<mgrwt>
<rscale>  0 0.36223811E+04</rscale>
<asrwt>0</asrwt>
<pdfrwt beam="1">  1        2 0.36997253E+00 0.36223811E+04</pdfrwt>
<pdfrwt beam="2">  1       -2 0.20986117E+00 0.36223811E+04</pdfrwt>
<totfact> 0.36874911E-01</totfact>
</mgrwt>
</event>
<event>
12    2  0.3561489E-008  0.2705220E+04  0.7818608E-02  0.8333313E-01
          2   -1    0    0  501    0  0.00000000000E+00  0.00000000000E+00  0.20776198410E+04  0.20776198410E+04  0.00000000000E+00 0. -1.
         -2   -1    0    0    0  501 -0.00000000000E+00 -0.00000000000E+00 -0.88060114834E+03  0.88060114834E+03  0.00000000000E+00 0.  1.
         23    2    1    2    0    0 -0.17079093615E+03  0.90412222589E+03  0.13969282916E+04  0.16752058672E+04  0.91101605384E+02 0.  0.
        254    2    1    2    0    0  0.17079093615E+03 -0.90412222589E+03 -0.19990959894E+03  0.12830151221E+04  0.87152591046E+03 0.  0.
         23    2    4    4    0    0  0.24635269200E+03  0.82182383234E+02 -0.60582886361E+02  0.28002304275E+03  0.85434333716E+02 0.  0.
         23    2    4    4    0    0 -0.75561755852E+02 -0.98630460913E+03 -0.13932671258E+03  0.10029920794E+04  0.89859988330E+02 0.  0.
          4    1    3    3  502    0 -0.57586558715E+02  0.51118043738E+03  0.82170849965E+03  0.96944649657E+03  0.00000000000E+00 0. -1.
         -4    1    3    3    0  502 -0.11320437744E+03  0.39294178851E+03  0.57521979194E+03  0.70575937066E+03  0.00000000000E+00 0.  1.
         11    1    5    5    0    0  0.50316255254E+02  0.27608470433E+02  0.20540297848E+02  0.60957829835E+02  0.00000000000E+00 0. -1.
        -11    1    5    5    0    0  0.19603643675E+03  0.54573912801E+02 -0.81123184208E+02  0.21906521291E+03  0.00000000000E+00 0.  1.
          2    1    6    6  503    0  0.14072197299E+02 -0.22795877609E+03 -0.53364122259E+02  0.23454415336E+03  0.00000000000E+00 0. -1.
         -2    1    6    6    0  503 -0.89633953152E+02 -0.75834583304E+03 -0.85962590316E+02  0.76844792600E+03  0.00000000000E+00 0.  1.
<mgrwt>
<rscale>  0 0.27052204E+04</rscale>
<asrwt>0</asrwt>
<pdfrwt beam="1">  1        2 0.31963382E+00 0.27052204E+04</pdfrwt>
<pdfrwt beam="2">  1       -2 0.13547710E+00 0.27052204E+04</pdfrwt>
<totfact> 0.20734205E+00</totfact>
</mgrwt>
</event>
<event>
12    2  0.3561489E-008  0.1711348E+04  0.7818608E-02  0.8754918E-01
          1   -1    0    0  501    0  0.00000000000E+00  0.00000000000E+00  0.32805309396E+03  0.32805309396E+03  0.00000000000E+00 0. -1.
         -1   -1    0    0    0  501 -0.00000000000E+00 -0.00000000000E+00 -0.22318888760E+04  0.22318888760E+04  0.00000000000E+00 0.  1.
         23    2    1    2    0    0 -0.17645123103E+02  0.57119900662E+03 -0.10659185722E+04  0.12128842207E+04  0.91247326572E+02 0.  0.
        254    2    1    2    0    0  0.17645123103E+02 -0.57119900662E+03 -0.83791720985E+03  0.13470577493E+04  0.88649854705E+03 0.  0.
         23    2    4    4    0    0  0.47583593353E+02  0.22137745132E+03 -0.11337401497E+03  0.26894822364E+03  0.90594179816E+02 0.  0.
         23    2    4    4    0    0 -0.29938470250E+02 -0.79257645794E+03 -0.72454319488E+03  0.10781095257E+04  0.91014034335E+02 0.  0.
          4    1    3    3  502    0 -0.13036609781E+02  0.57062566357E+03 -0.10379732145E+04  0.11845556108E+04  0.00000000000E+00 0. -1.
         -4    1    3    3    0  502 -0.46085133222E+01  0.57334305206E+00 -0.27945357753E+02  0.28328609871E+02  0.00000000000E+00 0.  1.
         11    1    5    5    0    0  0.67356991238E+02  0.21053827367E+03 -0.99000745118E+02  0.24220750707E+03  0.00000000000E+00 0. -1.
        -11    1    5    5    0    0 -0.19773397885E+02  0.10839177652E+02 -0.14373269855E+02  0.26740716565E+02  0.00000000000E+00 0.  1.
          3    1    6    6  503    0 -0.26924237394E+02 -0.20686605081E+03 -0.23961637500E+03  0.31770188024E+03  0.00000000000E+00 0. -1.
         -3    1    6    6    0  503 -0.30142328557E+01 -0.58571040713E+03 -0.48492681988E+03  0.76040764545E+03  0.00000000000E+00 0.  1.
<mgrwt>
<rscale>  0 0.17113481E+04</rscale>
<asrwt>0</asrwt>
<pdfrwt beam="1">  1        1 0.50469707E-01 0.17113481E+04</pdfrwt>
<pdfrwt beam="2">  1       -1 0.34336752E+00 0.17113481E+04</pdfrwt>
<totfact> 0.12782804E+00</totfact>
</mgrwt>
</event>
<event>
12    2  0.3561489E-008  0.2559235E+04  0.7818608E-02  0.8382181E-01
         -1   -1    0    0    0  501 -0.00000000000E+00  0.00000000000E+00  0.11986381737E+04  0.11986381737E+04  0.00000000000E+00 0.  1.
          1   -1    0    0  501    0  0.00000000000E+00 -0.00000000000E+00 -0.13660679756E+04  0.13660679756E+04  0.00000000000E+00 0. -1.
         23    2    1    2    0    0 -0.20653723227E+03 -0.46380529369E+03 -0.10725997374E+04  0.11900018095E+04  0.88663020124E+02 0.  0.
        254    2    1    2    0    0  0.20653723227E+03  0.46380529369E+03  0.90516993558E+03  0.13747043398E+04  0.90150231883E+03 0.  0.
         23    2    4    4    0    0 -0.22455625220E+03  0.52861206785E+03  0.59250033172E+03  0.83037367555E+03  0.92776986835E+02 0.  0.
         23    2    4    4    0    0  0.43109348447E+03 -0.64806774160E+02  0.31266960386E+03  0.54433066426E+03  0.92152485309E+02 0.  0.
          4    1    3    3  502    0  0.84372673866E+01 -0.12401045344E+02 -0.40169004122E+02  0.42877993175E+02  0.00000000000E+00 0.  1.
         -4    1    3    3    0  502 -0.21497449966E+03 -0.45140424835E+03 -0.10324307333E+04  0.11471238163E+04  0.00000000000E+00 0. -1.
         11    1    5    5    0    0 -0.18580114345E+03  0.50046587246E+03  0.54623053743E+03  0.76377742466E+03  0.00000000000E+00 0.  1.
        -11    1    5    5    0    0 -0.38755108747E+02  0.28146195389E+02  0.46269794290E+02  0.66596250889E+02  0.00000000000E+00 0. -1.
          4    1    6    6  503    0  0.30730690492E+01 -0.48284503630E+01 -0.52714657132E+01  0.77811334043E+01  0.00000000000E+00 0. -1.
         -4    1    6    6    0  503  0.42802041542E+03 -0.59978323797E+02  0.31794106958E+03  0.53654953086E+03  0.00000000000E+00 0.  1.
<mgrwt>
<rscale>  0 0.25592352E+04</rscale>
<asrwt>0</asrwt>
<pdfrwt beam="1">  1        1 0.21016430E+00 0.25592352E+04</pdfrwt>
<pdfrwt beam="2">  1       -1 0.18440587E+00 0.25592352E+04</pdfrwt>
<totfact> 0.13887943E+00</totfact>
</mgrwt>
</event>
<event>
12    2  0.3561489E-008  0.2039681E+04  0.7818608E-02  0.8588290E-01
         -1   -1    0    0    0  501 -0.00000000000E+00  0.00000000000E+00  0.87468218181E+03  0.87468218181E+03  0.00000000000E+00 0.  1.
          1   -1    0    0  501    0  0.00000000000E+00 -0.00000000000E+00 -0.11890887287E+04  0.11890887287E+04  0.00000000000E+00 0. -1.
         23    2    1    2    0    0  0.28706788399E+03 -0.49629905942E+02  0.64797976759E+03  0.71565568227E+03  0.86105625702E+02 0.  0.
        254    2    1    2    0    0 -0.28706788399E+03  0.49629905942E+02 -0.96238631446E+03  0.13481152282E+04  0.89797335859E+03 0.  0.
         23    2    4    4    0    0 -0.39034027195E+03  0.38604606741E+03 -0.71834401711E+03  0.90875483610E+03  0.91761272546E+02 0.  0.
         23    2    4    4    0    0  0.10327238795E+03 -0.33641616147E+03 -0.24404229735E+03  0.43936039214E+03  0.98182948971E+02 0.  0.
          4    1    3    3  502    0  0.15112803892E+03 -0.60871136895E+01  0.24269142018E+03  0.28596479247E+03  0.00000000000E+00 0. -1.
         -4    1    3    3    0  502  0.13593984507E+03 -0.43542792252E+02  0.40528834741E+03  0.42969088980E+03  0.00000000000E+00 0.  1.
         11    1    5    5    0    0 -0.20056277485E+02  0.59860860391E+02 -0.79272461397E+02  0.10133952836E+03  0.00000000000E+00 0.  1.
        -11    1    5    5    0    0 -0.37028399446E+03  0.32618520702E+03 -0.63907155571E+03  0.80741530773E+03  0.00000000000E+00 0. -1.
          2    1    6    6  503    0  0.11288654060E+03 -0.25996136635E+03 -0.21955065936E+03  0.35850491638E+03  0.00000000000E+00 0. -1.
         -2    1    6    6    0  503 -0.96141526476E+01 -0.76454795119E+02 -0.24491637989E+02  0.80855475752E+02  0.00000000000E+00 0.  1.
<mgrwt>
<rscale>  0 0.20396811E+04</rscale>
<asrwt>0</asrwt>
<pdfrwt beam="1">  1        1 0.18293673E+00 0.20396811E+04</pdfrwt>
<pdfrwt beam="2">  1       -1 0.13456649E+00 0.20396811E+04</pdfrwt>
<totfact> 0.46740228E+00</totfact>
</mgrwt>
</event>
<event>
12    2  0.3561489E-008  0.1466876E+04  0.7818608E-02  0.8906784E-01
         -1   -1    0    0    0  501 -0.00000000000E+00  0.00000000000E+00  0.26682572126E+03  0.26682572126E+03  0.00000000000E+00 0.  1.
          1   -1    0    0  501    0  0.00000000000E+00 -0.00000000000E+00 -0.20160403922E+04  0.20160403922E+04  0.00000000000E+00 0. -1.
         23    2    1    2    0    0 -0.11655932589E+03 -0.86110909365E+02  0.11672647529E+03  0.20685793264E+03  0.90354684973E+02 0.  0.
        254    2    1    2    0    0  0.11655932589E+03  0.86110909365E+02 -0.18659411462E+04  0.20760081808E+04  0.89837210583E+03 0.  0.
         23    2    4    4    0    0  0.24270226401E+02 -0.15372000684E+03  0.92929285868E+01  0.18102024368E+03  0.91995030894E+02 0.  0.
         23    2    4    4    0    0  0.92289099494E+02  0.23983091620E+03 -0.18752340748E+04  0.18949879372E+04  0.91871107283E+02 0.  0.
          4    1    3    3  502    0 -0.81196583875E+02 -0.14814081197E+02  0.91827071666E+02  0.12346883544E+03  0.00000000000E+00 0.  1.
         -4    1    3    3    0  502 -0.35362742020E+02 -0.71296828169E+02  0.24899403621E+02  0.83389097194E+02  0.00000000000E+00 0. -1.
         11    1    5    5    0    0 -0.33445216419E+02 -0.55360306814E+02 -0.97154643597E+01  0.65404405965E+02  0.00000000000E+00 0.  1.
        -11    1    5    5    0    0  0.57715442820E+02 -0.98359700023E+02  0.19008392946E+02  0.11561583772E+03  0.00000000000E+00 0. -1.
          1    1    6    6  503    0 -0.65896921320E+01  0.98076287142E+02 -0.78692289239E+03  0.79303847367E+03  0.00000000000E+00 0. -1.
         -1    1    6    6    0  503  0.98878791626E+02  0.14175462906E+03 -0.10883111824E+04  0.11019494635E+04  0.00000000000E+00 0.  1.
<mgrwt>
<rscale>  0 0.14668762E+04</rscale>
<asrwt>0</asrwt>
<pdfrwt beam="1">  1        1 0.31016005E+00 0.14668762E+04</pdfrwt>
<pdfrwt beam="2">  1       -1 0.41050112E-01 0.14668762E+04</pdfrwt>
<totfact> 0.16383344E+01</totfact>
</mgrwt>
</event>
<event>
12    2  0.3561489E-008  0.1388240E+04  0.7818608E-02  0.8962375E-01
         -2   -1    0    0    0  501 -0.00000000000E+00  0.00000000000E+00  0.80727802920E+03  0.80727802920E+03  0.00000000000E+00 0.  1.
          2   -1    0    0  501    0  0.00000000000E+00 -0.00000000000E+00 -0.59682359033E+03  0.59682359033E+03  0.00000000000E+00 0. -1.
         23    2    1    2    0    0 -0.38417635590E+03  0.38274326748E+02  0.13001440229E+03  0.41753721363E+03  0.91526954761E+02 0.  0.
        254    2    1    2    0    0  0.38417635590E+03 -0.38274326748E+02  0.80440036588E+02  0.98656440590E+03  0.90431318191E+03 0.  0.
         23    2    4    4    0    0 -0.36645416500E+01  0.29918970292E+03  0.28882736895E+03  0.42438014262E+03  0.84553824257E+02 0.  0.
         23    2    4    4    0    0  0.38784089755E+03 -0.33746402967E+03 -0.20838733236E+03  0.56218426328E+03  0.91232299417E+02 0.  0.
          2    1    3    3  502    0 -0.71412073468E+02 -0.55016056044E+01  0.61439135892E+02  0.94364820353E+02  0.00000000000E+00 0. -1.
         -2    1    3    3    0  502 -0.31276428243E+03  0.43775932353E+02  0.68575266396E+02  0.32317239328E+03  0.00000000000E+00 0.  1.
         11    1    5    5    0    0  0.56105688117E+01  0.72287850207E+02  0.12448510321E+03  0.14406093395E+03  0.00000000000E+00 0.  1.
        -11    1    5    5    0    0 -0.92751104617E+01  0.22690185272E+03  0.16434226573E+03  0.28031920866E+03  0.00000000000E+00 0. -1.
          2    1    6    6  503    0  0.16700557664E+03 -0.17042356574E+03 -0.52117510741E+02  0.24423613434E+03  0.00000000000E+00 0. -1.
         -2    1    6    6    0  503  0.22083532090E+03 -0.16704046393E+03 -0.15626982162E+03  0.31794812894E+03  0.00000000000E+00 0.  1.
<mgrwt>
<rscale>  0 0.13882400E+04</rscale>
<asrwt>0</asrwt>
<pdfrwt beam="1">  1        2 0.91819014E-01 0.13882400E+04</pdfrwt>
<pdfrwt beam="2">  1       -2 0.12419662E+00 0.13882400E+04</pdfrwt>
<totfact> 0.23688074E+01</totfact>
</mgrwt>
</event>
<event>
12    2  0.3561489E-008  0.1431765E+04  0.7818608E-02  0.8931141E-01
          1   -1    0    0  501    0  0.00000000000E+00  0.00000000000E+00  0.21727812928E+04  0.21727812928E+04  0.00000000000E+00 0. -1.
         -1   -1    0    0    0  501 -0.00000000000E+00 -0.00000000000E+00 -0.23586705839E+03  0.23586705839E+03  0.00000000000E+00 0.  1.
         23    2    1    2    0    0  0.34025257939E+01 -0.41511233859E+02 -0.12239162715E+03  0.15728526354E+03  0.89577809814E+02 0.  0.
        254    2    1    2    0    0 -0.34025257939E+01  0.41511233859E+02  0.20593058616E+04  0.22513630877E+04  0.90893363966E+03 0.  0.
         23    2    4    4    0    0  0.23640826706E+03 -0.32727400360E+02  0.10005807271E+03  0.27380596158E+03  0.89432294025E+02 0.  0.
         23    2    4    4    0    0 -0.23981079285E+03  0.74238634220E+02  0.19592477889E+04  0.19775571261E+04  0.95182443885E+02 0.  0.
          2    1    3    3  502    0 -0.38381678186E+02 -0.41281131657E+02 -0.61365457756E+02  0.83324692960E+02  0.00000000000E+00 0. -1.
         -2    1    3    3    0  502  0.41784203979E+02 -0.23010220272E+00 -0.61026169393E+02  0.73960570577E+02  0.00000000000E+00 0.  1.
         11    1    5    5    0    0  0.16684062432E+03  0.17796172844E+02  0.53966769276E+02  0.17625240389E+03  0.00000000000E+00 0.  1.
        -11    1    5    5    0    0  0.69567642741E+02 -0.50523573204E+02  0.46091303439E+02  0.97553557693E+02  0.00000000000E+00 0. -1.
          1    1    6    6  503    0 -0.18955014827E+02  0.30831917049E+02  0.47058687979E+03  0.47197660019E+03  0.00000000000E+00 0. -1.
         -1    1    6    6    0  503 -0.22085577803E+03  0.43406717171E+02  0.14886609091E+04  0.15055805259E+04  0.00000000000E+00 0.  1.
<mgrwt>
<rscale>  0 0.14317647E+04</rscale>
<asrwt>0</asrwt>
<pdfrwt beam="1">  1        1 0.33427403E+00 0.14317647E+04</pdfrwt>
<pdfrwt beam="2">  1       -1 0.36287241E-01 0.14317647E+04</pdfrwt>
<totfact> 0.16103915E+01</totfact>
</mgrwt>
</event>
<event>
12    2  0.3561489E-008  0.2690634E+04  0.7818608E-02  0.8338050E-01
          2   -1    0    0  501    0  0.00000000000E+00  0.00000000000E+00  0.24683021096E+04  0.24683021096E+04  0.00000000000E+00 0.  1.
         -2   -1    0    0    0  501 -0.00000000000E+00 -0.00000000000E+00 -0.73324823361E+03  0.73324823361E+03  0.00000000000E+00 0. -1.
         23    2    1    2    0    0 -0.60104744382E+03  0.73717842935E+03  0.16329666101E+04  0.18920471967E+04  0.92588220447E+02 0.  0.
        254    2    1    2    0    0  0.60104744382E+03 -0.73717842935E+03  0.10208726597E+03  0.13095031466E+04  0.89425198604E+03 0.  0.
         23    2    4    4    0    0  0.40480844334E+03 -0.30794583254E+01 -0.23044980439E+03  0.47540370359E+03  0.94985315657E+02 0.  0.
         23    2    4    4    0    0  0.19623900048E+03 -0.73409897103E+03  0.33253707036E+03  0.83409944296E+03  0.87920037542E+02 0.  0.
          2    1    3    3  502    0 -0.10361855124E+03  0.18665594174E+03  0.34911462574E+03  0.40921665002E+03  0.00000000000E+00 0. -1.
         -2    1    3    3    0  502 -0.49742889258E+03  0.55052248761E+03  0.12838519843E+04  0.14828305467E+04  0.00000000000E+00 0.  1.
         11    1    5    5    0    0  0.98048298831E+01 -0.79314445673E+01  0.70744176745E+01  0.14459940781E+02  0.00000000000E+00 0. -1.
        -11    1    5    5    0    0  0.39500361345E+03  0.48519862419E+01 -0.23752422206E+03  0.46094376281E+03  0.00000000000E+00 0.  1.
          2    1    6    6  503    0  0.64267272247E+02 -0.19011022366E+03  0.12854990091E+03  0.23832174984E+03  0.00000000000E+00 0. -1.
         -2    1    6    6    0  503  0.13197172823E+03 -0.54398874737E+03  0.20398716945E+03  0.59577769312E+03  0.00000000000E+00 0.  1.
<mgrwt>
<rscale>  0 0.26906342E+04</rscale>
<asrwt>0</asrwt>
<pdfrwt beam="1">  1        2 0.37973878E+00 0.26906342E+04</pdfrwt>
<pdfrwt beam="2">  1       -2 0.11280742E+00 0.26906342E+04</pdfrwt>
<totfact> 0.19698801E+00</totfact>
</mgrwt>
</event>
<event>
12    2  0.3561489E-008  0.2143139E+04  0.7818608E-02  0.8542475E-01
          2   -1    0    0  501    0  0.00000000000E+00  0.00000000000E+00  0.11301254039E+04  0.11301254039E+04  0.00000000000E+00 0. -1.
         -2   -1    0    0    0  501 -0.00000000000E+00 -0.00000000000E+00 -0.10160472410E+04  0.10160472410E+04  0.00000000000E+00 0.  1.
         23    2    1    2    0    0 -0.40064043628E+03 -0.75379003223E+03  0.16108818089E+03  0.87349514614E+03  0.91280865616E+02 0.  0.
        254    2    1    2    0    0  0.40064043628E+03  0.75379003223E+03 -0.47010018022E+02  0.12726774988E+04  0.94275442307E+03 0.  0.
         23    2    4    4    0    0  0.12392564755E+03  0.25938714031E+03  0.43090198784E+03  0.52586398534E+03  0.90648515061E+02 0.  0.
         23    2    4    4    0    0  0.27671478873E+03  0.49440289193E+03 -0.47791200586E+03  0.74681351343E+03  0.91242778623E+02 0.  0.
          4    1    3    3  502    0 -0.13264378708E+03 -0.28525050576E+03  0.18078399282E+02  0.31510165631E+03  0.00000000000E+00 0. -1.
         -4    1    3    3    0  502 -0.26799664920E+03 -0.46853952648E+03  0.14300978160E+03  0.55839348983E+03  0.00000000000E+00 0.  1.
         11    1    5    5    0    0  0.80009949245E+02  0.24074476135E+03  0.36505307884E+03  0.44454851531E+03  0.00000000000E+00 0. -1.
        -11    1    5    5    0    0  0.43915698301E+02  0.18642378960E+02  0.65848908995E+02  0.81315470031E+02  0.00000000000E+00 0.  1.
          2    1    6    6  503    0  0.21478083115E+03  0.44456011742E+03 -0.42352821434E+03  0.65049262239E+03  0.00000000000E+00 0. -1.
         -2    1    6    6    0  503  0.61933957585E+02  0.49842774501E+02 -0.54383791513E+02  0.96320891044E+02  0.00000000000E+00 0.  1.
<mgrwt>
<rscale>  0 0.21431386E+04</rscale>
<asrwt>0</asrwt>
<pdfrwt beam="1">  1        2 0.17386545E+00 0.21431386E+04</pdfrwt>
<pdfrwt beam="2">  1       -2 0.15631496E+00 0.21431386E+04</pdfrwt>
<totfact> 0.51444154E+00</totfact>
</mgrwt>
</event>
<event>
12    2  0.3561489E-008  0.4097553E+04  0.7818608E-02  0.7985151E-01
          2   -1    0    0  501    0  0.00000000000E+00  0.00000000000E+00  0.23627238447E+04  0.23627238447E+04  0.00000000000E+00 0. -1.
         -2   -1    0    0    0  501 -0.00000000000E+00 -0.00000000000E+00 -0.17765452528E+04  0.17765452528E+04  0.00000000000E+00 0.  1.
         23    2    1    2    0    0  0.20084478175E+03 -0.48711310441E+02  0.22495922957E+04  0.22609001597E+04  0.91063807688E+02 0.  0.
        254    2    1    2    0    0 -0.20084478175E+03  0.48711310441E+02 -0.16634137038E+04  0.18783689378E+04  0.84771062190E+03 0.  0.
         23    2    4    4    0    0 -0.12746023349E+03  0.27483055023E+03 -0.16160361265E+03  0.35503133285E+03  0.90297160627E+02 0.  0.
         23    2    4    4    0    0 -0.73384548257E+02 -0.22611923979E+03 -0.15018100911E+04  0.15233376050E+04  0.92783114527E+02 0.  0.
          3    1    3    3  502    0  0.14518211772E+03  0.32236162484E+01  0.16756867575E+04  0.16819674041E+04  0.00000000000E+00 0. -1.
         -3    1    3    3    0  502  0.55662664026E+02 -0.51934926690E+02  0.57390553822E+03  0.57893275566E+03  0.00000000000E+00 0.  1.
         11    1    5    5    0    0  0.13257790689E+02  0.40217067793E+02 -0.17480354325E+02  0.45812054562E+02  0.00000000000E+00 0. -1.
        -11    1    5    5    0    0 -0.14071802418E+03  0.23461348244E+03 -0.14412325833E+03  0.30921927829E+03  0.00000000000E+00 0.  1.
          2    1    6    6  503    0  0.55731391112E+01 -0.10619578682E+02 -0.27392422122E+03  0.27418664137E+03  0.00000000000E+00 0. -1.
         -2    1    6    6    0  503 -0.78957687368E+02 -0.21549966111E+03 -0.12278858699E+04  0.12491509636E+04  0.00000000000E+00 0.  1.
<mgrwt>
<rscale>  0 0.40975533E+04</rscale>
<asrwt>0</asrwt>
<pdfrwt beam="1">  1        2 0.36349598E+00 0.40975533E+04</pdfrwt>
<pdfrwt beam="2">  1       -2 0.27331465E+00 0.40975533E+04</pdfrwt>
<totfact> 0.15119935E-01</totfact>
</mgrwt>
</event>
<event>
12    2  0.3561489E-008  0.1433425E+04  0.7818608E-02  0.8929973E-01
         -2   -1    0    0    0  501 -0.00000000000E+00  0.00000000000E+00  0.71313338360E+03  0.71313338360E+03  0.00000000000E+00 0.  1.
          2   -1    0    0  501    0  0.00000000000E+00 -0.00000000000E+00 -0.72030918169E+03  0.72030918169E+03  0.00000000000E+00 0. -1.
         23    2    1    2    0    0 -0.32161637901E+03  0.23677485407E+03 -0.77904682637E+02  0.41468363186E+03  0.79962167240E+02 0.  0.
        254    2    1    2    0    0  0.32161637901E+03 -0.23677485407E+03  0.70728884545E+02  0.10187589334E+04  0.93454147183E+03 0.  0.
         23    2    4    4    0    0 -0.29169411793E+03  0.80806654272E+02  0.64752828132E+02  0.32225425902E+03  0.89664401489E+02 0.  0.
         23    2    4    4    0    0  0.61331049694E+03 -0.31758150834E+03  0.59760564130E+01  0.69650467441E+03  0.89862495659E+02 0.  0.
          4    1    3    3  502    0 -0.70618049160E+02  0.46384121756E+02 -0.50559173635E+02  0.98461290145E+02  0.00000000000E+00 0. -1.
         -4    1    3    3    0  502 -0.25099832984E+03  0.19039073231E+03 -0.27345509002E+02  0.31622234171E+03  0.00000000000E+00 0.  1.
         11    1    5    5    0    0 -0.28725867621E+03  0.90694321190E+02  0.71345725657E+02  0.30956940987E+03  0.00000000000E+00 0. -1.
        -11    1    5    5    0    0 -0.44354417225E+01 -0.98876669173E+01 -0.65928975246E+01  0.12684849156E+02  0.00000000000E+00 0.  1.
          1    1    6    6  503    0  0.59755519640E+03 -0.32263196176E+03  0.11110989584E+02  0.67918116109E+03  0.00000000000E+00 0. -1.
         -1    1    6    6    0  503  0.15755300543E+02  0.50504534227E+01 -0.51349331706E+01  0.17323513317E+02  0.00000000000E+00 0.  1.
<mgrwt>
<rscale>  0 0.14334246E+04</rscale>
<asrwt>0</asrwt>
<pdfrwt beam="1">  1        2 0.11081680E+00 0.14334246E+04</pdfrwt>
<pdfrwt beam="2">  1       -2 0.10971283E+00 0.14334246E+04</pdfrwt>
<totfact> 0.25364346E+01</totfact>
</mgrwt>
</event>
<event>
12    2  0.3561489E-008  0.1232122E+04  0.7818608E-02  0.9085196E-01
         -1   -1    0    0    0  501 -0.00000000000E+00  0.00000000000E+00  0.44858356245E+03  0.44858356245E+03  0.00000000000E+00 0.  1.
          1   -1    0    0  501    0  0.00000000000E+00 -0.00000000000E+00 -0.84606519496E+03  0.84606519496E+03  0.00000000000E+00 0. -1.
         23    2    1    2    0    0  0.17847571120E+03  0.21364535379E+03 -0.13029419800E+03  0.32115615188E+03  0.93095537872E+02 0.  0.
        254    2    1    2    0    0 -0.17847571120E+03 -0.21364535379E+03 -0.26718743450E+03  0.97349260553E+03  0.89375657266E+03 0.  0.
         23    2    4    4    0    0 -0.20872052675E+03 -0.25027798542E+03  0.26614274795E+03  0.43049261971E+03  0.91041776484E+02 0.  0.
         23    2    4    4    0    0  0.30244815551E+02  0.36632631628E+02 -0.53333018246E+03  0.54299998581E+03  0.90284010244E+02 0.  0.
          4    1    3    3  502    0  0.18276018243E+03  0.19335869893E+03 -0.99554507132E+02  0.28407740252E+03  0.00000000000E+00 0. -1.
         -4    1    3    3    0  502 -0.42844712273E+01  0.20286654860E+02 -0.30739690870E+02  0.37078749357E+02  0.00000000000E+00 0.  1.
         11    1    5    5    0    0 -0.12089800792E+03 -0.81926349862E+02  0.14155513955E+03  0.20338660884E+03  0.00000000000E+00 0.  1.
        -11    1    5    5    0    0 -0.87822518836E+02 -0.16835163555E+03  0.12458760840E+03  0.22710601088E+03  0.00000000000E+00 0. -1.
          3    1    6    6  503    0  0.45875943040E+01 -0.97399346417E+01 -0.47464975571E+01  0.11766120320E+02  0.00000000000E+00 0. -1.
         -3    1    6    6    0  503  0.25657221247E+02  0.46372566269E+02 -0.52858368490E+03  0.53123386549E+03  0.00000000000E+00 0.  1.
<mgrwt>
<rscale>  0 0.12321216E+04</rscale>
<asrwt>0</asrwt>
<pdfrwt beam="1">  1        1 0.13016387E+00 0.12321216E+04</pdfrwt>
<pdfrwt beam="2">  1       -1 0.69012856E-01 0.12321216E+04</pdfrwt>
<totfact> 0.42345154E+01</totfact>
</mgrwt>
</event>
<event>
12    2  0.3561489E-008  0.1483007E+04  0.7818608E-02  0.8895832E-01
          1   -1    0    0  501    0  0.00000000000E+00  0.00000000000E+00  0.22677267955E+04  0.22677267955E+04  0.00000000000E+00 0. -1.
         -1   -1    0    0    0  501 -0.00000000000E+00 -0.00000000000E+00 -0.24245761020E+03  0.24245761020E+03  0.00000000000E+00 0.  1.
         23    2    1    2    0    0  0.37045107708E+03 -0.28252814725E+03  0.69251631920E+03  0.83935882837E+03  0.88815741320E+02 0.  0.
        254    2    1    2    0    0 -0.37045107708E+03  0.28252814725E+03  0.13327528661E+04  0.16708255773E+04  0.89351650978E+03 0.  0.
         23    2    4    4    0    0 -0.60716722183E+03  0.38880653852E+03  0.88833941157E+03  0.11483310294E+04  0.98461583039E+02 0.  0.
         23    2    4    4    0    0  0.23671614474E+03 -0.10627839127E+03  0.44441345450E+03  0.52249454788E+03  0.90374799518E+02 0.  0.
          3    1    3    3  502    0  0.70782394738E+02 -0.77400838496E+02  0.10325066434E+03  0.14717926787E+03  0.00000000000E+00 0. -1.
         -3    1    3    3    0  502  0.29966868235E+03 -0.20512730876E+03  0.58926565486E+03  0.69217956050E+03  0.00000000000E+00 0.  1.
         11    1    5    5    0    0 -0.50955556317E+03  0.32301989625E+03  0.68017478412E+03  0.90919000340E+03  0.00000000000E+00 0. -1.
        -11    1    5    5    0    0 -0.97611658662E+02  0.65786642275E+02  0.20816462745E+03  0.23914102603E+03  0.00000000000E+00 0.  1.
          4    1    6    6  503    0  0.15264249128E+03 -0.46259623096E+02  0.34033432046E+03  0.37585520158E+03  0.00000000000E+00 0. -1.
         -4    1    6    6    0  503  0.84073653460E+02 -0.60018768173E+02  0.10407913404E+03  0.14663934630E+03  0.00000000000E+00 0.  1.
<mgrwt>
<rscale>  0 0.14830072E+04</rscale>
<asrwt>0</asrwt>
<pdfrwt beam="1">  1        1 0.34888103E+00 0.14830072E+04</pdfrwt>
<pdfrwt beam="2">  1       -1 0.37301172E-01 0.14830072E+04</pdfrwt>
<totfact> 0.13144335E+01</totfact>
</mgrwt>
</event>
<event>
12    2  0.3561489E-008  0.1498266E+04  0.7818608E-02  0.8885607E-01
         -2   -1    0    0    0  501 -0.00000000000E+00  0.00000000000E+00  0.57608692110E+03  0.57608692110E+03  0.00000000000E+00 0. -1.
          2   -1    0    0  501    0  0.00000000000E+00 -0.00000000000E+00 -0.97415846852E+03  0.97415846852E+03  0.00000000000E+00 0.  1.
         23    2    1    2    0    0 -0.30036718873E+02  0.11983684681E+03 -0.59684610529E+03  0.61598286809E+03  0.89143401616E+02 0.  0.
        254    2    1    2    0    0  0.30036718873E+02 -0.11983684681E+03  0.19877455787E+03  0.93426252153E+03  0.90447336055E+03 0.  0.
         23    2    4    4    0    0 -0.59233960930E+02  0.66854754284E+02  0.52349830326E+03  0.53896733684E+03  0.91962472610E+02 0.  0.
         23    2    4    4    0    0  0.89270679803E+02 -0.18669160109E+03 -0.32472374540E+03  0.39529518469E+03  0.89385479928E+02 0.  0.
          1    1    3    3  502    0 -0.90295204178E+01  0.31612149966E+02 -0.39893797096E+02  0.51695022112E+02  0.00000000000E+00 0. -1.
         -1    1    3    3    0  502 -0.21007198455E+02  0.88224696844E+02 -0.55695230819E+03  0.56428784598E+03  0.00000000000E+00 0.  1.
         11    1    5    5    0    0 -0.18282710536E+02  0.62378800228E+02  0.15368381978E+03  0.16686548080E+03  0.00000000000E+00 0.  1.
        -11    1    5    5    0    0 -0.40951250394E+02  0.44759540559E+01  0.36981448349E+03  0.37210185604E+03  0.00000000000E+00 0. -1.
          1    1    6    6  503    0  0.39473021396E+02 -0.24789094282E+02 -0.12503551311E+03  0.13344099128E+03  0.00000000000E+00 0. -1.
         -1    1    6    6    0  503  0.49797658407E+02 -0.16190250681E+03 -0.19968823228E+03  0.26185419341E+03  0.00000000000E+00 0.  1.
<mgrwt>
<rscale>  0 0.14982656E+04</rscale>
<asrwt>0</asrwt>
<pdfrwt beam="1">  1        2 0.14987053E+00 0.14982656E+04</pdfrwt>
<pdfrwt beam="2">  1       -2 0.88628758E-01 0.14982656E+04</pdfrwt>
<totfact> 0.27703481E+01</totfact>
</mgrwt>
</event>
<event>
12    2  0.3561489E-008  0.1943434E+04  0.7818608E-02  0.8633534E-01
          1   -1    0    0  501    0  0.00000000000E+00  0.00000000000E+00  0.16756491470E+04  0.16756491470E+04  0.00000000000E+00 0. -1.
         -1   -1    0    0    0  501 -0.00000000000E+00 -0.00000000000E+00 -0.56350332140E+03  0.56350332140E+03  0.00000000000E+00 0.  1.
         23    2    1    2    0    0  0.24049845284E+03  0.59358602205E+03  0.91206699638E+03  0.11182782477E+04  0.92174627215E+02 0.  0.
        254    2    1    2    0    0 -0.24049845284E+03 -0.59358602205E+03  0.20007882924E+03  0.11208742208E+04  0.89785500471E+03 0.  0.
         23    2    4    4    0    0  0.10056015375E+03 -0.47502463535E+02  0.41261582826E+03  0.43690328457E+03  0.90905609113E+02 0.  0.
         23    2    4    4    0    0 -0.34105860659E+03 -0.54608355851E+03 -0.21253699902E+03  0.68397093620E+03  0.90089064874E+02 0.  0.
          4    1    3    3  502    0  0.22571214751E+03  0.57564457284E+03  0.84331828238E+03  0.10457047256E+04  0.00000000000E+00 0. -1.
         -4    1    3    3    0  502  0.14786305325E+02  0.17941449211E+02  0.68748713997E+02  0.72573522040E+02  0.00000000000E+00 0.  1.
         11    1    5    5    0    0  0.28055255212E+02  0.17086671324E+02  0.39574527026E+02  0.51431457993E+02  0.00000000000E+00 0. -1.
        -11    1    5    5    0    0  0.72504898541E+02 -0.64589134859E+02  0.37304130124E+03  0.38547182658E+03  0.00000000000E+00 0.  1.
          1    1    6    6  503    0 -0.12223994627E+03 -0.20948566446E+03 -0.35225892320E+02  0.24508715097E+03  0.00000000000E+00 0. -1.
         -1    1    6    6    0  503 -0.21881866032E+03 -0.33659789405E+03 -0.17731110670E+03  0.43888378524E+03  0.00000000000E+00 0.  1.
<mgrwt>
<rscale>  0 0.19434339E+04</rscale>
<asrwt>0</asrwt>
<pdfrwt beam="1">  1        1 0.25779217E+00 0.19434339E+04</pdfrwt>
<pdfrwt beam="2">  1       -1 0.86692819E-01 0.19434339E+04</pdfrwt>
<totfact> 0.60536488E+00</totfact>
</mgrwt>
</event>
<event>
12    2  0.3561489E-008  0.1458159E+04  0.7818608E-02  0.8912764E-01
         -2   -1    0    0    0  501 -0.00000000000E+00  0.00000000000E+00  0.34028461790E+03  0.34028461790E+03  0.00000000000E+00 0.  1.
          2   -1    0    0  501    0  0.00000000000E+00 -0.00000000000E+00 -0.15620947863E+04  0.15620947863E+04  0.00000000000E+00 0. -1.
         23    2    1    2    0    0  0.10545900460E+03  0.17985851977E+03 -0.89400998674E+03  0.92245209805E+03  0.90517004004E+02 0.  0.
        254    2    1    2    0    0 -0.10545900460E+03 -0.17985851977E+03 -0.32780018165E+03  0.97992730614E+03  0.89962985580E+03 0.  0.
         23    2    4    4    0    0  0.28359980936E+03 -0.22371274062E+03 -0.42604594248E+03  0.56611638761E+03  0.92175794164E+02 0.  0.
         23    2    4    4    0    0 -0.38905881396E+03  0.43854220848E+02  0.98245760833E+02  0.41381091853E+03  0.91089480030E+02 0.  0.
          2    1    3    3  502    0  0.66286929132E+02  0.10220496654E+03 -0.69007874194E+03  0.70074851569E+03  0.00000000000E+00 0. -1.
         -2    1    3    3    0  502  0.39172075467E+02  0.77653553228E+02 -0.20393124480E+03  0.22170358236E+03  0.00000000000E+00 0.  1.
         11    1    5    5    0    0  0.11720013098E+03 -0.12015739642E+03 -0.25880092441E+03  0.30846651211E+03  0.00000000000E+00 0.  1.
        -11    1    5    5    0    0  0.16639967837E+03 -0.10355534420E+03 -0.16724501807E+03  0.25764987550E+03  0.00000000000E+00 0. -1.
          1    1    6    6  503    0 -0.26349301061E+03  0.36670596545E+02  0.10918105484E+03  0.28756530046E+03  0.00000000000E+00 0. -1.
         -1    1    6    6    0  503 -0.12556580334E+03  0.71836243021E+01 -0.10935294008E+02  0.12624561807E+03  0.00000000000E+00 0.  1.
<mgrwt>
<rscale>  0 0.14581589E+04</rscale>
<asrwt>0</asrwt>
<pdfrwt beam="1">  1        2 0.24032228E+00 0.14581589E+04</pdfrwt>
<pdfrwt beam="2">  1       -2 0.52351479E-01 0.14581589E+04</pdfrwt>
<totfact> 0.39080254E+01</totfact>
</mgrwt>
</event>
<event>
12    2  0.3561489E-008  0.2223477E+04  0.7818608E-02  0.8508719E-01
         -2   -1    0    0    0  501 -0.00000000000E+00  0.00000000000E+00  0.91336189292E+03  0.91336189292E+03  0.00000000000E+00 0.  1.
          2   -1    0    0  501    0  0.00000000000E+00 -0.00000000000E+00 -0.13532015065E+04  0.13532015065E+04  0.00000000000E+00 0. -1.
         23    2    1    2    0    0  0.35789884046E+03  0.17915521005E+03  0.66555618745E+03  0.78159461629E+03  0.87959856019E+02 0.  0.
        254    2    1    2    0    0 -0.35789884046E+03 -0.17915521005E+03 -0.11053958010E+04  0.14849687831E+04  0.90721785730E+03 0.  0.
         23    2    4    4    0    0 -0.23470422551E+03  0.27603720620E+03 -0.87606571622E+03  0.95281567728E+03  0.95309826646E+02 0.  0.
         23    2    4    4    0    0 -0.12319461495E+03 -0.45519241625E+03 -0.22933008479E+03  0.53215310582E+03  0.90650930944E+02 0.  0.
          2    1    3    3  502    0  0.34886857415E+02  0.23487227504E+02  0.29294262509E+02  0.51253258355E+02  0.00000000000E+00 0. -1.
         -2    1    3    3    0  502  0.32301198304E+03  0.15566798255E+03  0.63626192494E+03  0.73034135794E+03  0.00000000000E+00 0.  1.
         11    1    5    5    0    0 -0.38901929544E+02  0.88744582335E+01 -0.59644567491E+02  0.71760647728E+02  0.00000000000E+00 0.  1.
        -11    1    5    5    0    0 -0.19580229596E+03  0.26716274797E+03 -0.81642114872E+03  0.88105502955E+03  0.00000000000E+00 0. -1.
          1    1    6    6  503    0 -0.10482771244E+03 -0.44272588235E+03 -0.23029864726E+03  0.50993384191E+03  0.00000000000E+00 0. -1.
         -1    1    6    6    0  503 -0.18366902513E+02 -0.12466533901E+02  0.96856247007E+00  0.22219263910E+02  0.00000000000E+00 0.  1.
<mgrwt>
<rscale>  0 0.22234772E+04</rscale>
<asrwt>0</asrwt>
<pdfrwt beam="1">  1        2 0.20818485E+00 0.22234772E+04</pdfrwt>
<pdfrwt beam="2">  1       -2 0.14051721E+00 0.22234772E+04</pdfrwt>
<totfact> 0.49972996E+00</totfact>
</mgrwt>
</event>
<event>
12    2  0.3561489E-008  0.1370412E+04  0.7818608E-02  0.8975519E-01
          1   -1    0    0  501    0  0.00000000000E+00  0.00000000000E+00  0.47502795769E+03  0.47502795769E+03  0.00000000000E+00 0. -1.
         -1   -1    0    0    0  501 -0.00000000000E+00 -0.00000000000E+00 -0.98837751422E+03  0.98837751422E+03  0.00000000000E+00 0.  1.
         23    2    1    2    0    0  0.10553799976E+03  0.36012030234E+03 -0.19030658003E+03  0.43145550125E+03  0.95458648679E+02 0.  0.
        254    2    1    2    0    0 -0.10553799976E+03 -0.36012030234E+03 -0.32304297651E+03  0.10319499707E+04  0.90539443101E+03 0.  0.
         23    2    4    4    0    0  0.27682980930E+03  0.15055971915E+03 -0.17235666022E+03  0.36975573550E+03  0.87803833982E+02 0.  0.
         23    2    4    4    0    0 -0.38236780906E+03 -0.51068002150E+03 -0.15068631629E+03  0.66219423515E+03  0.93784931590E+02 0.  0.
          3    1    3    3  502    0  0.52288435288E+02  0.30838379814E+03 -0.15903696426E+03  0.35089514591E+03  0.00000000000E+00 0. -1.
         -3    1    3    3    0  502  0.53249564468E+02  0.51736504202E+02 -0.31269615766E+02  0.80560355344E+02  0.00000000000E+00 0.  1.
         11    1    5    5    0    0  0.26850205889E+03  0.15733882662E+03 -0.15111606852E+03  0.34595509558E+03  0.00000000000E+00 0.  1.
        -11    1    5    5    0    0  0.83277504132E+01 -0.67791074675E+01 -0.21240591698E+02  0.23800639921E+02  0.00000000000E+00 0. -1.
          3    1    6    6  503    0 -0.96068994237E+02 -0.18423301206E+03 -0.78063379552E+02  0.22195708057E+03  0.00000000000E+00 0. -1.
         -3    1    6    6    0  503 -0.28629881482E+03 -0.32644700944E+03 -0.72622936736E+02  0.44023715459E+03  0.00000000000E+00 0.  1.
<mgrwt>
<rscale>  0 0.13704115E+04</rscale>
<asrwt>0</asrwt>
<pdfrwt beam="1">  1        1 0.73081225E-01 0.13704115E+04</pdfrwt>
<pdfrwt beam="2">  1       -1 0.15205808E+00 0.13704115E+04</pdfrwt>
<totfact> 0.15630670E+01</totfact>
</mgrwt>
</event>
<event>
12    2  0.3561489E-008  0.1929423E+04  0.7818608E-02  0.8640348E-01
          4   -1    0    0  501    0  0.00000000000E+00  0.00000000000E+00  0.53840438671E+03  0.53840438671E+03  0.00000000000E+00 0. -1.
         -4   -1    0    0    0  501 -0.00000000000E+00 -0.00000000000E+00 -0.17285681474E+04  0.17285681474E+04  0.00000000000E+00 0.  1.
         23    2    1    2    0    0  0.90061727047E+02 -0.68939764362E+03 -0.13755817005E+03  0.71468779162E+03  0.92066082966E+02 0.  0.
        254    2    1    2    0    0 -0.90061727047E+02  0.68939764362E+03 -0.10526055907E+04  0.15522847425E+04  0.90456020621E+03 0.  0.
         23    2    4    4    0    0 -0.45184382421E+03  0.58900021164E+03 -0.61454306201E+03  0.96799487405E+03  0.90922001363E+02 0.  0.
         23    2    4    4    0    0  0.36178209716E+03  0.10039743198E+03 -0.43806252865E+03  0.58428986847E+03  0.92357680881E+02 0.  0.
          3    1    3    3  502    0  0.71346590964E+02 -0.67134005815E+03 -0.12920722495E+03  0.68737349141E+03  0.00000000000E+00 0. -1.
         -3    1    3    3    0  502  0.18715136083E+02 -0.18057585472E+02 -0.83509450986E+01  0.27314300206E+02  0.00000000000E+00 0.  1.
         11    1    5    5    0    0 -0.58035996147E+02  0.69096648274E+02 -0.39593213099E+02  0.98540073954E+02  0.00000000000E+00 0. -1.
        -11    1    5    5    0    0 -0.39380782806E+03  0.51990356337E+03 -0.57494984891E+03  0.86945480009E+03  0.00000000000E+00 0.  1.
          1    1    6    6  503    0  0.31212472036E+03  0.79500826292E+02 -0.41589338602E+03  0.52603187258E+03  0.00000000000E+00 0. -1.
         -1    1    6    6    0  503  0.49657376802E+02  0.20896605690E+02 -0.22169142638E+02  0.58257995893E+02  0.00000000000E+00 0.  1.
<mgrwt>
<rscale>  0 0.19294234E+04</rscale>
<asrwt>0</asrwt>
<pdfrwt beam="1">  1        4 0.82831443E-01 0.19294234E+04</pdfrwt>
<pdfrwt beam="2">  1       -4 0.26593357E+00 0.19294234E+04</pdfrwt>
<totfact> 0.12059979E-01</totfact>
</mgrwt>
</event>
<event>
12    2  0.3561489E-008  0.1478525E+04  0.7818608E-02  0.8898860E-01
         -1   -1    0    0    0  501 -0.00000000000E+00  0.00000000000E+00  0.24162135306E+03  0.24162135306E+03  0.00000000000E+00 0.  1.
          1   -1    0    0  501    0  0.00000000000E+00 -0.00000000000E+00 -0.22618422927E+04  0.22618422927E+04  0.00000000000E+00 0. -1.
         23    2    1    2    0    0  0.42188813657E+03  0.96436146090E+01 -0.88750101311E+03  0.98690980332E+03  0.90831231120E+02 0.  0.
        254    2    1    2    0    0 -0.42188813657E+03 -0.96436146090E+01 -0.11327199265E+04  0.15165538424E+04  0.91585944660E+03 0.  0.
         23    2    4    4    0    0 -0.83877578369E+02  0.23259887977E+03 -0.10501127649E+04  0.10829232870E+04  0.94065613152E+02 0.  0.
         23    2    4    4    0    0 -0.33801055820E+03 -0.24224249438E+03 -0.82607161586E+02  0.43363055535E+03  0.90988745730E+02 0.  0.
          3    1    3    3  502    0  0.17385971791E+02 -0.14325510678E+02 -0.23213997926E+02  0.32347827918E+02  0.00000000000E+00 0. -1.
         -3    1    3    3    0  502  0.40450216478E+03  0.23969125287E+02 -0.86428701518E+03  0.95456197541E+03  0.00000000000E+00 0.  1.
         11    1    5    5    0    0 -0.42528575985E+02  0.33357447011E+02 -0.33851426131E+03  0.34280213558E+03  0.00000000000E+00 0.  1.
        -11    1    5    5    0    0 -0.41349002384E+02  0.19924143276E+03 -0.71159850360E+03  0.74012115147E+03  0.00000000000E+00 0. -1.
          1    1    6    6  503    0 -0.33685469703E+03 -0.21774875530E+03 -0.79576135281E+02  0.40892293730E+03  0.00000000000E+00 0. -1.
         -1    1    6    6    0  503 -0.11558611690E+01 -0.24493739076E+02 -0.30310263050E+01  0.24707618045E+02  0.00000000000E+00 0.  1.
<mgrwt>
<rscale>  0 0.14785255E+04</rscale>
<asrwt>0</asrwt>
<pdfrwt beam="1">  1        1 0.34797574E+00 0.14785255E+04</pdfrwt>
<pdfrwt beam="2">  1       -1 0.37172515E-01 0.14785255E+04</pdfrwt>
<totfact> 0.13354859E+01</totfact>
</mgrwt>
</event>
<event>
12    2  0.3561489E-008  0.2058920E+04  0.7818608E-02  0.8579558E-01
          1   -1    0    0  501    0  0.00000000000E+00  0.00000000000E+00  0.88032228426E+03  0.88032228426E+03  0.00000000000E+00 0. -1.
         -1   -1    0    0    0  501 -0.00000000000E+00 -0.00000000000E+00 -0.12038636997E+04  0.12038636997E+04  0.00000000000E+00 0.  1.
         23    2    1    2    0    0  0.72458821977E+03 -0.37547806388E+03  0.54140846558E+02  0.82282487840E+03  0.89987135537E+02 0.  0.
        254    2    1    2    0    0 -0.72458821977E+03  0.37547806388E+03 -0.37768226197E+03  0.12613611055E+04  0.88452025577E+03 0.  0.
         23    2    4    4    0    0 -0.84542998382E+03  0.65656828042E+02 -0.21633009495E+03  0.88015995543E+03  0.93915709823E+02 0.  0.
         23    2    4    4    0    0  0.12084176406E+03  0.30982123584E+03 -0.16135216702E+03  0.38120115010E+03  0.93208716974E+02 0.  0.
          2    1    3    3  502    0  0.80858294177E+02 -0.67579153379E+02  0.26757020741E+02  0.10872416414E+03  0.00000000000E+00 0. -1.
         -2    1    3    3    0  502  0.64372992559E+03 -0.30789891050E+03  0.27383825817E+02  0.71410071426E+03  0.00000000000E+00 0.  1.
         11    1    5    5    0    0 -0.10713257400E+03 -0.10055832309E+02 -0.54220784337E+02  0.12049233017E+03  0.00000000000E+00 0. -1.
        -11    1    5    5    0    0 -0.73829740982E+03  0.75712660351E+02 -0.16210931062E+03  0.75966762526E+03  0.00000000000E+00 0.  1.
          4    1    6    6  503    0 -0.45738459695E+01  0.65391224029E+01 -0.24240982379E+02  0.25520686031E+02  0.00000000000E+00 0. -1.
         -4    1    6    6    0  503  0.12541561002E+03  0.30328211343E+03 -0.13711118464E+03  0.35568046407E+03  0.00000000000E+00 0.  1.
<mgrwt>
<rscale>  0 0.20589201E+04</rscale>
<asrwt>0</asrwt>
<pdfrwt beam="1">  1        1 0.13543420E+00 0.20589201E+04</pdfrwt>
<pdfrwt beam="2">  1       -1 0.18520980E+00 0.20589201E+04</pdfrwt>
<totfact> 0.33301809E+00</totfact>
</mgrwt>
</event>
<event>
12    2  0.3561489E-008  0.2329691E+04  0.7818608E-02  0.8466305E-01
         -2   -1    0    0    0  501 -0.00000000000E+00  0.00000000000E+00  0.48929969530E+03  0.48929969530E+03  0.00000000000E+00 0. -1.
          2   -1    0    0  501    0  0.00000000000E+00 -0.00000000000E+00 -0.27730766957E+04  0.27730766957E+04  0.00000000000E+00 0.  1.
         23    2    1    2    0    0 -0.65178186541E+03  0.47940317713E+03 -0.18224468658E+03  0.83444861661E+03  0.91893207850E+02 0.  0.
        254    2    1    2    0    0  0.65178186541E+03 -0.47940317713E+03 -0.21015323138E+04  0.24279277744E+04  0.90760575435E+03 0.  0.
         23    2    4    4    0    0  0.83742781446E+03 -0.26157693323E+03 -0.12884868398E+04  0.15614787980E+04  0.91158455352E+02 0.  0.
         23    2    4    4    0    0 -0.18564594905E+03 -0.21782624391E+03 -0.81304547400E+03  0.86644897634E+03  0.88194074987E+02 0.  0.
          2    1    3    3  502    0 -0.16177254388E+03  0.13087690234E+03 -0.87423788834E+02  0.22570343013E+03  0.00000000000E+00 0.  1.
         -2    1    3    3    0  502 -0.49000932153E+03  0.34852627479E+03 -0.94820897751E+02  0.60874518647E+03  0.00000000000E+00 0. -1.
         11    1    5    5    0    0  0.10015360563E+03 -0.58161297061E+02 -0.14103524964E+03  0.18249499401E+03  0.00000000000E+00 0. -1.
        -11    1    5    5    0    0  0.73727420883E+03 -0.20341563617E+03 -0.11474515902E+04  0.13789838040E+04  0.00000000000E+00 0.  1.
          1    1    6    6  503    0 -0.30386584209E+02 -0.51643494288E+02 -0.87155763241E+02  0.10576635603E+03  0.00000000000E+00 0. -1.
         -1    1    6    6    0  503 -0.15525936484E+03 -0.16618274962E+03 -0.72588971076E+03  0.76068262030E+03  0.00000000000E+00 0.  1.
<mgrwt>
<rscale>  0 0.23296915E+04</rscale>
<asrwt>0</asrwt>
<pdfrwt beam="1">  1        2 0.42662718E+00 0.23296915E+04</pdfrwt>
<pdfrwt beam="2">  1       -2 0.75276876E-01 0.23296915E+04</pdfrwt>
<totfact> 0.34396351E+00</totfact>
</mgrwt>
</event>
<event>
12    2  0.3561489E-008  0.1542200E+04  0.7818608E-02  0.8856866E-01
         -2   -1    0    0    0  501 -0.00000000000E+00  0.00000000000E+00  0.79489769483E+03  0.79489769483E+03  0.00000000000E+00 0.  1.
          2   -1    0    0  501    0  0.00000000000E+00 -0.00000000000E+00 -0.74801454913E+03  0.74801454913E+03  0.00000000000E+00 0. -1.
         23    2    1    2    0    0  0.15329465487E+03  0.47304420093E+03  0.10867985184E+02  0.50805019971E+03  0.10357038708E+03 0.  0.
        254    2    1    2    0    0 -0.15329465487E+03 -0.47304420093E+03  0.36015160513E+02  0.10348620442E+04  0.90684744670E+03 0.  0.
         23    2    4    4    0    0 -0.42713972131E+02 -0.67602409813E+03 -0.17861911660E+03  0.70659682648E+03  0.92418730312E+02 0.  0.
         23    2    4    4    0    0 -0.11058068274E+03  0.20297989720E+03  0.21463427711E+03  0.32826521776E+03  0.90891441931E+02 0.  0.
          2    1    3    3  502    0  0.59310511726E+02  0.15795582121E+03 -0.44786398400E+02  0.17456689187E+03  0.00000000000E+00 0. -1.
         -2    1    3    3    0  502  0.93984143143E+02  0.31508837972E+03  0.55654383584E+02  0.33348330784E+03  0.00000000000E+00 0.  1.
         11    1    5    5    0    0 -0.31816439598E+02 -0.17234301053E+03 -0.82534059052E+02  0.19371698431E+03  0.00000000000E+00 0. -1.
        -11    1    5    5    0    0 -0.10897532533E+02 -0.50368108760E+03 -0.96085057548E+02  0.51287984217E+03  0.00000000000E+00 0.  1.
          4    1    6    6  503    0 -0.24047429424E+01 -0.44154484498E+00  0.37673759242E+02  0.37753011613E+02  0.00000000000E+00 0. -1.
         -4    1    6    6    0  503 -0.10817593980E+03  0.20342144205E+03  0.17696051787E+03  0.29051220615E+03  0.00000000000E+00 0.  1.
<mgrwt>
<rscale>  0 0.15421998E+04</rscale>
<asrwt>0</asrwt>
<pdfrwt beam="1">  1        2 0.11507916E+00 0.15421998E+04</pdfrwt>
<pdfrwt beam="2">  1       -2 0.12229195E+00 0.15421998E+04</pdfrwt>
<totfact> 0.18355523E+01</totfact>
</mgrwt>
</event>
<event>
12    2  0.3561489E-008  0.1864325E+04  0.7818608E-02  0.8672821E-01
          1   -1    0    0  501    0  0.00000000000E+00  0.00000000000E+00  0.13933869516E+04  0.13933869516E+04  0.00000000000E+00 0. -1.
         -1   -1    0    0    0  501 -0.00000000000E+00 -0.00000000000E+00 -0.62360771201E+03  0.62360771201E+03  0.00000000000E+00 0.  1.
         23    2    1    2    0    0 -0.64629920157E+03 -0.21127269388E+03  0.52237973047E+02  0.68784981312E+03  0.89831789751E+02 0.  0.
        254    2    1    2    0    0  0.64629920157E+03  0.21127269388E+03  0.71754126655E+03  0.13291448505E+04  0.88849409411E+03 0.  0.
         23    2    4    4    0    0  0.23841236857E+03  0.19140300444E+03  0.83471256988E+03  0.89401512517E+03  0.95091545996E+02 0.  0.
         23    2    4    4    0    0  0.40788683300E+03  0.19869689435E+02 -0.11717130332E+03  0.43512972533E+03  0.94033453866E+02 0.  0.
          1    1    3    3  502    0 -0.14054636528E+03 -0.50938653525E+02 -0.25416972293E+02  0.15163789004E+03  0.00000000000E+00 0. -1.
         -1    1    3    3    0  502 -0.50575283630E+03 -0.16033404035E+03  0.77654945339E+02  0.53621192308E+03  0.00000000000E+00 0.  1.
         11    1    5    5    0    0  0.22912133363E+03  0.19196273735E+03  0.83237592693E+03  0.88441843139E+03  0.00000000000E+00 0.  1.
        -11    1    5    5    0    0  0.92910349381E+01 -0.55973290968E+00  0.23366429501E+01  0.95966937759E+01  0.00000000000E+00 0. -1.
          4    1    6    6  503    0  0.22717534332E+02 -0.21992630187E+02 -0.86737224443E+01  0.32787125670E+02  0.00000000000E+00 0. -1.
         -4    1    6    6    0  503  0.38516929867E+03  0.41862319622E+02 -0.10849758088E+03  0.40234259966E+03  0.00000000000E+00 0.  1.
<mgrwt>
<rscale>  0 0.18643249E+04</rscale>
<asrwt>0</asrwt>
<pdfrwt beam="1">  1        1 0.21436722E+00 0.18643249E+04</pdfrwt>
<pdfrwt beam="2">  1       -1 0.95939648E-01 0.18643249E+04</pdfrwt>
<totfact> 0.76322526E+00</totfact>
</mgrwt>
</event>
<event>
12    2  0.3561489E-008  0.2943029E+04  0.7818608E-02  0.8260189E-01
          2   -1    0    0  501    0  0.00000000000E+00  0.00000000000E+00  0.43195049032E+04  0.43195049032E+04  0.00000000000E+00 0.  1.
         -2   -1    0    0    0  501 -0.00000000000E+00 -0.00000000000E+00 -0.50129696231E+03  0.50129696231E+03  0.00000000000E+00 0. -1.
         23    2    1    2    0    0  0.67322465324E+03  0.10125239143E+04  0.84114952272E+03  0.14813186494E+04  0.91303399457E+02 0.  0.
        254    2    1    2    0    0 -0.67322465324E+03 -0.10125239143E+04  0.29770584182E+04  0.33394832161E+04  0.90046388875E+03 0.  0.
         23    2    4    4    0    0 -0.30092929399E+03  0.10211280661E+03  0.55114325975E+03  0.64245548274E+03  0.89468929144E+02 0.  0.
         23    2    4    4    0    0 -0.37229535925E+03 -0.11146367209E+04  0.24259151584E+04  0.26970277334E+04  0.88743364858E+02 0.  0.
          1    1    3    3  502    0  0.19094606686E+03  0.31298210501E+03  0.20650377662E+03  0.42078736705E+03  0.00000000000E+00 0. -1.
         -1    1    3    3    0  502  0.48227858638E+03  0.69954180924E+03  0.63464574610E+03  0.10605312823E+04  0.00000000000E+00 0.  1.
         11    1    5    5    0    0 -0.18092081048E+03  0.37704029743E+02  0.38922222773E+03  0.43086874577E+03  0.00000000000E+00 0.  1.
        -11    1    5    5    0    0 -0.12000848351E+03  0.64408776864E+02  0.16192103202E+03  0.21158673697E+03  0.00000000000E+00 0. -1.
          3    1    6    6  503    0 -0.34063001144E+03 -0.91850015198E+03  0.20356185214E+04  0.22590737258E+04  0.00000000000E+00 0. -1.
         -3    1    6    6    0  503 -0.31665347814E+02 -0.19613656888E+03  0.39029663700E+03  0.43795400758E+03  0.00000000000E+00 0.  1.
<mgrwt>
<rscale>  0 0.29430288E+04</rscale>
<asrwt>0</asrwt>
<pdfrwt beam="1">  1        2 0.66453919E+00 0.29430288E+04</pdfrwt>
<pdfrwt beam="2">  1       -2 0.77122613E-01 0.29430288E+04</pdfrwt>
<totfact> 0.23500626E-01</totfact>
</mgrwt>
</event>
<event>
12    2  0.3561489E-008  0.2012877E+04  0.7818608E-02  0.8600624E-01
          2   -1    0    0  501    0  0.00000000000E+00  0.00000000000E+00  0.44517431468E+04  0.44517431468E+04  0.00000000000E+00 0. -1.
         -2   -1    0    0    0  501 -0.00000000000E+00 -0.00000000000E+00 -0.22753296117E+03  0.22753296117E+03  0.00000000000E+00 0.  1.
         23    2    1    2    0    0  0.79074847472E+03 -0.23243555124E+02  0.19890875760E+04  0.21425072741E+04  0.89691813993E+02 0.  0.
        254    2    1    2    0    0 -0.79074847472E+03  0.23243555124E+02  0.22351226096E+04  0.25367688339E+04  0.90199757386E+03 0.  0.
         23    2    4    4    0    0 -0.80672787672E+03  0.29612719390E+03  0.13149930940E+04  0.15734761373E+04  0.90106244882E+02 0.  0.
         23    2    4    4    0    0  0.15979401997E+02 -0.27288363877E+03  0.92012951566E+03  0.96329269658E+03  0.81078185085E+02 0.  0.
          2    1    3    3  502    0  0.49427152717E+03 -0.26795292268E+02  0.11289390790E+04  0.12326904617E+04  0.00000000000E+00 0. -1.
         -2    1    3    3    0  502  0.29647694755E+03  0.35517371438E+01  0.86014849702E+03  0.90981681244E+03  0.00000000000E+00 0.  1.
         11    1    5    5    0    0 -0.10108875488E+03  0.70334273338E+02  0.19264602881E+03  0.22864456867E+03  0.00000000000E+00 0.  1.
        -11    1    5    5    0    0 -0.70563912184E+03  0.22579292056E+03  0.11223470652E+04  0.13448315686E+04  0.00000000000E+00 0. -1.
          1    1    6    6  503    0  0.37740309409E+02 -0.19944420861E+03  0.74475194311E+03  0.77191824701E+03  0.00000000000E+00 0. -1.
         -1    1    6    6    0  503 -0.21760907412E+02 -0.73439430166E+02  0.17537757255E+03  0.19137444957E+03  0.00000000000E+00 0.  1.
<mgrwt>
<rscale>  0 0.20128768E+04</rscale>
<asrwt>0</asrwt>
<pdfrwt beam="1">  1        2 0.68488349E+00 0.20128768E+04</pdfrwt>
<pdfrwt beam="2">  1       -2 0.35005074E-01 0.20128768E+04</pdfrwt>
<totfact> 0.98966208E-01</totfact>
</mgrwt>
</event>
<event>
12    2  0.3561489E-008  0.1715630E+04  0.7818608E-02  0.8752500E-01
          2   -1    0    0  501    0  0.00000000000E+00  0.00000000000E+00  0.38013831148E+04  0.38013831148E+04  0.00000000000E+00 0. -1.
         -2   -1    0    0    0  501 -0.00000000000E+00 -0.00000000000E+00 -0.19357343094E+03  0.19357343094E+03  0.00000000000E+00 0.  1.
         23    2    1    2    0    0  0.32372447069E+03 -0.17204665043E+03  0.24516162045E+04  0.24805273297E+04  0.90533068717E+02 0.  0.
        254    2    1    2    0    0 -0.32372447069E+03  0.17204665043E+03  0.11561934794E+04  0.15144292160E+04  0.90681580585E+03 0.  0.
         23    2    4    4    0    0 -0.39744121485E+03 -0.54632618408E+02  0.93172138885E+02  0.42133918236E+03  0.88889914321E+02 0.  0.
         23    2    4    4    0    0  0.73716744160E+02  0.22667926884E+03  0.10630213405E+04  0.10930900337E+04  0.89519841691E+02 0.  0.
          4    1    3    3  502    0  0.12907427804E+03 -0.55609626117E+02  0.12328310086E+04  0.12408162215E+04  0.00000000000E+00 0. -1.
         -4    1    3    3    0  502  0.19465019266E+03 -0.11643702431E+03  0.12187851958E+04  0.12397111082E+04  0.00000000000E+00 0.  1.
         11    1    5    5    0    0 -0.23247089994E+03  0.10063981739E+02  0.38185239131E+02  0.23580100834E+03  0.00000000000E+00 0. -1.
        -11    1    5    5    0    0 -0.16497031492E+03 -0.64696600147E+02  0.54986899754E+02  0.18553817402E+03  0.00000000000E+00 0.  1.
          1    1    6    6  503    0  0.14620411930E+02  0.16151515036E+02  0.29399132579E+02  0.36591486433E+02  0.00000000000E+00 0. -1.
         -1    1    6    6    0  503  0.59096332230E+02  0.21052775380E+03  0.10336222079E+04  0.10564985472E+04  0.00000000000E+00 0.  1.
<mgrwt>
<rscale>  0 0.17156302E+04</rscale>
<asrwt>0</asrwt>
<pdfrwt beam="1">  1        2 0.58482812E+00 0.17156302E+04</pdfrwt>
<pdfrwt beam="2">  1       -2 0.29780531E-01 0.17156302E+04</pdfrwt>
<totfact> 0.49075181E+00</totfact>
</mgrwt>
</event>
<event>
12    2  0.3561489E-008  0.2348868E+04  0.7818608E-02  0.8458898E-01
         -2   -1    0    0    0  501 -0.00000000000E+00  0.00000000000E+00  0.85789916207E+03  0.85789916207E+03  0.00000000000E+00 0.  1.
          2   -1    0    0  501    0  0.00000000000E+00 -0.00000000000E+00 -0.16077596200E+04  0.16077596200E+04  0.00000000000E+00 0. -1.
         23    2    1    2    0    0 -0.76423169273E+02 -0.18977231959E+03 -0.13456409548E+04  0.13641147720E+04  0.90584203407E+02 0.  0.
        254    2    1    2    0    0  0.76423169273E+02  0.18977231959E+03  0.59578049686E+03  0.11015440101E+04  0.90365412166E+03 0.  0.
         23    2    4    4    0    0  0.18611039263E+03  0.43756193349E+03  0.65000252103E+03  0.81056182167E+03  0.91704228494E+02 0.  0.
         23    2    4    4    0    0 -0.10968722336E+03 -0.24778961390E+03 -0.54222024165E+02  0.29098218840E+03  0.91102285030E+02 0.  0.
          3    1    3    3  502    0 -0.71399459451E+02 -0.19358963248E+03 -0.11494782167E+04  0.11678505895E+04  0.00000000000E+00 0. -1.
         -3    1    3    3    0  502 -0.50237098224E+01  0.38173128923E+01 -0.19616273808E+03  0.19626418254E+03  0.00000000000E+00 0.  1.
         11    1    5    5    0    0  0.17682018118E+03  0.38047447792E+03  0.51910220374E+03  0.66745284683E+03  0.00000000000E+00 0.  1.
        -11    1    5    5    0    0  0.92902114521E+01  0.57087455565E+02  0.13090031729E+03  0.14310897483E+03  0.00000000000E+00 0. -1.
          3    1    6    6  503    0 -0.10155702155E+03 -0.11744562369E+03 -0.27608313258E+02  0.15770073592E+03  0.00000000000E+00 0. -1.
         -3    1    6    6    0  503 -0.81302018022E+01 -0.13034399021E+03 -0.26613710906E+02  0.13328145248E+03  0.00000000000E+00 0.  1.
<mgrwt>
<rscale>  0 0.23488683E+04</rscale>
<asrwt>0</asrwt>
<pdfrwt beam="1">  1        2 0.24734764E+00 0.23488683E+04</pdfrwt>
<pdfrwt beam="2">  1       -2 0.13198449E+00 0.23488683E+04</pdfrwt>
<totfact> 0.41672458E+00</totfact>
</mgrwt>
</event>
<event>
12    2  0.3561489E-008  0.1317652E+04  0.7818608E-02  0.9015683E-01
         -1   -1    0    0    0  501 -0.00000000000E+00  0.00000000000E+00  0.51858850099E+03  0.51858850099E+03  0.00000000000E+00 0.  1.
          1   -1    0    0  501    0  0.00000000000E+00 -0.00000000000E+00 -0.83698664372E+03  0.83698664372E+03  0.00000000000E+00 0. -1.
         23    2    1    2    0    0  0.19490226510E+03 -0.68608630733E+02  0.20857591878E+03  0.30796960418E+03  0.92990999836E+02 0.  0.
        254    2    1    2    0    0 -0.19490226510E+03  0.68608630733E+02 -0.52697406152E+03  0.10476055405E+04  0.88152235927E+03 0.  0.
         23    2    4    4    0    0 -0.36840308199E+03 -0.29651876108E+03 -0.35634208177E+03  0.59925451957E+03  0.92098281718E+02 0.  0.
         23    2    4    4    0    0  0.17350081689E+03  0.36512739181E+03 -0.17063197975E+03  0.44835102096E+03  0.92102224561E+02 0.  0.
          1    1    3    3  502    0  0.68314623450E+02  0.10824337692E+02  0.30775387168E+02  0.75704547545E+02  0.00000000000E+00 0. -1.
         -1    1    3    3    0  502  0.12658764165E+03 -0.79432968424E+02  0.17780053162E+03  0.23226505663E+03  0.00000000000E+00 0.  1.
         11    1    5    5    0    0 -0.17588895490E+02 -0.91439529425E+01  0.37623271838E+01  0.20177616951E+02  0.00000000000E+00 0. -1.
        -11    1    5    5    0    0 -0.35081418650E+03 -0.28737480814E+03 -0.36010440895E+03  0.57907690262E+03  0.00000000000E+00 0.  1.
          1    1    6    6  503    0  0.91537617706E+01  0.11790600233E+02  0.10872232200E+02  0.18466592578E+02  0.00000000000E+00 0. -1.
         -1    1    6    6    0  503  0.16434705512E+03  0.35333679158E+03 -0.18150421195E+03  0.42988442838E+03  0.00000000000E+00 0.  1.
<mgrwt>
<rscale>  0 0.13176519E+04</rscale>
<asrwt>0</asrwt>
<pdfrwt beam="1">  1        1 0.12876717E+00 0.13176519E+04</pdfrwt>
<pdfrwt beam="2">  1       -1 0.79782847E-01 0.13176519E+04</pdfrwt>
<totfact> 0.31638935E+01</totfact>
</mgrwt>
</event>
<event>
12    2  0.3561489E-008  0.1082721E+04  0.7818608E-02  0.9222199E-01
         -2   -1    0    0    0  501 -0.00000000000E+00  0.00000000000E+00  0.11345162643E+03  0.11345162643E+03  0.00000000000E+00 0.  1.
          2   -1    0    0  501    0  0.00000000000E+00 -0.00000000000E+00 -0.25832261012E+04  0.25832261012E+04  0.00000000000E+00 0. -1.
         23    2    1    2    0    0  0.12768223807E+03 -0.90256988821E+01 -0.57313418310E+03  0.59429174300E+03  0.91190278027E+02 0.  0.
        254    2    1    2    0    0 -0.12768223807E+03  0.90256988821E+01 -0.18966402917E+04  0.21023859846E+04  0.89799677905E+03 0.  0.
         23    2    4    4    0    0 -0.30914225673E+03 -0.36177650375E+03 -0.97301673617E+03  0.10867868274E+04  0.88841802246E+02 0.  0.
         23    2    4    4    0    0  0.18146001866E+03  0.37080220263E+03 -0.92362355551E+03  0.10155991572E+04  0.89101986388E+02 0.  0.
          1    1    3    3  502    0  0.79157111730E+02  0.24495244496E+02 -0.45236309106E+03  0.45988936875E+03  0.00000000000E+00 0. -1.
         -1    1    3    3    0  502  0.48525126344E+02 -0.33520943378E+02 -0.12077109204E+03  0.13440237425E+03  0.00000000000E+00 0.  1.
         11    1    5    5    0    0 -0.11175379820E+03 -0.19709764726E+03 -0.47934505153E+03  0.53019625838E+03  0.00000000000E+00 0. -1.
        -11    1    5    5    0    0 -0.19738845853E+03 -0.16467885649E+03 -0.49367168463E+03  0.55659056904E+03  0.00000000000E+00 0.  1.
          4    1    6    6  503    0 -0.46426055999E+01  0.38354286798E+02 -0.56266772189E+02  0.68253606169E+02  0.00000000000E+00 0. -1.
         -4    1    6    6    0  503  0.18610262426E+03  0.33244791584E+03 -0.86735678332E+03  0.94734555104E+03  0.00000000000E+00 0.  1.
<mgrwt>
<rscale>  0 0.10827210E+04</rscale>
<asrwt>0</asrwt>
<pdfrwt beam="1">  1        2 0.39741937E+00 0.10827210E+04</pdfrwt>
<pdfrwt beam="2">  1       -2 0.17454098E-01 0.10827210E+04</pdfrwt>
<totfact> 0.84751895E+01</totfact>
</mgrwt>
</event>
<event>
12    2  0.3561489E-008  0.1496586E+04  0.7818608E-02  0.8886726E-01
          2   -1    0    0  501    0  0.00000000000E+00  0.00000000000E+00  0.15011795280E+04  0.15011795280E+04  0.00000000000E+00 0. -1.
         -2   -1    0    0    0  501 -0.00000000000E+00 -0.00000000000E+00 -0.37300169015E+03  0.37300169015E+03  0.00000000000E+00 0.  1.
         23    2    1    2    0    0 -0.46376211655E+03 -0.95293855371E+02  0.33528502633E+03  0.58723214447E+03  0.90935818055E+02 0.  0.
        254    2    1    2    0    0  0.46376211655E+03  0.95293855371E+02  0.79289281150E+03  0.12869490737E+04  0.89632733308E+03 0.  0.
         23    2    4    4    0    0 -0.12884500282E+03 -0.16281544575E+03 -0.37065341523E+02  0.23098222844E+03  0.94175613542E+02 0.  0.
         23    2    4    4    0    0  0.59260711936E+03  0.25810930112E+03  0.82995815303E+03  0.10559668452E+04  0.91825013873E+02 0.  0.
          2    1    3    3  502    0 -0.12167913063E+03 -0.47781715688E+02  0.13533383639E+03  0.18815990662E+03  0.00000000000E+00 0.  1.
         -2    1    3    3    0  502 -0.34208298591E+03 -0.47512139683E+02  0.19995118993E+03  0.39907223785E+03  0.00000000000E+00 0. -1.
         11    1    5    5    0    0  0.33680381948E+01 -0.48312785283E+01  0.17005506956E+02  0.17996449659E+02  0.00000000000E+00 0.  1.
        -11    1    5    5    0    0 -0.13221304101E+03 -0.15798416722E+03 -0.54070848479E+02  0.21298577878E+03  0.00000000000E+00 0. -1.
          3    1    6    6  503    0  0.56523419666E+03  0.26355903930E+03  0.77930107082E+03  0.99812986291E+03  0.00000000000E+00 0. -1.
         -3    1    6    6    0  503  0.27372922708E+02 -0.54497381755E+01  0.50657082207E+02  0.57836982300E+02  0.00000000000E+00 0.  1.
<mgrwt>
<rscale>  0 0.14965861E+04</rscale>
<asrwt>0</asrwt>
<pdfrwt beam="1">  1        2 0.23095069E+00 0.14965861E+04</pdfrwt>
<pdfrwt beam="2">  1       -2 0.57384876E-01 0.14965861E+04</pdfrwt>
<totfact> 0.34843010E+01</totfact>
</mgrwt>
</event>
<event>
12    2  0.3561489E-008  0.1370297E+04  0.7818608E-02  0.8975604E-01
          2   -1    0    0  501    0  0.00000000000E+00  0.00000000000E+00  0.90093792349E+03  0.90093792349E+03  0.00000000000E+00 0. -1.
         -2   -1    0    0    0  501 -0.00000000000E+00 -0.00000000000E+00 -0.52104439747E+03  0.52104439747E+03  0.00000000000E+00 0.  1.
         23    2    1    2    0    0 -0.68592364881E+02 -0.15949662250E+03 -0.24848254970E+03  0.31762169176E+03  0.94846594367E+02 0.  0.
        254    2    1    2    0    0  0.68592364881E+02  0.15949662250E+03  0.62837607571E+03  0.11043606292E+04  0.89141001885E+03 0.  0.
         23    2    4    4    0    0  0.34360585967E+03  0.37681706998E+03  0.49915816799E+03  0.71960679879E+03  0.92838446585E+02 0.  0.
         23    2    4    4    0    0 -0.27501349479E+03 -0.21732044749E+03  0.12921790772E+03  0.38475383041E+03  0.92074117566E+02 0.  0.
          2    1    3    3  502    0 -0.11032485894E+01  0.65852311252E+01  0.41381478689E+01  0.78553608578E+01  0.00000000000E+00 0. -1.
         -2    1    3    3    0  502 -0.67489116291E+02 -0.16608185362E+03 -0.25262069756E+03  0.30976633090E+03  0.00000000000E+00 0.  1.
         11    1    5    5    0    0  0.57315666980E+02  0.21205674155E+02  0.47406554899E+02  0.77344345269E+02  0.00000000000E+00 0. -1.
        -11    1    5    5    0    0  0.28629019269E+03  0.35561139583E+03  0.45175161309E+03  0.64226245352E+03  0.00000000000E+00 0.  1.
          2    1    6    6  503    0 -0.82634026309E+01 -0.29671105250E+02  0.32039070384E+02  0.44442776026E+02  0.00000000000E+00 0. -1.
         -2    1    6    6    0  503 -0.26675009216E+03 -0.18764934224E+03  0.97178837339E+02  0.34031105439E+03  0.00000000000E+00 0.  1.
<mgrwt>
<rscale>  0 0.13702973E+04</rscale>
<asrwt>0</asrwt>
<pdfrwt beam="1">  1        2 0.13860583E+00 0.13702973E+04</pdfrwt>
<pdfrwt beam="2">  1       -2 0.80160676E-01 0.13702973E+04</pdfrwt>
<totfact> 0.39310378E+01</totfact>
</mgrwt>
</event>
<event>
12    2  0.3561489E-008  0.2918534E+04  0.7818608E-02  0.8267384E-01
         -2   -1    0    0    0  501 -0.00000000000E+00  0.00000000000E+00  0.59840950771E+03  0.59840950771E+03  0.00000000000E+00 0.  1.
          2   -1    0    0  501    0  0.00000000000E+00 -0.00000000000E+00 -0.35585326326E+04  0.35585326326E+04  0.00000000000E+00 0. -1.
         23    2    1    2    0    0 -0.95193126213E+03 -0.15235544745E+03 -0.26292670021E+04  0.28019890759E+04  0.93340787103E+02 0.  0.
        254    2    1    2    0    0  0.95193126213E+03  0.15235544745E+03 -0.33085612280E+03  0.13549530645E+04  0.89277473239E+03 0.  0.
         23    2    4    4    0    0  0.67914435091E+03 -0.29726156720E+03 -0.42800419830E+02  0.74831409202E+03  0.92415451444E+02 0.  0.
         23    2    4    4    0    0  0.27278691122E+03  0.44961701465E+03 -0.28805570297E+03  0.60663897247E+03  0.92014108232E+02 0.  0.
          1    1    3    3  502    0 -0.78669022302E+03 -0.10606163200E+03 -0.22428523438E+04  0.23791841485E+04  0.00000000000E+00 0. -1.
         -1    1    3    3    0  502 -0.16524103911E+03 -0.46293815449E+02 -0.38641465837E+03  0.42280492731E+03  0.00000000000E+00 0.  1.
         11    1    5    5    0    0  0.41037177835E+03 -0.18655740825E+03  0.18805402939E+02  0.45117879629E+03  0.00000000000E+00 0. -1.
        -11    1    5    5    0    0  0.26877257256E+03 -0.11070415896E+03 -0.61605822770E+02  0.29713529574E+03  0.00000000000E+00 0.  1.
          3    1    6    6  503    0  0.23248117979E+03  0.40030491356E+03 -0.21711192792E+03  0.51130139059E+03  0.00000000000E+00 0. -1.
         -3    1    6    6    0  503  0.40305731431E+02  0.49312101088E+02 -0.70943775056E+02  0.95337581882E+02  0.00000000000E+00 0.  1.
<mgrwt>
<rscale>  0 0.29185337E+04</rscale>
<asrwt>0</asrwt>
<pdfrwt beam="1">  1        2 0.54746654E+00 0.29185337E+04</pdfrwt>
<pdfrwt beam="2">  1       -2 0.92063004E-01 0.29185337E+04</pdfrwt>
<totfact> 0.63843095E-01</totfact>
</mgrwt>
</event>
<event>
12    2  0.3561489E-008  0.2364381E+04  0.7818608E-02  0.8452960E-01
          2   -1    0    0  501    0  0.00000000000E+00  0.00000000000E+00  0.11714540989E+04  0.11714540989E+04  0.00000000000E+00 0. -1.
         -2   -1    0    0    0  501 -0.00000000000E+00 -0.00000000000E+00 -0.11930254064E+04  0.11930254064E+04  0.00000000000E+00 0.  1.
         23    2    1    2    0    0 -0.24414867950E+03  0.92664014890E+03  0.30771319341E+03  0.10106610176E+04  0.92074643228E+02 0.  0.
        254    2    1    2    0    0  0.24414867950E+03 -0.92664014890E+03 -0.32928450095E+03  0.13538184877E+04  0.89784501546E+03 0.  0.
         23    2    4    4    0    0  0.41769825218E+03 -0.69297546512E+02 -0.88858414777E+02  0.44215259046E+03  0.91263988242E+02 0.  0.
         23    2    4    4    0    0 -0.17354957268E+03 -0.85734260238E+03 -0.24042608617E+03  0.91166589723E+03  0.90411355587E+02 0.  0.
          3    1    3    3  502    0 -0.24177656165E+03  0.90750561945E+03  0.28626357999E+03  0.98181932774E+03  0.00000000000E+00 0. -1.
         -3    1    3    3    0  502 -0.23721178459E+01  0.19134529443E+02  0.21449613417E+02  0.28841689891E+02  0.00000000000E+00 0.  1.
         11    1    5    5    0    0  0.35036703120E+03 -0.87101591378E+02 -0.91539388924E+02  0.37245563963E+03  0.00000000000E+00 0.  1.
        -11    1    5    5    0    0  0.67331220980E+02  0.17804044865E+02  0.26809741463E+01  0.69696950827E+02  0.00000000000E+00 0. -1.
          3    1    6    6  503    0 -0.84120338483E+02 -0.53174667341E+03 -0.18640847084E+03  0.56971824091E+03  0.00000000000E+00 0. -1.
         -3    1    6    6    0  503 -0.89429234193E+02 -0.32559592898E+03 -0.54017615330E+02  0.34194765632E+03  0.00000000000E+00 0.  1.
<mgrwt>
<rscale>  0 0.23643811E+04</rscale>
<asrwt>0</asrwt>
<pdfrwt beam="1">  1        2 0.18022371E+00 0.23643811E+04</pdfrwt>
<pdfrwt beam="2">  1       -2 0.18354237E+00 0.23643811E+04</pdfrwt>
<totfact> 0.30463564E+00</totfact>
</mgrwt>
</event>
<event>
12    2  0.3561489E-008  0.1173207E+04  0.7818608E-02  0.9136637E-01
         -2   -1    0    0    0  501 -0.00000000000E+00  0.00000000000E+00  0.22751042154E+03  0.22751042154E+03  0.00000000000E+00 0.  1.
          2   -1    0    0  501    0  0.00000000000E+00 -0.00000000000E+00 -0.15124736124E+04  0.15124736124E+04  0.00000000000E+00 0. -1.
         23    2    1    2    0    0 -0.76847950011E+02 -0.19513220397E+03 -0.11490708351E+03  0.25530934078E+03  0.89426155023E+02 0.  0.
        254    2    1    2    0    0  0.76847950011E+02  0.19513220397E+03 -0.11700561074E+04  0.14846746932E+04  0.88951979501E+03 0.  0.
         23    2    4    4    0    0  0.17830735942E+02 -0.28887212512E+03 -0.82988805918E+03  0.88340121879E+03  0.88985857123E+02 0.  0.
         23    2    4    4    0    0  0.59017214069E+02  0.48400432909E+03 -0.34016804821E+03  0.60127347441E+03  0.89845800494E+02 0.  0.
          3    1    3    3  502    0 -0.40705354333E+01 -0.52112090884E+02  0.83897464031E+01  0.52939844349E+02  0.00000000000E+00 0. -1.
         -3    1    3    3    0  502 -0.72777414578E+02 -0.14302011308E+03 -0.12329682991E+03  0.20236949643E+03  0.00000000000E+00 0.  1.
         11    1    5    5    0    0 -0.72826960850E+01 -0.34165959509E+02 -0.40123498590E+02  0.53200052543E+02  0.00000000000E+00 0. -1.
        -11    1    5    5    0    0  0.25113432027E+02 -0.25470616561E+03 -0.78976456059E+03  0.83020116624E+03  0.00000000000E+00 0.  1.
          1    1    6    6  503    0 -0.20940126253E+02  0.50609856831E+02 -0.31008983054E+02  0.62939681649E+02  0.00000000000E+00 0. -1.
         -1    1    6    6    0  503  0.79957340323E+02  0.43339447226E+03 -0.30915906516E+03  0.53833379276E+03  0.00000000000E+00 0.  1.
<mgrwt>
<rscale>  0 0.11732067E+04</rscale>
<asrwt>0</asrwt>
<pdfrwt beam="1">  1        2 0.23268825E+00 0.11732067E+04</pdfrwt>
<pdfrwt beam="2">  1       -2 0.35001604E-01 0.11732067E+04</pdfrwt>
<totfact> 0.94507803E+01</totfact>
</mgrwt>
</event>
<event>
12    2  0.3561489E-008  0.1186153E+04  0.7818608E-02  0.9125064E-01
         -1   -1    0    0    0  501 -0.00000000000E+00  0.00000000000E+00  0.12906536970E+04  0.12906536970E+04  0.00000000000E+00 0.  1.
          1   -1    0    0  501    0  0.00000000000E+00 -0.00000000000E+00 -0.27252824889E+03  0.27252824889E+03  0.00000000000E+00 0. -1.
         23    2    1    2    0    0 -0.13980457864E+03 -0.15377599009E+03  0.35668998934E+03  0.42521487368E+03  0.10191940428E+03 0.  0.
        254    2    1    2    0    0  0.13980457864E+03  0.15377599009E+03  0.66143545877E+03  0.11379670722E+04  0.90237454306E+03 0.  0.
         23    2    4    4    0    0  0.40605042213E+03 -0.16995828617E+03  0.15821421575E+03  0.47677968515E+03  0.92327491882E+02 0.  0.
         23    2    4    4    0    0 -0.26624584349E+03  0.32373427626E+03  0.50322124302E+03  0.66118738706E+03  0.90809749333E+02 0.  0.
          3    1    3    3  502    0 -0.61598860159E+02 -0.34502237091E+02  0.48602342678E+02  0.85714710820E+02  0.00000000000E+00 0. -1.
         -3    1    3    3    0  502 -0.78205718483E+02 -0.11927375300E+03  0.30808764666E+03  0.33950016286E+03  0.00000000000E+00 0.  1.
         11    1    5    5    0    0  0.23975467225E+03 -0.95713281691E+02  0.14021681209E+03  0.29377557685E+03  0.00000000000E+00 0.  1.
        -11    1    5    5    0    0  0.16629574988E+03 -0.74245004480E+02  0.17997403660E+02  0.18300410830E+03  0.00000000000E+00 0. -1.
          4    1    6    6  503    0 -0.31483553357E+02  0.32068196916E+02  0.18247461080E+02  0.48503125892E+02  0.00000000000E+00 0.  1.
         -4    1    6    6    0  503 -0.23476229013E+03  0.29166607935E+03  0.48497378194E+03  0.61268426116E+03  0.00000000000E+00 0. -1.
<mgrwt>
<rscale>  0 0.11861528E+04</rscale>
<asrwt>0</asrwt>
<pdfrwt beam="1">  1        1 0.41927424E-01 0.11861528E+04</pdfrwt>
<pdfrwt beam="2">  1       -1 0.19856210E+00 0.11861528E+04</pdfrwt>
<totfact> 0.15166565E+01</totfact>
</mgrwt>
</event>
<event>
12    2  0.3561489E-008  0.1148510E+04  0.7818608E-02  0.9159159E-01
          2   -1    0    0  501    0  0.00000000000E+00  0.00000000000E+00  0.14283107874E+04  0.14283107874E+04  0.00000000000E+00 0. -1.
         -2   -1    0    0    0  501 -0.00000000000E+00 -0.00000000000E+00 -0.23088044249E+03  0.23088044249E+03  0.00000000000E+00 0.  1.
         23    2    1    2    0    0  0.38775887909E+02  0.20431458942E+03  0.15721875545E+03  0.27670224970E+03  0.92727433866E+02 0.  0.
        254    2    1    2    0    0 -0.38775887909E+02 -0.20431458942E+03  0.10402115895E+04  0.13824889802E+04  0.88655942193E+03 0.  0.
         23    2    4    4    0    0 -0.20431168451E+03  0.94449177786E+02  0.99711578386E+03  0.10261987595E+04  0.90443882637E+02 0.  0.
         23    2    4    4    0    0  0.16553579660E+03 -0.29876376721E+03  0.43095805643E+02  0.35629022077E+03  0.91780087166E+02 0.  0.
          3    1    3    3  502    0 -0.23677057178E+02  0.14300853416E+02  0.17819437018E+02  0.32903643881E+02  0.00000000000E+00 0. -1.
         -3    1    3    3    0  502  0.62452945087E+02  0.19001373600E+03  0.13939931843E+03  0.24379860582E+03  0.00000000000E+00 0.  1.
         11    1    5    5    0    0 -0.45267097607E+02  0.66513850090E+02  0.29730436449E+03  0.30799851870E+03  0.00000000000E+00 0.  1.
        -11    1    5    5    0    0 -0.15904458690E+03  0.27935327696E+02  0.69981141937E+03  0.71820024077E+03  0.00000000000E+00 0. -1.
          3    1    6    6  503    0  0.15514724440E+03 -0.28550818056E+03  0.62182474532E+02  0.33083568240E+03  0.00000000000E+00 0. -1.
         -3    1    6    6    0  503  0.10388552201E+02 -0.13255586645E+02 -0.19086668889E+02  0.25454538366E+02  0.00000000000E+00 0.  1.
<mgrwt>
<rscale>  0 0.11485104E+04</rscale>
<asrwt>0</asrwt>
<pdfrwt beam="1">  1        2 0.21974012E+00 0.11485104E+04</pdfrwt>
<pdfrwt beam="2">  1       -2 0.35520069E-01 0.11485104E+04</pdfrwt>
<totfact> 0.10270202E+02</totfact>
</mgrwt>
</event>
<event>
12    2  0.3561489E-008  0.2008905E+04  0.7818608E-02  0.8602469E-01
          1   -1    0    0  501    0  0.00000000000E+00  0.00000000000E+00  0.17534556754E+04  0.17534556754E+04  0.00000000000E+00 0. -1.
         -1   -1    0    0    0  501 -0.00000000000E+00 -0.00000000000E+00 -0.57539227468E+03  0.57539227468E+03  0.00000000000E+00 0.  1.
         23    2    1    2    0    0  0.74971157578E+03  0.22465485410E+03  0.74427748086E+03  0.10833733187E+04  0.84920720728E+02 0.  0.
        254    2    1    2    0    0 -0.74971157578E+03 -0.22465485410E+03  0.43378591985E+03  0.12454746314E+04  0.86631379003E+03 0.  0.
         23    2    4    4    0    0 -0.71697129807E+03  0.12572797264E+02 -0.21370869168E+02  0.72313064511E+03  0.90858672502E+02 0.  0.
         23    2    4    4    0    0 -0.32740277719E+02 -0.23722765136E+03  0.45515678902E+03  0.52234398626E+03  0.91250496085E+02 0.  0.
          1    1    3    3  502    0  0.95724686554E+02  0.46373063887E+02  0.13564801366E+03  0.17237766758E+03  0.00000000000E+00 0. -1.
         -1    1    3    3    0  502  0.65398688923E+03  0.17828179021E+03  0.60862946719E+03  0.91099565111E+03  0.00000000000E+00 0.  1.
         11    1    5    5    0    0 -0.28894852510E+03  0.35688133091E+02  0.23775268494E+02  0.29211325953E+03  0.00000000000E+00 0. -1.
        -11    1    5    5    0    0 -0.42802277297E+03 -0.23115335828E+02 -0.45146137663E+02  0.43101738558E+03  0.00000000000E+00 0.  1.
          2    1    6    6  503    0  0.29868263185E+02 -0.94172527561E+02  0.20271597065E+03  0.22550907487E+03  0.00000000000E+00 0. -1.
         -2    1    6    6    0  503 -0.62608540904E+02 -0.14305512380E+03  0.25244081837E+03  0.29683491139E+03  0.00000000000E+00 0.  1.
<mgrwt>
<rscale>  0 0.20089050E+04</rscale>
<asrwt>0</asrwt>
<pdfrwt beam="1">  1        1 0.26976241E+00 0.20089050E+04</pdfrwt>
<pdfrwt beam="2">  1       -1 0.88521889E-01 0.20089050E+04</pdfrwt>
<totfact> 0.50886894E+00</totfact>
</mgrwt>
</event>
<event>
12    2  0.3561489E-008  0.1560797E+04  0.7818608E-02  0.8845001E-01
          1   -1    0    0  501    0  0.00000000000E+00  0.00000000000E+00  0.53264213425E+03  0.53264213425E+03  0.00000000000E+00 0. -1.
         -1   -1    0    0    0  501 -0.00000000000E+00 -0.00000000000E+00 -0.11433975023E+04  0.11433975023E+04  0.00000000000E+00 0.  1.
         23    2    1    2    0    0  0.12247572412E+03 -0.28020927040E+03  0.24159677613E+03  0.40042884694E+03  0.91960431765E+02 0.  0.
        254    2    1    2    0    0 -0.12247572412E+03  0.28020927040E+03 -0.85235214414E+03  0.12756107896E+04  0.89842148829E+03 0.  0.
         23    2    4    4    0    0  0.14059297856E+03  0.27193748923E+03  0.58209068077E+02  0.32375777635E+03  0.87831762320E+02 0.  0.
         23    2    4    4    0    0 -0.26306870269E+03  0.82717811675E+01 -0.91056121222E+03  0.95185301322E+03  0.87343419183E+02 0.  0.
          4    1    3    3  502    0  0.11730087097E+03 -0.17385639819E+03  0.13301932203E+03  0.24835394411E+03  0.00000000000E+00 0. -1.
         -4    1    3    3    0  502  0.51748531506E+01 -0.10635287221E+03  0.10857745410E+03  0.15207490283E+03  0.00000000000E+00 0.  1.
         11    1    5    5    0    0  0.11219654297E+03  0.16903401121E+03  0.73777518328E+02  0.21587886282E+03  0.00000000000E+00 0. -1.
        -11    1    5    5    0    0  0.28396435599E+02  0.10290347801E+03 -0.15568450251E+02  0.10787891353E+03  0.00000000000E+00 0.  1.
          4    1    6    6  503    0 -0.26019322043E+03 -0.28171632574E+01 -0.89759639593E+03  0.93455215925E+03  0.00000000000E+00 0. -1.
         -4    1    6    6    0  503 -0.28754822636E+01  0.11088944425E+02 -0.12964816286E+02  0.17300853968E+02  0.00000000000E+00 0.  1.
<mgrwt>
<rscale>  0 0.15607968E+04</rscale>
<asrwt>0</asrwt>
<pdfrwt beam="1">  1        1 0.81944944E-01 0.15607968E+04</pdfrwt>
<pdfrwt beam="2">  1       -1 0.17590731E+00 0.15607968E+04</pdfrwt>
<totfact> 0.87020600E+00</totfact>
</mgrwt>
</event>
<event>
12    2  0.3561489E-008  0.2152357E+04  0.7818608E-02  0.8538524E-01
         -2   -1    0    0    0  501 -0.00000000000E+00  0.00000000000E+00  0.41823220300E+03  0.41823220300E+03  0.00000000000E+00 0.  1.
          2   -1    0    0  501    0  0.00000000000E+00 -0.00000000000E+00 -0.27691794585E+04  0.27691794585E+04  0.00000000000E+00 0. -1.
         23    2    1    2    0    0 -0.47300417002E+03 -0.83617343986E+02  0.13098021519E+03  0.50597851263E+03  0.90186658647E+02 0.  0.
        254    2    1    2    0    0  0.47300417002E+03  0.83617343986E+02 -0.24819274707E+04  0.26814331489E+04  0.89408889773E+03 0.  0.
         23    2    4    4    0    0  0.73170523045E+01 -0.27720854870E+03 -0.29424002538E+03  0.41397896292E+03  0.88900340114E+02 0.  0.
         23    2    4    4    0    0  0.46568711772E+03  0.36082589269E+03 -0.21876874454E+04  0.22674541860E+04  0.91171873990E+02 0.  0.
          2    1    3    3  502    0 -0.21491130910E+03 -0.40826455815E+02  0.13430063788E+02  0.21916668744E+03  0.00000000000E+00 0. -1.
         -2    1    3    3    0  502 -0.25809286093E+03 -0.42790888172E+02  0.11755015140E+03  0.28681182519E+03  0.00000000000E+00 0.  1.
         11    1    5    5    0    0 -0.16847159708E+02 -0.24408403764E+03 -0.21933299297E+03  0.32858454928E+03  0.00000000000E+00 0. -1.
        -11    1    5    5    0    0  0.24164212012E+02 -0.33124511064E+02 -0.74907032417E+02  0.85394413640E+02  0.00000000000E+00 0.  1.
          3    1    6    6  503    0  0.36028515200E+03  0.23015646239E+03 -0.16200060879E+04  0.16754692216E+04  0.00000000000E+00 0. -1.
         -3    1    6    6    0  503  0.10540196572E+03  0.13066943030E+03 -0.56768135748E+03  0.59198496436E+03  0.00000000000E+00 0.  1.
<mgrwt>
<rscale>  0 0.21523569E+04</rscale>
<asrwt>0</asrwt>
<pdfrwt beam="1">  1        2 0.42602762E+00 0.21523569E+04</pdfrwt>
<pdfrwt beam="2">  1       -2 0.64343414E-01 0.21523569E+04</pdfrwt>
<totfact> 0.49458170E+00</totfact>
</mgrwt>
</event>
<event>
12    2  0.3561489E-008  0.2720032E+04  0.7818608E-02  0.8328534E-01
         -1   -1    0    0    0  501 -0.00000000000E+00  0.00000000000E+00  0.16713481887E+04  0.16713481887E+04  0.00000000000E+00 0.  1.
          1   -1    0    0  501    0  0.00000000000E+00 -0.00000000000E+00 -0.11066778842E+04  0.11066778842E+04  0.00000000000E+00 0. -1.
         23    2    1    2    0    0 -0.62040907485E+03 -0.37719140675E+03 -0.73383716360E+03  0.10365945848E+04  0.93971128667E+02 0.  0.
        254    2    1    2    0    0  0.62040907485E+03  0.37719140675E+03  0.12985074681E+04  0.17414314881E+04  0.90514153893E+03 0.  0.
         23    2    4    4    0    0  0.39590220760E+03 -0.19458067697E+03  0.89160216721E+03  0.99902190441E+03  0.92141972424E+02 0.  0.
         23    2    4    4    0    0  0.22450686725E+03  0.57177208372E+03  0.40690530088E+03  0.74240958367E+03  0.90958324905E+02 0.  0.
          3    1    3    3  502    0 -0.52784297071E+03 -0.32349859161E+03 -0.66888180125E+03  0.91141231314E+03  0.00000000000E+00 0. -1.
         -3    1    3    3    0  502 -0.92566104139E+02 -0.53692815143E+02 -0.64955362345E+02  0.12518227163E+03  0.00000000000E+00 0.  1.
         11    1    5    5    0    0  0.32378317765E+03 -0.19107092213E+03  0.78338615274E+03  0.86892894284E+03  0.00000000000E+00 0. -1.
        -11    1    5    5    0    0  0.72119029952E+02 -0.35097548377E+01  0.10821601448E+03  0.13009296157E+03  0.00000000000E+00 0.  1.
          3    1    6    6  503    0  0.14967953673E+03  0.45857388429E+03  0.28684051239E+03  0.56122317363E+03  0.00000000000E+00 0. -1.
         -3    1    6    6    0  503  0.74827330518E+02  0.11319819943E+03  0.12006478849E+03  0.18118641003E+03  0.00000000000E+00 0.  1.
<mgrwt>
<rscale>  0 0.27200324E+04</rscale>
<asrwt>0</asrwt>
<pdfrwt beam="1">  1        1 0.17025814E+00 0.27200324E+04</pdfrwt>
<pdfrwt beam="2">  1       -1 0.25713049E+00 0.27200324E+04</pdfrwt>
<totfact> 0.68423333E-01</totfact>
</mgrwt>
</event>
<event>
12    2  0.3561489E-008  0.1180158E+04  0.7818608E-02  0.9130404E-01
         -2   -1    0    0    0  501 -0.00000000000E+00  0.00000000000E+00  0.61924576417E+03  0.61924576417E+03  0.00000000000E+00 0.  1.
          2   -1    0    0  501    0  0.00000000000E+00 -0.00000000000E+00 -0.56228604401E+03  0.56228604401E+03  0.00000000000E+00 0. -1.
         23    2    1    2    0    0  0.89588963932E+02  0.21998732406E+02  0.23088501773E+03  0.26967256185E+03  0.10442831281E+03 0.  0.
        254    2    1    2    0    0 -0.89588963932E+02 -0.21998732406E+02 -0.17392529758E+03  0.91185924633E+03  0.89035226135E+03 0.  0.
         23    2    4    4    0    0 -0.14059069567E+03  0.25380920433E+03  0.25085511990E+03  0.39454464905E+03  0.92478824640E+02 0.  0.
         23    2    4    4    0    0  0.51001731735E+02 -0.27580793673E+03 -0.42478041748E+03  0.51731459727E+03  0.92221444744E+02 0.  0.
          3    1    3    3  502    0  0.36987313814E+02 -0.42323389934E+02  0.96317301042E+02  0.11151839848E+03  0.00000000000E+00 0. -1.
         -3    1    3    3    0  502  0.52601650118E+02  0.64322122340E+02  0.13456771669E+03  0.15815416337E+03  0.00000000000E+00 0.  1.
         11    1    5    5    0    0 -0.83043630497E+02  0.62875937212E+02  0.10109873574E+03  0.14515709564E+03  0.00000000000E+00 0. -1.
        -11    1    5    5    0    0 -0.57547065171E+02  0.19093326711E+03  0.14975638417E+03  0.24938755342E+03  0.00000000000E+00 0.  1.
          1    1    6    6  503    0  0.57314748011E+02 -0.92376858910E+02 -0.12351377883E+03  0.16454214646E+03  0.00000000000E+00 0. -1.
         -1    1    6    6    0  503 -0.63130162762E+01 -0.18343107782E+03 -0.30126663866E+03  0.35277245082E+03  0.00000000000E+00 0.  1.
<mgrwt>
<rscale>  0 0.11801580E+04</rscale>
<asrwt>0</asrwt>
<pdfrwt beam="1">  1        2 0.86505545E-01 0.11801580E+04</pdfrwt>
<pdfrwt beam="2">  1       -2 0.95268579E-01 0.11801580E+04</pdfrwt>
<totfact> 0.49069111E+01</totfact>
</mgrwt>
</event>
<event>
12    2  0.3561489E-008  0.1142098E+04  0.7818608E-02  0.9165105E-01
         -1   -1    0    0    0  501 -0.00000000000E+00  0.00000000000E+00  0.27419297902E+03  0.27419297902E+03  0.00000000000E+00 0.  1.
          1   -1    0    0  501    0  0.00000000000E+00 -0.00000000000E+00 -0.11892963281E+04  0.11892963281E+04  0.00000000000E+00 0. -1.
         23    2    1    2    0    0 -0.58416283984E+02  0.14189785330E+03 -0.34227472225E+03  0.38585228727E+03  0.90457388278E+02 0.  0.
        254    2    1    2    0    0  0.58416283984E+02 -0.14189785330E+03 -0.57282862685E+03  0.10776370199E+04  0.89978966868E+03 0.  0.
         23    2    4    4    0    0 -0.19091968399E+03  0.31142322082E+03 -0.15440715779E+03  0.40648910828E+03  0.89202447101E+02 0.  0.
         23    2    4    4    0    0  0.24933596797E+03 -0.45332107412E+03 -0.41842146906E+03  0.67114791160E+03  0.87718711237E+02 0.  0.
          3    1    3    3  502    0 -0.51615686651E+02  0.10200234986E+03 -0.31967066588E+03  0.33949667614E+03  0.00000000000E+00 0. -1.
         -3    1    3    3    0  502 -0.68005973335E+01  0.39895503442E+02 -0.22604056370E+02  0.46355611131E+02  0.00000000000E+00 0.  1.
         11    1    5    5    0    0 -0.90950372073E+02  0.15215298551E+03 -0.26905573426E+02  0.17929420253E+03  0.00000000000E+00 0. -1.
        -11    1    5    5    0    0 -0.99969311917E+02  0.15927023531E+03 -0.12750158436E+03  0.22719490574E+03  0.00000000000E+00 0.  1.
          3    1    6    6  503    0  0.48401696560E+02 -0.76441915560E+02 -0.11926654422E+03  0.14970170090E+03  0.00000000000E+00 0. -1.
         -3    1    6    6    0  503  0.20093427141E+03 -0.37687915856E+03 -0.29915492485E+03  0.52144621069E+03  0.00000000000E+00 0.  1.
<mgrwt>
<rscale>  0 0.11420975E+04</rscale>
<asrwt>0</asrwt>
<pdfrwt beam="1">  1        1 0.18296867E+00 0.11420975E+04</pdfrwt>
<pdfrwt beam="2">  1       -1 0.42183535E-01 0.11420975E+04</pdfrwt>
<totfact> 0.59681100E+01</totfact>
</mgrwt>
</event>
<event>
12    2  0.3561489E-008  0.1163094E+04  0.7818608E-02  0.9145788E-01
          2   -1    0    0  501    0  0.00000000000E+00  0.00000000000E+00  0.53414609115E+03  0.53414609115E+03  0.00000000000E+00 0. -1.
         -2   -1    0    0    0  501 -0.00000000000E+00 -0.00000000000E+00 -0.63315448331E+03  0.63315448331E+03  0.00000000000E+00 0.  1.
         23    2    1    2    0    0  0.44992335358E+02  0.16940346770E+03  0.70273133481E+02  0.20958307135E+03  0.90911525118E+02 0.  0.
        254    2    1    2    0    0 -0.44992335358E+02 -0.16940346770E+03 -0.16928152563E+03  0.95771750310E+03  0.92619907996E+03 0.  0.
         23    2    4    4    0    0  0.66631644328E+01  0.32992842352E+03  0.12980943349E+03  0.36608612549E+03  0.90947236592E+02 0.  0.
         23    2    4    4    0    0 -0.51655499791E+02 -0.49933189122E+03 -0.29909095912E+03  0.59163137762E+03  0.92583243078E+02 0.  0.
          1    1    3    3  502    0  0.72347474149E+02  0.12142120475E+03  0.41511341966E+02  0.14731075144E+03  0.00000000000E+00 0. -1.
         -1    1    3    3    0  502 -0.27355138791E+02  0.47982262951E+02  0.28761791515E+02  0.62272319913E+02  0.00000000000E+00 0.  1.
         11    1    5    5    0    0 -0.34169766340E+01 -0.16858604654E+01  0.14279084188E+02  0.14778704276E+02  0.00000000000E+00 0. -1.
        -11    1    5    5    0    0  0.10080141067E+02  0.33161428399E+03  0.11553034930E+03  0.35130742121E+03  0.00000000000E+00 0.  1.
          3    1    6    6  503    0 -0.90847163996E+01 -0.55482745658E+00 -0.10165043349E+02  0.13644339920E+02  0.00000000000E+00 0. -1.
         -3    1    6    6    0  503 -0.42570783391E+02 -0.49877706377E+03 -0.28892591577E+03  0.57798703770E+03  0.00000000000E+00 0.  1.
<mgrwt>
<rscale>  0 0.11630941E+04</rscale>
<asrwt>0</asrwt>
<pdfrwt beam="1">  1        2 0.82176322E-01 0.11630941E+04</pdfrwt>
<pdfrwt beam="2">  1       -2 0.97408382E-01 0.11630941E+04</pdfrwt>
<totfact> 0.49552892E+01</totfact>
</mgrwt>
</event>
<event>
12    2  0.3561489E-008  0.2897519E+04  0.7818608E-02  0.8273616E-01
          1   -1    0    0  501    0  0.00000000000E+00  0.00000000000E+00  0.98741320801E+03  0.98741320801E+03  0.00000000000E+00 0. -1.
         -1   -1    0    0    0  501 -0.00000000000E+00 -0.00000000000E+00 -0.21256598664E+04  0.21256598664E+04  0.00000000000E+00 0.  1.
         23    2    1    2    0    0  0.11204204031E+04 -0.99405709175E+02  0.20191168693E+03  0.11464177809E+04  0.91005628601E+02 0.  0.
        254    2    1    2    0    0 -0.11204204031E+04  0.99405709175E+02 -0.13401583453E+04  0.19666552935E+04  0.89804525392E+03 0.  0.
         23    2    4    4    0    0 -0.91887869912E+02 -0.11379770493E+03  0.85640233277E+02  0.19303326429E+03  0.92381238787E+02 0.  0.
         23    2    4    4    0    0 -0.10285325332E+04  0.21320341411E+03 -0.14257985786E+04  0.17736220292E+04  0.97461007873E+02 0.  0.
          3    1    3    3  502    0  0.99363673848E+03 -0.75411849213E+02  0.15177910981E+03  0.10079870104E+04  0.00000000000E+00 0. -1.
         -3    1    3    3    0  502  0.12678366463E+03 -0.23993859962E+02  0.50132577117E+02  0.13843077050E+03  0.00000000000E+00 0.  1.
         11    1    5    5    0    0 -0.10427127818E+02 -0.38839870206E+02  0.70689387219E+02  0.81328039307E+02  0.00000000000E+00 0.  1.
        -11    1    5    5    0    0 -0.81460742094E+02 -0.74957834728E+02  0.14950846058E+02  0.11170522498E+03  0.00000000000E+00 0. -1.
          4    1    6    6  503    0 -0.11745451501E+03  0.77246384400E+01 -0.11898595989E+03  0.16737052245E+03  0.00000000000E+00 0. -1.
         -4    1    6    6    0  503 -0.91107801819E+03  0.20547877567E+03 -0.13068126187E+04  0.16062515067E+04  0.00000000000E+00 0.  1.
<mgrwt>
<rscale>  0 0.28975194E+04</rscale>
<asrwt>0</asrwt>
<pdfrwt beam="1">  1        1 0.15190972E+00 0.28975194E+04</pdfrwt>
<pdfrwt beam="2">  1       -1 0.32702459E+00 0.28975194E+04</pdfrwt>
<totfact> 0.29257212E-01</totfact>
</mgrwt>
</event>
<event>
12    2  0.3561489E-008  0.1740568E+04  0.7818608E-02  0.8738559E-01
          1   -1    0    0  501    0  0.00000000000E+00  0.00000000000E+00  0.20471923363E+04  0.20471923363E+04  0.00000000000E+00 0. -1.
         -1   -1    0    0    0  501 -0.00000000000E+00 -0.00000000000E+00 -0.36996715866E+03  0.36996715866E+03  0.00000000000E+00 0.  1.
         23    2    1    2    0    0  0.24297906040E+02 -0.43694562102E+03  0.12326430206E+04  0.13111935230E+04  0.91146993715E+02 0.  0.
        254    2    1    2    0    0 -0.24297906040E+02  0.43694562102E+03  0.44458215701E+03  0.11059659720E+04  0.91323358068E+03 0.  0.
         23    2    4    4    0    0 -0.42725519965E+03  0.67966290159E+02  0.10190711390E+03  0.45491611942E+03  0.96939123289E+02 0.  0.
         23    2    4    4    0    0  0.40295729361E+03  0.36897933086E+03  0.34267504311E+03  0.65104985255E+03  0.88991001056E+02 0.  0.
          1    1    3    3  502    0  0.31229803670E+02 -0.37737473495E+03  0.95892004341E+03  0.10309775171E+04  0.00000000000E+00 0. -1.
         -1    1    3    3    0  502 -0.69318976292E+01 -0.59570886068E+02  0.27372297722E+03  0.28021600584E+03  0.00000000000E+00 0.  1.
         11    1    5    5    0    0 -0.33064197763E+03  0.16505861927E+02  0.98511255002E+02  0.34539980922E+03  0.00000000000E+00 0. -1.
        -11    1    5    5    0    0 -0.96613222020E+02  0.51460428232E+02  0.33958588994E+01  0.10951631020E+03  0.00000000000E+00 0.  1.
          1    1    6    6  503    0  0.34697801942E+03  0.35375909142E+03  0.30911939830E+03  0.58403257027E+03  0.00000000000E+00 0. -1.
         -1    1    6    6    0  503  0.55979274182E+02  0.15220239434E+02  0.33555644815E+02  0.67017282289E+02  0.00000000000E+00 0.  1.
<mgrwt>
<rscale>  0 0.17405676E+04</rscale>
<asrwt>0</asrwt>
<pdfrwt beam="1">  1        1 0.31495266E+00 0.17405676E+04</pdfrwt>
<pdfrwt beam="2">  1       -1 0.56918026E-01 0.17405676E+04</pdfrwt>
<totfact> 0.82056622E+00</totfact>
</mgrwt>
</event>
<event>
12    2  0.3561489E-008  0.2549762E+04  0.7818608E-02  0.8385469E-01
          2   -1    0    0  501    0  0.00000000000E+00  0.00000000000E+00  0.15114161197E+04  0.15114161197E+04  0.00000000000E+00 0. -1.
         -2   -1    0    0    0  501 -0.00000000000E+00 -0.00000000000E+00 -0.10753632389E+04  0.10753632389E+04  0.00000000000E+00 0.  1.
         23    2    1    2    0    0 -0.76869445099E+03 -0.44505375554E+03  0.87742743286E+03  0.12514686831E+04  0.85621029115E+02 0.  0.
        254    2    1    2    0    0  0.76869445099E+03  0.44505375554E+03 -0.44137455214E+03  0.13353106755E+04  0.89402410506E+03 0.  0.
         23    2    4    4    0    0  0.34528062617E+03  0.96089419779E+02  0.25109894691E+03  0.44679510354E+03  0.90129329318E+02 0.  0.
         23    2    4    4    0    0  0.42341382482E+03  0.34896433576E+03 -0.69247349905E+03  0.88851557193E+03  0.94260277905E+02 0.  0.
          1    1    3    3  502    0 -0.69396479652E+03 -0.38996768867E+03  0.81709642462E+03  0.11407490978E+04  0.00000000000E+00 0. -1.
         -1    1    3    3    0  502 -0.74729654466E+02 -0.55086066873E+02  0.60331008246E+02  0.11071958533E+03  0.00000000000E+00 0.  1.
         11    1    5    5    0    0  0.16023618337E+03 -0.17438615759E+01  0.10900533901E+03  0.19380619042E+03  0.00000000000E+00 0. -1.
        -11    1    5    5    0    0  0.18504444281E+03  0.97833281355E+02  0.14209360790E+03  0.25298891311E+03  0.00000000000E+00 0.  1.
          3    1    6    6  503    0  0.99723103888E+02  0.13470213278E+03 -0.18554488745E+03  0.25003253245E+03  0.00000000000E+00 0. -1.
         -3    1    6    6    0  503  0.32369072093E+03  0.21426220299E+03 -0.50692861160E+03  0.63848303948E+03  0.00000000000E+00 0.  1.
<mgrwt>
<rscale>  0 0.25497618E+04</rscale>
<asrwt>0</asrwt>
<pdfrwt beam="1">  1        2 0.23252556E+00 0.25497618E+04</pdfrwt>
<pdfrwt beam="2">  1       -2 0.16544050E+00 0.25497618E+04</pdfrwt>
<totfact> 0.25534682E+00</totfact>
</mgrwt>
</event>
<event>
12    2  0.3561489E-008  0.2323913E+04  0.7818608E-02  0.8468552E-01
          3   -1    0    0  501    0  0.00000000000E+00  0.00000000000E+00  0.17676399491E+04  0.17676399491E+04  0.00000000000E+00 0. -1.
         -3   -1    0    0    0  501 -0.00000000000E+00 -0.00000000000E+00 -0.76381125675E+03  0.76381125675E+03  0.00000000000E+00 0.  1.
         23    2    1    2    0    0 -0.21715510574E+03 -0.60677323582E+03 -0.35787056780E+03  0.74320279478E+03  0.94598896466E+02 0.  0.
        254    2    1    2    0    0  0.21715510574E+03  0.60677323582E+03  0.13616992602E+04  0.17882484111E+04  0.96347153823E+03 0.  0.
         23    2    4    4    0    0 -0.16873390003E+03  0.71128041892E+03  0.74613398607E+03  0.10485966470E+04  0.91913217540E+02 0.  0.
         23    2    4    4    0    0  0.38588900577E+03 -0.10450718311E+03  0.61556527410E+03  0.73965176410E+03  0.91280060015E+02 0.  0.
          4    1    3    3  502    0 -0.60447604195E+01 -0.38825509769E+02  0.39423435499E+00  0.39295225640E+02  0.00000000000E+00 0. -1.
         -4    1    3    3    0  502 -0.21111034532E+03 -0.56794772605E+03 -0.35826480215E+03  0.70390756914E+03  0.00000000000E+00 0.  1.
         11    1    5    5    0    0 -0.47593272023E+01  0.18964124302E+03  0.17988357388E+03  0.26142791053E+03  0.00000000000E+00 0. -1.
        -11    1    5    5    0    0 -0.16397457283E+03  0.52163917590E+03  0.56625041218E+03  0.78716873646E+03  0.00000000000E+00 0.  1.
          2    1    6    6  503    0  0.29779220834E+03 -0.11715457319E+03  0.45865613298E+03  0.55925919008E+03  0.00000000000E+00 0.  1.
         -2    1    6    6    0  503  0.88096797429E+02  0.12647390082E+02  0.15690914112E+03  0.18039257402E+03  0.00000000000E+00 0. -1.
<mgrwt>
<rscale>  0 0.23239133E+04</rscale>
<asrwt>0</asrwt>
<pdfrwt beam="1">  1        3 0.27194461E+00 0.23239133E+04</pdfrwt>
<pdfrwt beam="2">  1       -3 0.11750942E+00 0.23239133E+04</pdfrwt>
<totfact> 0.77839518E-02</totfact>
</mgrwt>
</event>
<event>
12    2  0.3561489E-008  0.1789178E+04  0.7818608E-02  0.8712076E-01
          2   -1    0    0  501    0  0.00000000000E+00  0.00000000000E+00  0.15293978393E+04  0.15293978393E+04  0.00000000000E+00 0. -1.
         -2   -1    0    0    0  501 -0.00000000000E+00 -0.00000000000E+00 -0.52327073634E+03  0.52327073634E+03  0.00000000000E+00 0.  1.
         23    2    1    2    0    0  0.30111214649E+03 -0.18403375863E+03 -0.26984824800E+03  0.45367463870E+03  0.92008976615E+02 0.  0.
        254    2    1    2    0    0 -0.30111214649E+03  0.18403375863E+03  0.12759753509E+04  0.15989939369E+04  0.89673383174E+03 0.  0.
         23    2    4    4    0    0 -0.27833444297E+03 -0.30350422470E+03  0.34775865192E+03  0.54704420317E+03  0.93468731012E+02 0.  0.
         23    2    4    4    0    0 -0.22777703515E+02  0.48753798334E+03  0.92821669899E+03  0.10519497337E+04  0.82461463796E+02 0.  0.
          4    1    3    3  502    0  0.91292235396E+02 -0.96192765700E+01 -0.71272400362E+02  0.11621771715E+03  0.00000000000E+00 0. -1.
         -4    1    3    3    0  502  0.20981991109E+03 -0.17441448206E+03 -0.19857584763E+03  0.33745692156E+03  0.00000000000E+00 0.  1.
         11    1    5    5    0    0 -0.45436506550E+02 -0.79951362880E+02  0.12345864969E+03  0.15394393375E+03  0.00000000000E+00 0.  1.
        -11    1    5    5    0    0 -0.23289793642E+03 -0.22355286182E+03  0.22430000223E+03  0.39310026942E+03  0.00000000000E+00 0. -1.
          3    1    6    6  503    0  0.10662075641E+02  0.32541768682E+03  0.67505991232E+03  0.74947730851E+03  0.00000000000E+00 0. -1.
         -3    1    6    6    0  503 -0.33439779156E+02  0.16212029652E+03  0.25315678667E+03  0.30247242521E+03  0.00000000000E+00 0.  1.
<mgrwt>
<rscale>  0 0.17891776E+04</rscale>
<asrwt>0</asrwt>
<pdfrwt beam="1">  1        2 0.23529197E+00 0.17891776E+04</pdfrwt>
<pdfrwt beam="2">  1       -2 0.80503191E-01 0.17891776E+04</pdfrwt>
<totfact> 0.15733982E+01</totfact>
</mgrwt>
</event>
<event>
12    2  0.3561489E-008  0.2534656E+04  0.7818608E-02  0.8390742E-01
          2   -1    0    0  501    0  0.00000000000E+00  0.00000000000E+00  0.17766138003E+04  0.17766138003E+04  0.00000000000E+00 0. -1.
         -2   -1    0    0    0  501 -0.00000000000E+00 -0.00000000000E+00 -0.90403479285E+03  0.90403479285E+03  0.00000000000E+00 0.  1.
         23    2    1    2    0    0  0.58135620326E+02  0.30527477601E+03  0.15043032861E+04  0.15386052077E+04  0.88346868783E+02 0.  0.
        254    2    1    2    0    0 -0.58135620326E+02 -0.30527477601E+03 -0.63172427867E+03  0.11420433855E+04  0.89923027688E+03 0.  0.
         23    2    4    4    0    0 -0.46702384860E+03 -0.17791990711E+03 -0.27824341933E+03  0.57902501347E+03  0.89909940026E+02 0.  0.
         23    2    4    4    0    0  0.40888822828E+03 -0.12735486890E+03 -0.35348085934E+03  0.56301837202E+03  0.92909221566E+02 0.  0.
          2    1    3    3  502    0  0.34438454445E+02  0.11540721565E+03  0.39609810313E+03  0.41400306746E+03  0.00000000000E+00 0. -1.
         -2    1    3    3    0  502  0.23697165881E+02  0.18986756037E+03  0.11082051830E+04  0.11246021402E+04  0.00000000000E+00 0.  1.
         11    1    5    5    0    0 -0.27127115818E+03 -0.65473100867E+02 -0.12250263125E+03  0.30476493050E+03  0.00000000000E+00 0.  1.
        -11    1    5    5    0    0 -0.19575269042E+03 -0.11244680625E+03 -0.15574078807E+03  0.27426008297E+03  0.00000000000E+00 0. -1.
          4    1    6    6  503    0  0.37972856887E+03 -0.12672357275E+03 -0.35319065407E+03  0.53385043601E+03  0.00000000000E+00 0.  1.
         -4    1    6    6    0  503  0.29159659407E+02 -0.63129614780E+00 -0.29020526645E+00  0.29167936002E+02  0.00000000000E+00 0. -1.
<mgrwt>
<rscale>  0 0.25346563E+04</rscale>
<asrwt>0</asrwt>
<pdfrwt beam="1">  1        2 0.27332520E+00 0.25346563E+04</pdfrwt>
<pdfrwt beam="2">  1       -2 0.13908228E+00 0.25346563E+04</pdfrwt>
<totfact> 0.28891657E+00</totfact>
</mgrwt>
</event>
<event>
12    2  0.3561489E-008  0.1372608E+04  0.7818608E-02  0.8973888E-01
         -1   -1    0    0    0  501 -0.00000000000E+00  0.00000000000E+00  0.68527648146E+03  0.68527648146E+03  0.00000000000E+00 0.  1.
          1   -1    0    0  501    0  0.00000000000E+00 -0.00000000000E+00 -0.68733344137E+03  0.68733344137E+03  0.00000000000E+00 0. -1.
         23    2    1    2    0    0  0.27936564740E+03  0.31939026254E+02 -0.22442167032E+03  0.37401487281E+03  0.10225836216E+03 0.  0.
        254    2    1    2    0    0 -0.27936564740E+03 -0.31939026254E+02  0.22236471041E+03  0.99859505002E+03  0.93203044111E+03 0.  0.
         23    2    4    4    0    0 -0.23179878001E+03  0.35768803858E+03  0.36763564991E+03  0.57047011578E+03  0.92783482148E+02 0.  0.
         23    2    4    4    0    0 -0.47566867391E+02 -0.38962706483E+03 -0.14527093950E+03  0.42812493424E+03  0.90085830895E+02 0.  0.
          3    1    3    3  502    0  0.20047484563E+03 -0.20989930310E+02 -0.17494662256E+03  0.26690271945E+03  0.00000000000E+00 0. -1.
         -3    1    3    3    0  502  0.78890801773E+02  0.52928956564E+02 -0.49475047753E+02  0.10711215336E+03  0.00000000000E+00 0.  1.
         11    1    5    5    0    0 -0.15345766130E+03  0.24866057756E+03  0.19297089805E+03  0.35017010743E+03  0.00000000000E+00 0. -1.
        -11    1    5    5    0    0 -0.78341118710E+02  0.10902746102E+03  0.17466475187E+03  0.22030000836E+03  0.00000000000E+00 0.  1.
          1    1    6    6  503    0  0.59558685514E+01 -0.25612069094E+03 -0.69002740558E+02  0.26531991802E+03  0.00000000000E+00 0. -1.
         -1    1    6    6    0  503 -0.53522735943E+02 -0.13350637390E+03 -0.76268198947E+02  0.16280501621E+03  0.00000000000E+00 0.  1.
<mgrwt>
<rscale>  0 0.13726084E+04</rscale>
<asrwt>0</asrwt>
<pdfrwt beam="1">  1        1 0.10574361E+00 0.13726084E+04</pdfrwt>
<pdfrwt beam="2">  1       -1 0.10542715E+00 0.13726084E+04</pdfrwt>
<totfact> 0.23092119E+01</totfact>
</mgrwt>
</event>
<event>
12    2  0.3561489E-008  0.2229538E+04  0.7818608E-02  0.8506234E-01
         -2   -1    0    0    0  501 -0.00000000000E+00  0.00000000000E+00  0.48003938699E+03  0.48003938699E+03  0.00000000000E+00 0.  1.
          2   -1    0    0  501    0  0.00000000000E+00 -0.00000000000E+00 -0.25887658653E+04  0.25887658653E+04  0.00000000000E+00 0. -1.
         23    2    1    2    0    0  0.63249761314E+03  0.66241262610E+03 -0.68328394567E+03  0.11460581753E+04  0.87912870993E+02 0.  0.
        254    2    1    2    0    0 -0.63249761314E+03 -0.66241262610E+03 -0.14254425327E+04  0.19227470771E+04  0.90896985125E+03 0.  0.
         23    2    4    4    0    0 -0.14018848070E+03 -0.37080897104E+03 -0.26170534692E+02  0.40838878432E+03  0.94574833596E+02 0.  0.
         23    2    4    4    0    0 -0.49230913244E+03 -0.29160365506E+03 -0.13992719980E+04  0.15143582927E+04  0.88982812218E+02 0.  0.
          2    1    3    3  502    0  0.90326139321E+01 -0.13041838913E+00 -0.14573552426E+01  0.91503556054E+01  0.00000000000E+00 0.  1.
         -2    1    3    3    0  502  0.62346499920E+03  0.66254304449E+03 -0.68182659043E+03  0.11369078197E+04  0.00000000000E+00 0. -1.
         11    1    5    5    0    0 -0.30404102372E+02 -0.93230023596E+02 -0.47826138546E+02  0.10910355755E+03  0.00000000000E+00 0.  1.
        -11    1    5    5    0    0 -0.10978437832E+03 -0.27757894744E+03  0.21655603854E+02  0.29928522678E+03  0.00000000000E+00 0. -1.
          2    1    6    6  503    0 -0.45062286140E+03 -0.28270877872E+03 -0.13365458866E+04  0.14385201159E+04  0.00000000000E+00 0. -1.
         -2    1    6    6    0  503 -0.41686271041E+02 -0.88948763329E+01 -0.62726111365E+02  0.75838176832E+02  0.00000000000E+00 0.  1.
<mgrwt>
<rscale>  0 0.22295377E+04</rscale>
<asrwt>0</asrwt>
<pdfrwt beam="1">  1        2 0.39827167E+00 0.22295377E+04</pdfrwt>
<pdfrwt beam="2">  1       -2 0.73852214E-01 0.22295377E+04</pdfrwt>
<totfact> 0.46559792E+00</totfact>
</mgrwt>
</event>
<event>
12    2  0.3561489E-008  0.2029128E+04  0.7818608E-02  0.8593122E-01
         -2   -1    0    0    0  501 -0.00000000000E+00  0.00000000000E+00  0.55072522785E+03  0.55072522785E+03  0.00000000000E+00 0.  1.
          2   -1    0    0  501    0  0.00000000000E+00 -0.00000000000E+00 -0.18690638136E+04  0.18690638136E+04  0.00000000000E+00 0. -1.
         23    2    1    2    0    0  0.68709395827E+03  0.31691797074E+03 -0.18229972535E+03  0.78353920363E+03  0.90362525917E+02 0.  0.
        254    2    1    2    0    0 -0.68709395827E+03 -0.31691797074E+03 -0.11360388604E+04  0.16362498378E+04  0.90232706473E+03 0.  0.
         23    2    4    4    0    0 -0.65928526331E+03  0.16038419520E+03 -0.74901185186E+03  0.10146020134E+04  0.89545199712E+02 0.  0.
         23    2    4    4    0    0 -0.27808694962E+02 -0.47730216594E+03 -0.38702700854E+03  0.62164782446E+03  0.89807745755E+02 0.  0.
          2    1    3    3  502    0  0.17888019888E+03  0.47932725719E+02 -0.21268066879E+02  0.18640816080E+03  0.00000000000E+00 0. -1.
         -2    1    3    3    0  502  0.50821375940E+03  0.26898524502E+03 -0.16103165847E+03  0.59713104283E+03  0.00000000000E+00 0.  1.
         11    1    5    5    0    0 -0.53976383515E+02  0.36038397109E+02 -0.52483406909E+02  0.83466903886E+02  0.00000000000E+00 0.  1.
        -11    1    5    5    0    0 -0.60530887980E+03  0.12434579809E+03 -0.69652844495E+03  0.93113510947E+03  0.00000000000E+00 0. -1.
          4    1    6    6  503    0  0.10605799527E+02 -0.36668472747E+03 -0.26513167907E+03  0.45262012725E+03  0.00000000000E+00 0. -1.
         -4    1    6    6    0  503 -0.38414494489E+02 -0.11061743847E+03 -0.12189532947E+03  0.16902769722E+03  0.00000000000E+00 0.  1.
<mgrwt>
<rscale>  0 0.20291285E+04</rscale>
<asrwt>0</asrwt>
<pdfrwt beam="1">  1        2 0.28754828E+00 0.20291285E+04</pdfrwt>
<pdfrwt beam="2">  1       -2 0.84726958E-01 0.20291285E+04</pdfrwt>
<totfact> 0.88867178E+00</totfact>
</mgrwt>
</event>
<event>
12    2  0.3561489E-008  0.1848381E+04  0.7818608E-02  0.8680986E-01
          2   -1    0    0  501    0  0.00000000000E+00  0.00000000000E+00  0.14709385255E+04  0.14709385255E+04  0.00000000000E+00 0. -1.
         -2   -1    0    0    0  501 -0.00000000000E+00 -0.00000000000E+00 -0.58066897902E+03  0.58066897902E+03  0.00000000000E+00 0.  1.
         23    2    1    2    0    0  0.18268480478E+03 -0.67572567110E+03  0.28038540382E+03  0.75940184354E+03  0.89979246539E+02 0.  0.
        254    2    1    2    0    0 -0.18268480478E+03  0.67572567110E+03  0.60988414262E+03  0.12922056609E+04  0.89880914675E+03 0.  0.
         23    2    4    4    0    0  0.95333219919E+02 -0.89252663349E+02 -0.11393488484E+03  0.19919363317E+03  0.98196154598E+02 0.  0.
         23    2    4    4    0    0 -0.27801802470E+03  0.76497833445E+03  0.72381902746E+03  0.10930120278E+04  0.90969413049E+02 0.  0.
          4    1    3    3  502    0  0.41954171244E+02 -0.55749400870E+02  0.22083377078E+02  0.73183493530E+02  0.00000000000E+00 0. -1.
         -4    1    3    3    0  502  0.14073063354E+03 -0.61997627023E+03  0.25830202675E+03  0.68621835001E+03  0.00000000000E+00 0.  1.
         11    1    5    5    0    0  0.74986842414E+02 -0.10932902753E+02 -0.83448441903E+02  0.11272176965E+03  0.00000000000E+00 0. -1.
        -11    1    5    5    0    0  0.20346377505E+02 -0.78319760596E+02 -0.30486442937E+02  0.86471863518E+02  0.00000000000E+00 0.  1.
          3    1    6    6  503    0 -0.26741401910E+03  0.76209202105E+03  0.71001651296E+03  0.10753687530E+04  0.00000000000E+00 0. -1.
         -3    1    6    6    0  503 -0.10604005602E+02  0.28863134027E+01  0.13802514499E+02  0.17643274820E+02  0.00000000000E+00 0.  1.
<mgrwt>
<rscale>  0 0.18483813E+04</rscale>
<asrwt>0</asrwt>
<pdfrwt beam="1">  1        2 0.22629823E+00 0.18483813E+04</pdfrwt>
<pdfrwt beam="2">  1       -2 0.89333690E-01 0.18483813E+04</pdfrwt>
<totfact> 0.13330369E+01</totfact>
</mgrwt>
</event>
<event>
12    2  0.3561489E-008  0.1957089E+04  0.7818608E-02  0.8626950E-01
         -2   -1    0    0    0  501 -0.00000000000E+00  0.00000000000E+00  0.10367801557E+04  0.10367801557E+04  0.00000000000E+00 0.  1.
          2   -1    0    0  501    0  0.00000000000E+00 -0.00000000000E+00 -0.92357947062E+03  0.92357947062E+03  0.00000000000E+00 0. -1.
         23    2    1    2    0    0 -0.19083101198E+02  0.37357085523E+03 -0.62362217907E+03  0.73341251173E+03  0.95236240477E+02 0.  0.
        254    2    1    2    0    0  0.19083101198E+02 -0.37357085523E+03  0.73682286420E+03  0.12269471146E+04  0.90695751845E+03 0.  0.
         23    2    4    4    0    0 -0.22779066761E+03 -0.97727647411E+02 -0.11890129714E+03  0.29047294057E+03  0.93796212219E+02 0.  0.
         23    2    4    4    0    0  0.24687376881E+03 -0.27584320782E+03  0.85572416134E+03  0.93647417406E+03  0.87657888138E+02 0.  0.
          4    1    3    3  502    0  0.17208210793E+02  0.28594445801E+03 -0.51417201304E+03  0.58858577504E+03  0.00000000000E+00 0. -1.
         -4    1    3    3    0  502 -0.36291311991E+02  0.87626397213E+02 -0.10945016604E+03  0.14482673669E+03  0.00000000000E+00 0.  1.
         11    1    5    5    0    0 -0.44578247018E+02  0.17389915648E+02 -0.30440642612E+02  0.56712097441E+02  0.00000000000E+00 0. -1.
        -11    1    5    5    0    0 -0.18321242059E+03 -0.11511756306E+03 -0.88460654526E+02  0.23376084313E+03  0.00000000000E+00 0.  1.
          1    1    6    6  503    0  0.38057751126E+01  0.62330469465E+01  0.97737624898E+01  0.12200870119E+02  0.00000000000E+00 0. -1.
         -1    1    6    6    0  503  0.24306799370E+03 -0.28207625476E+03  0.84595039885E+03  0.92427330394E+03  0.00000000000E+00 0.  1.
<mgrwt>
<rscale>  0 0.19570885E+04</rscale>
<asrwt>0</asrwt>
<pdfrwt beam="1">  1        2 0.14208915E+00 0.19570885E+04</pdfrwt>
<pdfrwt beam="2">  1       -2 0.15950464E+00 0.19570885E+04</pdfrwt>
<totfact> 0.66931937E+00</totfact>
</mgrwt>
</event>
<event>
12    2  0.3561489E-008  0.1941965E+04  0.7818608E-02  0.8634245E-01
          1   -1    0    0  501    0  0.00000000000E+00  0.00000000000E+00  0.30065002693E+04  0.30065002693E+04  0.00000000000E+00 0. -1.
         -1   -1    0    0    0  501 -0.00000000000E+00 -0.00000000000E+00 -0.31358950104E+03  0.31358950104E+03  0.00000000000E+00 0.  1.
         23    2    1    2    0    0 -0.30520441959E+03  0.37852157337E+03  0.20558883564E+04  0.21146653188E+04  0.93296073366E+02 0.  0.
        254    2    1    2    0    0  0.30520441959E+03 -0.37852157337E+03  0.63702241187E+03  0.12054244515E+04  0.90045668186E+03 0.  0.
         23    2    4    4    0    0  0.49703365220E+03 -0.41058365738E+03  0.14317287203E+03  0.66669726299E+03  0.91462440707E+02 0.  0.
         23    2    4    4    0    0 -0.19182923261E+03  0.32062084011E+02  0.49384953984E+03  0.53872718855E+03  0.92266916995E+02 0.  0.
          3    1    3    3  502    0 -0.22155630220E+03  0.27326721035E+03  0.16501004297E+04  0.16871851088E+04  0.00000000000E+00 0. -1.
         -3    1    3    3    0  502 -0.83648117394E+02  0.10525436302E+03  0.40578792678E+03  0.42748021007E+03  0.00000000000E+00 0.  1.
         11    1    5    5    0    0  0.12487233211E+03 -0.15450071496E+03  0.58364471461E+02  0.20705067442E+03  0.00000000000E+00 0. -1.
        -11    1    5    5    0    0  0.37216132010E+03 -0.25608294242E+03  0.84808400566E+02  0.45964658857E+03  0.00000000000E+00 0.  1.
          1    1    6    6  503    0 -0.16454361065E+03  0.54773340793E+02  0.45030767575E+03  0.48254711843E+03  0.00000000000E+00 0. -1.
         -1    1    6    6    0  503 -0.27285621966E+02 -0.22711256782E+02  0.43541864089E+02  0.56180070123E+02  0.00000000000E+00 0.  1.
<mgrwt>
<rscale>  0 0.19419649E+04</rscale>
<asrwt>0</asrwt>
<pdfrwt beam="1">  1        1 0.46253848E+00 0.19419649E+04</pdfrwt>
<pdfrwt beam="2">  1       -1 0.48244541E-01 0.19419649E+04</pdfrwt>
<totfact> 0.23732740E+00</totfact>
</mgrwt>
</event>
<event>
12    2  0.3561489E-008  0.2274052E+04  0.7818608E-02  0.8488223E-01
         -2   -1    0    0    0  501 -0.00000000000E+00  0.00000000000E+00  0.78834959798E+03  0.78834959798E+03  0.00000000000E+00 0.  1.
          2   -1    0    0  501    0  0.00000000000E+00 -0.00000000000E+00 -0.16399168722E+04  0.16399168722E+04  0.00000000000E+00 0. -1.
         23    2    1    2    0    0  0.51388313009E+03  0.52810204138E+03  0.28889324465E+03  0.79861051627E+03  0.10654488432E+03 0.  0.
        254    2    1    2    0    0 -0.51388313009E+03 -0.52810204138E+03 -0.11404605188E+04  0.16296559539E+04  0.90119958692E+03 0.  0.
         23    2    4    4    0    0 -0.66265093571E+02 -0.36465529378E+03  0.91275089216E+01  0.38198880029E+03  0.92019488275E+02 0.  0.
         23    2    4    4    0    0 -0.44761803652E+03 -0.16344674761E+03 -0.11495880278E+04  0.12476671536E+04  0.89688051894E+02 0.  0.
          1    1    3    3  502    0  0.12667205027E+03  0.80144341499E+02  0.32552465640E+02  0.15339030873E+03  0.00000000000E+00 0. -1.
         -1    1    3    3    0  502  0.38721107983E+03  0.44795769989E+03  0.25634077901E+03  0.64522020754E+03  0.00000000000E+00 0.  1.
         11    1    5    5    0    0  0.77544807436E+01 -0.10807409344E+03 -0.29175629518E+02  0.11221122494E+03  0.00000000000E+00 0.  1.
        -11    1    5    5    0    0 -0.74019574314E+02 -0.25658120033E+03  0.38303138440E+02  0.26977757535E+03  0.00000000000E+00 0. -1.
          2    1    6    6  503    0 -0.43431665638E+03 -0.15698302183E+03 -0.10511572377E+04  0.11481315976E+04  0.00000000000E+00 0. -1.
         -2    1    6    6    0  503 -0.13301380149E+02 -0.64637257799E+01 -0.98430790067E+02  0.99535555949E+02  0.00000000000E+00 0.  1.
<mgrwt>
<rscale>  0 0.22740517E+04</rscale>
<asrwt>0</asrwt>
<pdfrwt beam="1">  1        2 0.25229490E+00 0.22740517E+04</pdfrwt>
<pdfrwt beam="2">  1       -2 0.12128455E+00 0.22740517E+04</pdfrwt>
<totfact> 0.49774330E+00</totfact>
</mgrwt>
</event>
<event>
12    2  0.3561489E-008  0.1213796E+04  0.7818608E-02  0.9100866E-01
          2   -1    0    0  501    0  0.00000000000E+00  0.00000000000E+00  0.79123536500E+03  0.79123536500E+03  0.00000000000E+00 0. -1.
         -2   -1    0    0    0  501 -0.00000000000E+00 -0.00000000000E+00 -0.46550662221E+03  0.46550662221E+03  0.00000000000E+00 0.  1.
         23    2    1    2    0    0  0.19568717682E+03  0.19958909299E+02  0.24835344262E+03  0.32980148675E+03  0.91639287247E+02 0.  0.
        254    2    1    2    0    0 -0.19568717682E+03 -0.19958909299E+02  0.77375300174E+02  0.92694050046E+03  0.90251865637E+03 0.  0.
         23    2    4    4    0    0 -0.39816439626E+03 -0.17014437307E+03  0.33544669709E+03  0.55513605679E+03  0.90374558471E+02 0.  0.
         23    2    4    4    0    0  0.20247721944E+03  0.15018546378E+03 -0.25807139692E+03  0.37180444368E+03  0.89916630874E+02 0.  0.
          3    1    3    3  502    0  0.16062837616E+03  0.11147373091E+02  0.24543170970E+03  0.29353443287E+03  0.00000000000E+00 0. -1.
         -3    1    3    3    0  502  0.35058800657E+02  0.88115362078E+01  0.29217329274E+01  0.36267053880E+02  0.00000000000E+00 0.  1.
         11    1    5    5    0    0 -0.89351752270E+02 -0.26661377463E+02  0.12083979835E+03  0.15263296350E+03  0.00000000000E+00 0. -1.
        -11    1    5    5    0    0 -0.30881264398E+03 -0.14348299561E+03  0.21460689874E+03  0.40250309328E+03  0.00000000000E+00 0.  1.
          1    1    6    6  503    0  0.17295101866E+03  0.15696344841E+03 -0.24594521447E+03  0.33917344753E+03  0.00000000000E+00 0.  1.
         -1    1    6    6    0  503  0.29526200782E+02 -0.67779846374E+01 -0.12126182451E+02  0.32630996142E+02  0.00000000000E+00 0. -1.
<mgrwt>
<rscale>  0 0.12137962E+04</rscale>
<asrwt>0</asrwt>
<pdfrwt beam="1">  1        2 0.12172852E+00 0.12137962E+04</pdfrwt>
<pdfrwt beam="2">  1       -2 0.71616403E-01 0.12137962E+04</pdfrwt>
<totfact> 0.60960032E+01</totfact>
</mgrwt>
</event>
<event>
12    2  0.3561489E-008  0.3826793E+04  0.7818608E-02  0.8040429E-01
         -1   -1    0    0    0  501 -0.00000000000E+00  0.00000000000E+00  0.16838234590E+04  0.16838234590E+04  0.00000000000E+00 0.  1.
          1   -1    0    0  501    0  0.00000000000E+00 -0.00000000000E+00 -0.21742700864E+04  0.21742700864E+04  0.00000000000E+00 0. -1.
         23    2    1    2    0    0  0.17624486623E+04 -0.24447114769E+03  0.68457326152E+02  0.17828383981E+04  0.88515077810E+02 0.  0.
        254    2    1    2    0    0 -0.17624486623E+04  0.24447114769E+03 -0.55890395350E+03  0.20752551472E+04  0.91012024890E+03 0.  0.
         23    2    4    4    0    0 -0.12841982541E+04  0.26120039025E+03  0.25494320033E+02  0.13142706399E+04  0.96262946534E+02 0.  0.
         23    2    4    4    0    0 -0.47825040827E+03 -0.16729242562E+02 -0.58439827354E+03  0.76098450736E+03  0.92589188145E+02 0.  0.
          2    1    3    3  502    0  0.12406422078E+04 -0.14389881739E+03  0.18644825074E+02  0.12490987098E+04  0.00000000000E+00 0. -1.
         -2    1    3    3    0  502  0.52180645457E+03 -0.10057233030E+03  0.49812501078E+02  0.53373968835E+03  0.00000000000E+00 0.  1.
         11    1    5    5    0    0 -0.10315278674E+04  0.17042221904E+03  0.23833610886E+02  0.10457827284E+04  0.00000000000E+00 0. -1.
        -11    1    5    5    0    0 -0.25267038664E+03  0.90778171204E+02  0.16607091469E+01  0.26848791147E+03  0.00000000000E+00 0.  1.
          3    1    6    6  503    0 -0.27595775155E+03  0.27185944277E+02 -0.37659738816E+03  0.46767226663E+03  0.00000000000E+00 0. -1.
         -3    1    6    6    0  503 -0.20229265672E+03 -0.43915186839E+02 -0.20780088538E+03  0.29331224073E+03  0.00000000000E+00 0.  1.
<mgrwt>
<rscale>  0 0.38267934E+04</rscale>
<asrwt>0</asrwt>
<pdfrwt beam="1">  1        1 0.33450309E+00 0.38267934E+04</pdfrwt>
<pdfrwt beam="2">  1       -1 0.25904976E+00 0.38267934E+04</pdfrwt>
<totfact> 0.10961014E-01</totfact>
</mgrwt>
</event>
<event>
12    2  0.3561489E-008  0.1611377E+04  0.7818608E-02  0.8813589E-01
          2   -1    0    0  501    0  0.00000000000E+00  0.00000000000E+00  0.46815747626E+04  0.46815747626E+04  0.00000000000E+00 0. -1.
         -2   -1    0    0    0  501 -0.00000000000E+00 -0.00000000000E+00 -0.13865715305E+03  0.13865715305E+03  0.00000000000E+00 0.  1.
         23    2    1    2    0    0 -0.47416251188E+03 -0.66208040221E+01  0.23944511894E+04  0.24426724220E+04  0.91532179748E+02 0.  0.
        254    2    1    2    0    0  0.47416251188E+03  0.66208040221E+01  0.21484664201E+04  0.23775594937E+04  0.90111445708E+03 0.  0.
         23    2    4    4    0    0  0.68850751402E+03 -0.22442640844E+02  0.19504215182E+04  0.20705138801E+04  0.91309146941E+02 0.  0.
         23    2    4    4    0    0 -0.21434500214E+03  0.29063444866E+02  0.19804490194E+03  0.30704561351E+03  0.90921734570E+02 0.  0.
          4    1    3    3  502    0 -0.37501961557E+02  0.56634964354E+01  0.98815469810E+02  0.10584408054E+03  0.00000000000E+00 0.  1.
         -4    1    3    3    0  502 -0.43666055032E+03 -0.12284300457E+02  0.22956357196E+04  0.23368283414E+04  0.00000000000E+00 0. -1.
         11    1    5    5    0    0  0.19292801341E+03 -0.11404057298E+02  0.67591405004E+03  0.70300147505E+03  0.00000000000E+00 0. -1.
        -11    1    5    5    0    0  0.49557950061E+03 -0.11038583546E+02  0.12745074681E+04  0.13675124051E+04  0.00000000000E+00 0.  1.
          2    1    6    6  503    0 -0.17315987852E+03 -0.12734245318E+02  0.16587231986E+03  0.24012524029E+03  0.00000000000E+00 0.  1.
         -2    1    6    6    0  503 -0.41185123629E+02  0.41797690185E+02  0.32172582086E+02  0.66920373215E+02  0.00000000000E+00 0. -1.
<mgrwt>
<rscale>  0 0.16113768E+04</rscale>
<asrwt>0</asrwt>
<pdfrwt beam="1">  1        2 0.72024215E+00 0.16113768E+04</pdfrwt>
<pdfrwt beam="2">  1       -2 0.21331873E-01 0.16113768E+04</pdfrwt>
<totfact> 0.15194579E+00</totfact>
</mgrwt>
</event>
<event>
12    2  0.3561489E-008  0.1526694E+04  0.7818608E-02  0.8866894E-01
         -2   -1    0    0    0  501 -0.00000000000E+00  0.00000000000E+00  0.22711007347E+03  0.22711007347E+03  0.00000000000E+00 0. -1.
          2   -1    0    0  501    0  0.00000000000E+00 -0.00000000000E+00 -0.25657088255E+04  0.25657088255E+04  0.00000000000E+00 0.  1.
         23    2    1    2    0    0  0.19398380798E+03 -0.37805380921E+03 -0.32253354229E+03  0.54141808819E+03  0.92473022547E+02 0.  0.
        254    2    1    2    0    0 -0.19398380798E+03  0.37805380921E+03 -0.20160652097E+04  0.22514008108E+04  0.90759698130E+03 0.  0.
         23    2    4    4    0    0 -0.33744426708E+03 -0.74717735428E+02 -0.15100346791E+04  0.15515938643E+04  0.88246327486E+02 0.  0.
         23    2    4    4    0    0  0.14346045910E+03  0.45277154464E+03 -0.50603053063E+03  0.69980694646E+03  0.89888205213E+02 0.  0.
          1    1    3    3  502    0  0.83578583607E+02 -0.14412036321E+03 -0.72635102919E+02  0.18174684841E+03  0.00000000000E+00 0. -1.
         -1    1    3    3    0  502  0.11040522438E+03 -0.23393344599E+03 -0.24989843937E+03  0.35967123978E+03  0.00000000000E+00 0.  1.
         11    1    5    5    0    0 -0.23731144227E+03 -0.21673498079E+02 -0.11381170101E+04  0.11627969684E+04  0.00000000000E+00 0.  1.
        -11    1    5    5    0    0 -0.10013282481E+03 -0.53044237349E+02 -0.37191766902E+03  0.38879689588E+03  0.00000000000E+00 0. -1.
          2    1    6    6  503    0  0.18674304150E+02  0.17099710759E+02 -0.54384576120E+02  0.59990098043E+02  0.00000000000E+00 0. -1.
         -2    1    6    6    0  503  0.12478615495E+03  0.43567183388E+03 -0.45164595451E+03  0.63981684842E+03  0.00000000000E+00 0.  1.
<mgrwt>
<rscale>  0 0.15266936E+04</rscale>
<asrwt>0</asrwt>
<pdfrwt beam="1">  1        2 0.39472442E+00 0.15266936E+04</pdfrwt>
<pdfrwt beam="2">  1       -2 0.34940012E-01 0.15266936E+04</pdfrwt>
<totfact> 0.23694940E+01</totfact>
</mgrwt>
</event>
<event>
12    2  0.3561489E-008  0.3087511E+04  0.7818608E-02  0.8219174E-01
          1   -1    0    0  501    0  0.00000000000E+00  0.00000000000E+00  0.19222592002E+04  0.19222592002E+04  0.00000000000E+00 0. -1.
         -1   -1    0    0    0  501 -0.00000000000E+00 -0.00000000000E+00 -0.12397810496E+04  0.12397810496E+04  0.00000000000E+00 0.  1.
         23    2    1    2    0    0  0.13984121271E+04 -0.15548213640E+03  0.33119882928E+03  0.14483642845E+04  0.91297667798E+02 0.  0.
        254    2    1    2    0    0 -0.13984121271E+04  0.15548213640E+03  0.35127932140E+03  0.17136759653E+04  0.91299341743E+03 0.  0.
         23    2    4    4    0    0 -0.79515000681E+03  0.53175189165E+03  0.18410062519E+03  0.97820503950E+03  0.89266183449E+02 0.  0.
         23    2    4    4    0    0 -0.60326212033E+03 -0.37626975525E+03  0.16717869621E+03  0.73547092578E+03  0.86398215587E+02 0.  0.
          4    1    3    3  502    0  0.40548058522E+03 -0.15390214012E+02  0.12530190915E+03  0.42467862215E+03  0.00000000000E+00 0. -1.
         -4    1    3    3    0  502  0.99293154192E+03 -0.14009192238E+03  0.20589692013E+03  0.10236856624E+04  0.00000000000E+00 0.  1.
         11    1    5    5    0    0 -0.38751455943E+03  0.22844334419E+03  0.12366355306E+03  0.46652606533E+03  0.00000000000E+00 0. -1.
        -11    1    5    5    0    0 -0.40763544738E+03  0.30330854746E+03  0.60437072128E+02  0.51167897417E+03  0.00000000000E+00 0.  1.
          2    1    6    6  503    0 -0.49602685915E+03 -0.29739402732E+03  0.10208236503E+03  0.58728754604E+03  0.00000000000E+00 0. -1.
         -2    1    6    6    0  503 -0.10723526118E+03 -0.78875727934E+02  0.65096331183E+02  0.14818337974E+03  0.00000000000E+00 0.  1.
<mgrwt>
<rscale>  0 0.30875107E+04</rscale>
<asrwt>0</asrwt>
<pdfrwt beam="1">  1        1 0.29573218E+00 0.30875107E+04</pdfrwt>
<pdfrwt beam="2">  1       -1 0.19073555E+00 0.30875107E+04</pdfrwt>
<totfact> 0.49634385E-01</totfact>
</mgrwt>
</event>
<event>
12    2  0.3561489E-008  0.1863884E+04  0.7818608E-02  0.8673046E-01
          2   -1    0    0  501    0  0.00000000000E+00  0.00000000000E+00  0.51525039231E+03  0.51525039231E+03  0.00000000000E+00 0. -1.
         -2   -1    0    0    0  501 -0.00000000000E+00 -0.00000000000E+00 -0.16856186674E+04  0.16856186674E+04  0.00000000000E+00 0.  1.
         23    2    1    2    0    0  0.56224470650E+03  0.39683330274E+03 -0.65890338340E+03  0.95700027096E+03  0.90000387844E+02 0.  0.
        254    2    1    2    0    0 -0.56224470650E+03 -0.39683330274E+03 -0.51146489173E+03  0.12438687888E+04  0.90112010749E+03 0.  0.
         23    2    4    4    0    0 -0.64249230569E+03 -0.91688107433E+02 -0.23917792271E+02  0.65582354938E+03  0.91265520402E+02 0.  0.
         23    2    4    4    0    0  0.80247599192E+02 -0.30514519531E+03 -0.48754709946E+03  0.58804523942E+03  0.92421653399E+02 0.  0.
          3    1    3    3  502    0  0.56116197731E+03  0.38135596269E+03 -0.64579327305E+03  0.93668782771E+03  0.00000000000E+00 0. -1.
         -3    1    3    3    0  502  0.10827291874E+01  0.15477340049E+02 -0.13110110355E+02  0.20312443255E+02  0.00000000000E+00 0.  1.
         11    1    5    5    0    0  0.15419762304E+00 -0.64306000623E+01  0.27555364682E+01  0.69978121793E+01  0.00000000000E+00 0. -1.
        -11    1    5    5    0    0 -0.64264650331E+03 -0.85257507371E+02 -0.26673328739E+02  0.64882573720E+03  0.00000000000E+00 0.  1.
          4    1    6    6  503    0  0.48264732981E+02 -0.19542275789E+03 -0.38521537631E+03  0.43463826902E+03  0.00000000000E+00 0. -1.
         -4    1    6    6    0  503  0.31982866211E+02 -0.10972243742E+03 -0.10233172315E+03  0.15340697040E+03  0.00000000000E+00 0.  1.
<mgrwt>
<rscale>  0 0.18638838E+04</rscale>
<asrwt>0</asrwt>
<pdfrwt beam="1">  1        2 0.79269292E-01 0.18638838E+04</pdfrwt>
<pdfrwt beam="2">  1       -2 0.25932595E+00 0.18638838E+04</pdfrwt>
<totfact> 0.31458457E+00</totfact>
</mgrwt>
</event>
<event>
12    2  0.3561489E-008  0.1536620E+04  0.7818608E-02  0.8860460E-01
          1   -1    0    0  501    0  0.00000000000E+00  0.00000000000E+00  0.29352705670E+04  0.29352705670E+04  0.00000000000E+00 0. -1.
         -1   -1    0    0    0  501 -0.00000000000E+00 -0.00000000000E+00 -0.20110579491E+03  0.20110579491E+03  0.00000000000E+00 0.  1.
         23    2    1    2    0    0  0.87715643933E+02 -0.42380061132E+03  0.39170319836E+03  0.59013725471E+03  0.86773218478E+02 0.  0.
        254    2    1    2    0    0 -0.87715643933E+02  0.42380061132E+03  0.23424615737E+04  0.25462391072E+04  0.89939222493E+03 0.  0.
         23    2    4    4    0    0 -0.46689160426E+03  0.33126785521E+03  0.16200089532E+04  0.17201161401E+04  0.81512973300E+02 0.  0.
         23    2    4    4    0    0  0.37917596033E+03  0.92532756109E+02  0.72245262047E+03  0.82612296708E+03  0.90579512431E+02 0.  0.
          2    1    3    3  502    0  0.27750706555E+02 -0.11689793630E+03  0.16405110295E+03  0.20334206059E+03  0.00000000000E+00 0. -1.
         -2    1    3    3    0  502  0.59964937378E+02 -0.30690267503E+03  0.22765209541E+03  0.38679519412E+03  0.00000000000E+00 0.  1.
         11    1    5    5    0    0 -0.46039766700E+03  0.33047843105E+03  0.16158773174E+04  0.17123789037E+04  0.00000000000E+00 0. -1.
        -11    1    5    5    0    0 -0.64939372596E+01  0.78942416306E+00  0.41316358866E+01  0.77372363762E+01  0.00000000000E+00 0.  1.
          2    1    6    6  503    0  0.37086629924E+03  0.10515169081E+03  0.69188088575E+03  0.79202136970E+03  0.00000000000E+00 0. -1.
         -2    1    6    6    0  503  0.83096610878E+01 -0.12618934699E+02  0.30571734717E+02  0.34101597381E+02  0.00000000000E+00 0.  1.
<mgrwt>
<rscale>  0 0.15366196E+04</rscale>
<asrwt>0</asrwt>
<pdfrwt beam="1">  1        1 0.45158006E+00 0.15366196E+04</pdfrwt>
<pdfrwt beam="2">  1       -1 0.30939355E-01 0.15366196E+04</pdfrwt>
<totfact> 0.62421200E+00</totfact>
</mgrwt>
</event>
<event>
12    2  0.3561489E-008  0.1221079E+04  0.7818608E-02  0.9094604E-01
          2   -1    0    0  501    0  0.00000000000E+00  0.00000000000E+00  0.11981336630E+04  0.11981336630E+04  0.00000000000E+00 0. -1.
         -2   -1    0    0    0  501 -0.00000000000E+00 -0.00000000000E+00 -0.31111576756E+03  0.31111576756E+03  0.00000000000E+00 0.  1.
         23    2    1    2    0    0 -0.85092940679E+02  0.76701495665E+02  0.49211612913E+03  0.51376510470E+03  0.93018117921E+02 0.  0.
        254    2    1    2    0    0  0.85092940679E+02 -0.76701495665E+02  0.39490176633E+03  0.99548432589E+03  0.90659677368E+03 0.  0.
         23    2    4    4    0    0 -0.69961301425E+02  0.39405289993E+03  0.17001444783E+03  0.44410986721E+03  0.90312734648E+02 0.  0.
         23    2    4    4    0    0  0.15505424210E+03 -0.47075439559E+03  0.22488731850E+03  0.55137445868E+03  0.88249468556E+02 0.  0.
          2    1    3    3  502    0 -0.14882038838E+02  0.60645957525E+02  0.33709078170E+03  0.34282590676E+03  0.00000000000E+00 0. -1.
         -2    1    3    3    0  502 -0.70210901841E+02  0.16055538140E+02  0.15502534744E+03  0.17093919794E+03  0.00000000000E+00 0.  1.
         11    1    5    5    0    0 -0.75819784497E+02  0.39660898508E+03  0.16851920535E+03  0.43754548260E+03  0.00000000000E+00 0.  1.
        -11    1    5    5    0    0  0.58584830717E+01 -0.25560851538E+01  0.14952424761E+01  0.65643846076E+01  0.00000000000E+00 0. -1.
          3    1    6    6  503    0 -0.22081960304E+01 -0.96625652109E+02  0.30226740455E+02  0.10126721391E+03  0.00000000000E+00 0. -1.
         -3    1    6    6    0  503  0.15726243813E+03 -0.37412874348E+03  0.19466057804E+03  0.45010724477E+03  0.00000000000E+00 0.  1.
<mgrwt>
<rscale>  0 0.12210787E+04</rscale>
<asrwt>0</asrwt>
<pdfrwt beam="1">  1        2 0.18432825E+00 0.12210787E+04</pdfrwt>
<pdfrwt beam="2">  1       -2 0.47863965E-01 0.12210787E+04</pdfrwt>
<totfact> 0.77363241E+01</totfact>
</mgrwt>
</event>
<event>
12    2  0.3561489E-008  0.1602156E+04  0.7818608E-02  0.8819224E-01
          2   -1    0    0  501    0  0.00000000000E+00  0.00000000000E+00  0.13177136441E+04  0.13177136441E+04  0.00000000000E+00 0.  1.
         -2   -1    0    0    0  501 -0.00000000000E+00 -0.00000000000E+00 -0.48699974610E+03  0.48699974610E+03  0.00000000000E+00 0. -1.
         23    2    1    2    0    0  0.26953021468E+03  0.21072226104E+03 -0.19748779387E+03  0.40544800456E+03  0.91303054461E+02 0.  0.
        254    2    1    2    0    0 -0.26953021468E+03 -0.21072226104E+03  0.10282016919E+04  0.13992653857E+04  0.88526521020E+03 0.  0.
         23    2    4    4    0    0 -0.51024182121E+03  0.11628815315E+03  0.52610179327E+03  0.74739854721E+03  0.89173094678E+02 0.  0.
         23    2    4    4    0    0  0.24071160653E+03 -0.32701041418E+03  0.50209989865E+03  0.65186683848E+03  0.89152556794E+02 0.  0.
          1    1    3    3  502    0  0.89853106085E+02  0.12635478128E+03 -0.97911334686E+02  0.18337322838E+03  0.00000000000E+00 0. -1.
         -1    1    3    3    0  502  0.17967710859E+03  0.84367479751E+02 -0.99576459185E+02  0.22207477618E+03  0.00000000000E+00 0.  1.
         11    1    5    5    0    0 -0.49836400771E+03  0.98386449162E+02  0.51434186769E+03  0.72290672595E+03  0.00000000000E+00 0. -1.
        -11    1    5    5    0    0 -0.11877813492E+02  0.17901703984E+02  0.11759925582E+02  0.24491821259E+02  0.00000000000E+00 0.  1.
          1    1    6    6  503    0  0.18974532769E+03 -0.25900875100E+03  0.33278819051E+03  0.46242491522E+03  0.00000000000E+00 0. -1.
         -1    1    6    6    0  503  0.50966278837E+02 -0.68001663186E+02  0.16931170814E+03  0.18944192326E+03  0.00000000000E+00 0.  1.
<mgrwt>
<rscale>  0 0.16021563E+04</rscale>
<asrwt>0</asrwt>
<pdfrwt beam="1">  1        2 0.20272517E+00 0.16021563E+04</pdfrwt>
<pdfrwt beam="2">  1       -2 0.74923038E-01 0.16021563E+04</pdfrwt>
<totfact> 0.24772126E+01</totfact>
</mgrwt>
</event>
<event>
12    2  0.3561489E-008  0.2828844E+04  0.7818608E-02  0.8294369E-01
          1   -1    0    0  501    0  0.00000000000E+00  0.00000000000E+00  0.30303694337E+04  0.30303694337E+04  0.00000000000E+00 0. -1.
         -1   -1    0    0    0  501 -0.00000000000E+00 -0.00000000000E+00 -0.66017999337E+03  0.66017999337E+03  0.00000000000E+00 0.  1.
         23    2    1    2    0    0  0.18610489868E+03 -0.12183610459E+04  0.14644716934E+04  0.19162321510E+04  0.90717387550E+02 0.  0.
        254    2    1    2    0    0 -0.18610489868E+03  0.12183610459E+04  0.90571774695E+03  0.17743172761E+04  0.89935448378E+03 0.  0.
         23    2    4    4    0    0  0.35204726513E+03  0.47872548286E+03  0.43320448146E+03  0.74111068955E+03  0.91997644459E+02 0.  0.
         23    2    4    4    0    0 -0.53815216381E+03  0.73963556304E+03  0.47251326549E+03  0.10332065865E+04  0.87054849457E+02 0.  0.
          2    1    3    3  502    0  0.14657939716E+03 -0.91435608602E+03  0.10383869592E+04  0.13913231288E+04  0.00000000000E+00 0. -1.
         -2    1    3    3    0  502  0.39525501524E+02 -0.30400495988E+03  0.42608473413E+03  0.52490902217E+03  0.00000000000E+00 0.  1.
         11    1    5    5    0    0  0.10586913185E+03  0.17224597365E+03  0.98893711857E+02  0.22507091052E+03  0.00000000000E+00 0. -1.
        -11    1    5    5    0    0  0.24617813328E+03  0.30647950921E+03  0.33431076960E+03  0.51603977903E+03  0.00000000000E+00 0.  1.
          2    1    6    6  503    0 -0.28765447498E+02  0.22110423854E+02  0.35306604600E+02  0.50624876702E+02  0.00000000000E+00 0. -1.
         -2    1    6    6    0  503 -0.50938671631E+03  0.71752513918E+03  0.43720666089E+03  0.98258170980E+03  0.00000000000E+00 0.  1.
<mgrwt>
<rscale>  0 0.28288438E+04</rscale>
<asrwt>0</asrwt>
<pdfrwt beam="1">  1        1 0.46621067E+00 0.28288438E+04</pdfrwt>
<pdfrwt beam="2">  1       -1 0.10156615E+00 0.28288438E+04</pdfrwt>
<totfact> 0.45076626E-01</totfact>
</mgrwt>
</event>
<event>
12    2  0.3561489E-008  0.1483443E+04  0.7818608E-02  0.8895538E-01
          2   -1    0    0  501    0  0.00000000000E+00  0.00000000000E+00  0.12254506279E+04  0.12254506279E+04  0.00000000000E+00 0. -1.
         -2   -1    0    0    0  501 -0.00000000000E+00 -0.00000000000E+00 -0.44893780479E+03  0.44893780479E+03  0.00000000000E+00 0.  1.
         23    2    1    2    0    0  0.27307891990E+02  0.25213067339E+03 -0.20270215205E+03  0.33714716963E+03  0.90909043082E+02 0.  0.
        254    2    1    2    0    0 -0.27307891990E+02 -0.25213067339E+03  0.97921497520E+03  0.13372412631E+04  0.87466372433E+03 0.  0.
         23    2    4    4    0    0  0.26841443742E+03 -0.42821630539E+03  0.76892151201E+03  0.92454679213E+03  0.90171862534E+02 0.  0.
         23    2    4    4    0    0 -0.29572232941E+03  0.17608563200E+03  0.21029346319E+03  0.41269447097E+03  0.87381575841E+02 0.  0.
          2    1    3    3  502    0 -0.30665136671E+02  0.95784460819E+02 -0.56357549945E+02  0.11528741032E+03  0.00000000000E+00 0. -1.
         -2    1    3    3    0  502  0.57973028660E+02  0.15634621257E+03 -0.14634460211E+03  0.22185975931E+03  0.00000000000E+00 0.  1.
         11    1    5    5    0    0  0.19517244630E+03 -0.22831586418E+03  0.45916497868E+03  0.54868287314E+03  0.00000000000E+00 0.  1.
        -11    1    5    5    0    0  0.73241991120E+02 -0.19990044121E+03  0.30975653334E+03  0.37586391900E+03  0.00000000000E+00 0. -1.
          3    1    6    6  503    0 -0.58897233125E+02  0.77903903818E+02  0.72569920845E+02  0.12167290459E+03  0.00000000000E+00 0. -1.
         -3    1    6    6    0  503 -0.23682509629E+03  0.98181728180E+02  0.13772354235E+03  0.29102156638E+03  0.00000000000E+00 0.  1.
<mgrwt>
<rscale>  0 0.14834434E+04</rscale>
<asrwt>0</asrwt>
<pdfrwt beam="1">  1        2 0.18853086E+00 0.14834434E+04</pdfrwt>
<pdfrwt beam="2">  1       -2 0.69067355E-01 0.14834434E+04</pdfrwt>
<totfact> 0.33870803E+01</totfact>
</mgrwt>
</event>
<event>
12    2  0.3561489E-008  0.2285190E+04  0.7818608E-02  0.8483784E-01
          1   -1    0    0  501    0  0.00000000000E+00  0.00000000000E+00  0.18368969481E+04  0.18368969481E+04  0.00000000000E+00 0. -1.
         -1   -1    0    0    0  501 -0.00000000000E+00 -0.00000000000E+00 -0.71072197504E+03  0.71072197504E+03  0.00000000000E+00 0.  1.
         23    2    1    2    0    0  0.46812437837E+03  0.97157272980E+02 -0.44969047187E+03  0.66247091989E+03  0.89812192344E+02 0.  0.
        254    2    1    2    0    0 -0.46812437837E+03 -0.97157272980E+02  0.15758654450E+04  0.18851480033E+04  0.91752445437E+03 0.  0.
         23    2    4    4    0    0 -0.54056231955E+03 -0.22412698911E+03  0.44341079679E+03  0.73971255329E+03  0.90116581283E+02 0.  0.
         23    2    4    4    0    0  0.72437941189E+02  0.12696971613E+03  0.11324546482E+04  0.11454354500E+04  0.90555374209E+02 0.  0.
          1    1    3    3  502    0  0.32254753367E+03  0.10387868650E+03 -0.34038940489E+03  0.48030473655E+03  0.00000000000E+00 0. -1.
         -1    1    3    3    0  502  0.14557684469E+03 -0.67214135168E+01 -0.10930106697E+03  0.18216618334E+03  0.00000000000E+00 0.  1.
         11    1    5    5    0    0 -0.85897683045E+02 -0.72196008336E+02  0.72453835922E+02  0.13356733849E+03  0.00000000000E+00 0. -1.
        -11    1    5    5    0    0 -0.45466463651E+03 -0.15193098078E+03  0.37095696087E+03  0.60614521480E+03  0.00000000000E+00 0.  1.
          1    1    6    6  503    0  0.73512219822E+01  0.10175906327E+03  0.65013932058E+03  0.65809580122E+03  0.00000000000E+00 0. -1.
         -1    1    6    6    0  503  0.65086719206E+02  0.25210652864E+02  0.48231532760E+03  0.48733964878E+03  0.00000000000E+00 0.  1.
<mgrwt>
<rscale>  0 0.22851897E+04</rscale>
<asrwt>0</asrwt>
<pdfrwt beam="1">  1        1 0.28259953E+00 0.22851897E+04</pdfrwt>
<pdfrwt beam="2">  1       -1 0.10934184E+00 0.22851897E+04</pdfrwt>
<totfact> 0.26936639E+00</totfact>
</mgrwt>
</event>
<event>
12    2  0.3561489E-008  0.1485916E+04  0.7818608E-02  0.8893873E-01
         -2   -1    0    0    0  501 -0.00000000000E+00  0.00000000000E+00  0.72686475063E+03  0.72686475063E+03  0.00000000000E+00 0.  1.
          2   -1    0    0  501    0  0.00000000000E+00 -0.00000000000E+00 -0.75940724128E+03  0.75940724128E+03  0.00000000000E+00 0. -1.
         23    2    1    2    0    0  0.40291295642E+03 -0.15665353473E+03 -0.96674957976E+02  0.45224203695E+03  0.91091339265E+02 0.  0.
        254    2    1    2    0    0 -0.40291295642E+03  0.15665353473E+03  0.64132467330E+02  0.10340299550E+04  0.93713701987E+03 0.  0.
         23    2    4    4    0    0 -0.41347540187E+03 -0.21399057455E+03 -0.25360867199E+03  0.53801907932E+03  0.91614940148E+02 0.  0.
         23    2    4    4    0    0  0.10562445452E+02  0.37064410928E+03  0.31774113932E+03  0.49601087565E+03  0.87055936883E+02 0.  0.
          2    1    3    3  502    0  0.16225019626E+03 -0.70914725924E+02  0.53319360397E+01  0.17715093588E+03  0.00000000000E+00 0.  1.
         -2    1    3    3    0  502  0.24066276016E+03 -0.85738808808E+02 -0.10200689402E+03  0.27509110107E+03  0.00000000000E+00 0. -1.
         11    1    5    5    0    0 -0.47127693554E+02 -0.35546632953E+02 -0.68570120822E+02  0.90478970394E+02  0.00000000000E+00 0.  1.
        -11    1    5    5    0    0 -0.36634770832E+03 -0.17844394159E+03 -0.18503855117E+03  0.44754010893E+03  0.00000000000E+00 0. -1.
          3    1    6    6  503    0  0.43585170664E+02  0.11281710154E+03  0.10115882514E+03  0.15767204383E+03  0.00000000000E+00 0. -1.
         -3    1    6    6    0  503 -0.33022725212E+02  0.25782700774E+03  0.21658231418E+03  0.33833883181E+03  0.00000000000E+00 0.  1.
<mgrwt>
<rscale>  0 0.14859157E+04</rscale>
<asrwt>0</asrwt>
<pdfrwt beam="1">  1        2 0.11683188E+00 0.14859157E+04</pdfrwt>
<pdfrwt beam="2">  1       -2 0.11182535E+00 0.14859157E+04</pdfrwt>
<totfact> 0.22529299E+01</totfact>
</mgrwt>
</event>
<event>
12    2  0.3561489E-008  0.1292519E+04  0.7818608E-02  0.9035519E-01
         -2   -1    0    0    0  501 -0.00000000000E+00  0.00000000000E+00  0.18585170981E+03  0.18585170981E+03  0.00000000000E+00 0.  1.
          2   -1    0    0  501    0  0.00000000000E+00 -0.00000000000E+00 -0.22472286318E+04  0.22472286318E+04  0.00000000000E+00 0. -1.
         23    2    1    2    0    0 -0.97391238121E+01 -0.31465339263E+03 -0.67759940362E+03  0.75316227015E+03  0.94925472719E+02 0.  0.
        254    2    1    2    0    0  0.97391238121E+01  0.31465339263E+03 -0.13837775184E+04  0.16799180715E+04  0.89898993235E+03 0.  0.
         23    2    4    4    0    0 -0.18511279802E+03 -0.16652324195E+03 -0.98115494645E+03  0.10168490313E+04  0.96541106971E+02 0.  0.
         23    2    4    4    0    0  0.19485192183E+03  0.48117663458E+03 -0.40262257196E+03  0.66306904024E+03  0.89762974339E+02 0.  0.
          4    1    3    3  502    0 -0.41758815215E+02 -0.24829141417E+03 -0.56546975248E+03  0.61898987550E+03  0.00000000000E+00 0. -1.
         -4    1    3    3    0  502  0.32019691403E+02 -0.66361978468E+02 -0.11212965113E+03  0.13417239465E+03  0.00000000000E+00 0.  1.
         11    1    5    5    0    0 -0.13324664741E+03 -0.13558463730E+03 -0.86814067703E+03  0.88871035666E+03  0.00000000000E+00 0. -1.
        -11    1    5    5    0    0 -0.51866150608E+02 -0.30938604647E+02 -0.11301426941E+03  0.12813867460E+03  0.00000000000E+00 0.  1.
          2    1    6    6  503    0  0.87810226203E+02  0.30034240428E+03 -0.20142198655E+03  0.37213843164E+03  0.00000000000E+00 0. -1.
         -2    1    6    6    0  503  0.10704169563E+03  0.18083423030E+03 -0.20120058542E+03  0.29093060860E+03  0.00000000000E+00 0.  1.
<mgrwt>
<rscale>  0 0.12925189E+04</rscale>
<asrwt>0</asrwt>
<pdfrwt beam="1">  1        2 0.34572747E+00 0.12925189E+04</pdfrwt>
<pdfrwt beam="2">  1       -2 0.28592572E-01 0.12925189E+04</pdfrwt>
<totfact> 0.53543535E+01</totfact>
</mgrwt>
</event>
<event>
12    2  0.3561489E-008  0.1171901E+04  0.7818608E-02  0.9137814E-01
         -2   -1    0    0    0  501 -0.00000000000E+00  0.00000000000E+00  0.14314197701E+03  0.14314197701E+03  0.00000000000E+00 0.  1.
          2   -1    0    0  501    0  0.00000000000E+00 -0.00000000000E+00 -0.23985816521E+04  0.23985816521E+04  0.00000000000E+00 0. -1.
         23    2    1    2    0    0 -0.38634562605E+02 -0.20602572486E+03 -0.26791029249E+03  0.35243497954E+03  0.92169741529E+02 0.  0.
        254    2    1    2    0    0  0.38634562605E+02  0.20602572486E+03 -0.19875293826E+04  0.21892886496E+04  0.89374074300E+03 0.  0.
         23    2    4    4    0    0  0.21153200328E+03 -0.21743366886E+03 -0.29409653336E+03  0.43259791100E+03  0.92870839887E+02 0.  0.
         23    2    4    4    0    0 -0.17289744068E+03  0.42345939372E+03 -0.16934328492E+04  0.17566907386E+04  0.95058681665E+02 0.  0.
          3    1    3    3  502    0 -0.59963596972E+00 -0.79615858389E+02 -0.40112280617E+02  0.89151778034E+02  0.00000000000E+00 0. -1.
         -3    1    3    3    0  502 -0.38034926635E+02 -0.12640986647E+03 -0.22779801187E+03  0.26328320151E+03  0.00000000000E+00 0.  1.
         11    1    5    5    0    0  0.11149545822E+03 -0.14076239409E+03 -0.11372343967E+03  0.21255189842E+03  0.00000000000E+00 0.  1.
        -11    1    5    5    0    0  0.10003654506E+03 -0.76671274770E+02 -0.18037309369E+03  0.22004601258E+03  0.00000000000E+00 0. -1.
          3    1    6    6  503    0 -0.14724348094E+03  0.25015596268E+03 -0.11271840191E+04  0.11639598194E+04  0.00000000000E+00 0. -1.
         -3    1    6    6    0  503 -0.25653959732E+02  0.17330343104E+03 -0.56624883014E+03  0.59273091913E+03  0.00000000000E+00 0.  1.
<mgrwt>
<rscale>  0 0.11719005E+04</rscale>
<asrwt>0</asrwt>
<pdfrwt beam="1">  1        2 0.36901254E+00 0.11719005E+04</pdfrwt>
<pdfrwt beam="2">  1       -2 0.22021844E-01 0.11719005E+04</pdfrwt>
<totfact> 0.71362743E+01</totfact>
</mgrwt>
</event>
<event>
12    2  0.3561489E-008  0.2701963E+04  0.7818608E-02  0.8334368E-01
          2   -1    0    0  501    0  0.00000000000E+00  0.00000000000E+00  0.43012068836E+04  0.43012068836E+04  0.00000000000E+00 0. -1.
         -2   -1    0    0    0  501 -0.00000000000E+00 -0.00000000000E+00 -0.42433477461E+03  0.42433477461E+03  0.00000000000E+00 0.  1.
         23    2    1    2    0    0  0.73196757234E+03 -0.87154264655E+03  0.10652246458E+04  0.15615492799E+04  0.91484949735E+02 0.  0.
        254    2    1    2    0    0 -0.73196757234E+03  0.87154264655E+03  0.28116474632E+04  0.31639923782E+04  0.90006844215E+03 0.  0.
         23    2    4    4    0    0 -0.42369926845E+03  0.23511348190E+03  0.20975176441E+04  0.21546366589E+04  0.89885735633E+02 0.  0.
         23    2    4    4    0    0 -0.30826830389E+03  0.63642916465E+03  0.71412981914E+03  0.10093557193E+04  0.93520803510E+02 0.  0.
          3    1    3    3  502    0  0.62774325179E+03 -0.71955335461E+03  0.93030428091E+03  0.13331484071E+04  0.00000000000E+00 0. -1.
         -3    1    3    3    0  502  0.10422432056E+03 -0.15198929194E+03  0.13492036486E+03  0.22840087284E+03  0.00000000000E+00 0.  1.
         11    1    5    5    0    0 -0.10241721855E+03  0.48443291924E+02  0.67220555416E+03  0.68168639874E+03  0.00000000000E+00 0.  1.
        -11    1    5    5    0    0 -0.32128204990E+03  0.18667018997E+03  0.14253120899E+04  0.14729502602E+04  0.00000000000E+00 0. -1.
          1    1    6    6  503    0 -0.12626029939E+03  0.34181622955E+03  0.32284745391E+03  0.48683721764E+03  0.00000000000E+00 0. -1.
         -1    1    6    6    0  503 -0.18200800450E+03  0.29461293511E+03  0.39128236523E+03  0.52251850166E+03  0.00000000000E+00 0.  1.
<mgrwt>
<rscale>  0 0.27019635E+04</rscale>
<asrwt>0</asrwt>
<pdfrwt beam="1">  1        2 0.66172411E+00 0.27019635E+04</pdfrwt>
<pdfrwt beam="2">  1       -2 0.65282276E-01 0.27019635E+04</pdfrwt>
<totfact> 0.35974680E-01</totfact>
</mgrwt>
</event>
<event>
12    2  0.3561489E-008  0.1356879E+04  0.7818608E-02  0.8985637E-01
         -2   -1    0    0    0  501 -0.00000000000E+00  0.00000000000E+00  0.49330352307E+03  0.49330352307E+03  0.00000000000E+00 0.  1.
          2   -1    0    0  501    0  0.00000000000E+00 -0.00000000000E+00 -0.93305625491E+03  0.93305625491E+03  0.00000000000E+00 0. -1.
         23    2    1    2    0    0  0.32244476767E+03 -0.78426503340E+02  0.41362493872E+02  0.35037469147E+03  0.10454771112E+03 0.  0.
        254    2    1    2    0    0 -0.32244476767E+03  0.78426503340E+02 -0.48111522571E+03  0.10759850865E+04  0.90341059401E+03 0.  0.
         23    2    4    4    0    0 -0.53997868276E+03  0.88184858932E+02 -0.59626269777E+03  0.81435644249E+03  0.91069553054E+02 0.  0.
         23    2    4    4    0    0  0.21753391509E+03 -0.97583555913E+01  0.11514747206E+03  0.26162864402E+03  0.88172429546E+02 0.  0.
          1    1    3    3  502    0 -0.28202503337E+01  0.32736353906E+01 -0.10188548391E+02  0.11066933583E+02  0.00000000000E+00 0. -1.
         -1    1    3    3    0  502  0.32526501801E+03 -0.81700138731E+02  0.51551042263E+02  0.33930775789E+03  0.00000000000E+00 0.  1.
         11    1    5    5    0    0 -0.50679216403E+03  0.86278469214E+02 -0.52027138500E+03  0.73141273288E+03  0.00000000000E+00 0. -1.
        -11    1    5    5    0    0 -0.33186518734E+02  0.19063897175E+01 -0.75991312774E+02  0.82943709614E+02  0.00000000000E+00 0.  1.
          3    1    6    6  503    0  0.20097119924E+03  0.15026598172E+02  0.11455149500E+03  0.23181299917E+03  0.00000000000E+00 0. -1.
         -3    1    6    6    0  503  0.16562715846E+02 -0.24784953763E+02  0.59597706435E+00  0.29815644851E+02  0.00000000000E+00 0.  1.
<mgrwt>
<rscale>  0 0.13568787E+04</rscale>
<asrwt>0</asrwt>
<pdfrwt beam="1">  1        2 0.14354711E+00 0.13568787E+04</pdfrwt>
<pdfrwt beam="2">  1       -2 0.75892850E-01 0.13568787E+04</pdfrwt>
<totfact> 0.42319696E+01</totfact>
</mgrwt>
</event>
<event>
12    2  0.3561489E-008  0.1360220E+04  0.7818608E-02  0.8983128E-01
         -1   -1    0    0    0  501 -0.00000000000E+00  0.00000000000E+00  0.47948719238E+03  0.47948719238E+03  0.00000000000E+00 0. -1.
          1   -1    0    0  501    0  0.00000000000E+00 -0.00000000000E+00 -0.96467551606E+03  0.96467551606E+03  0.00000000000E+00 0.  1.
         23    2    1    2    0    0 -0.28107117796E+03  0.11405843077E+03  0.99310834035E+02  0.33182853884E+03  0.90759047585E+02 0.  0.
        254    2    1    2    0    0  0.28107117796E+03 -0.11405843077E+03 -0.58449915772E+03  0.11123341696E+04  0.89645842447E+03 0.  0.
         23    2    4    4    0    0  0.13235191276E+02  0.26102937438E+03 -0.58000248440E+03  0.64222230904E+03  0.87949461251E+02 0.  0.
         23    2    4    4    0    0  0.26783598669E+03 -0.37508780515E+03 -0.44966733197E+01  0.47011186057E+03  0.92509264637E+02 0.  0.
          4    1    3    3  502    0 -0.39673761495E+02  0.50339518878E+02  0.27896338131E+01  0.64154941889E+02  0.00000000000E+00 0.  1.
         -4    1    3    3    0  502 -0.24139741647E+03  0.63718911888E+02  0.96521200222E+02  0.26767359695E+03  0.00000000000E+00 0. -1.
         11    1    5    5    0    0 -0.18188668998E+02  0.73080056637E+02 -0.25060926780E+03  0.26168020075E+03  0.00000000000E+00 0.  1.
        -11    1    5    5    0    0  0.31423860274E+02  0.18794931775E+03 -0.32939321660E+03  0.38054210829E+03  0.00000000000E+00 0. -1.
          1    1    6    6  503    0  0.51350786319E+01 -0.19875019932E+02 -0.19142905672E+02  0.28068421534E+02  0.00000000000E+00 0. -1.
         -1    1    6    6    0  503  0.26270090805E+03 -0.35521278522E+03  0.14646232352E+02  0.44204343904E+03  0.00000000000E+00 0.  1.
<mgrwt>
<rscale>  0 0.13602199E+04</rscale>
<asrwt>0</asrwt>
<pdfrwt beam="1">  1        1 0.14841162E+00 0.13602199E+04</pdfrwt>
<pdfrwt beam="2">  1       -1 0.73767262E-01 0.13602199E+04</pdfrwt>
<totfact> 0.29214112E+01</totfact>
</mgrwt>
</event>
<event>
12    2  0.3561489E-008  0.1874107E+04  0.7818608E-02  0.8667854E-01
          2   -1    0    0  501    0  0.00000000000E+00  0.00000000000E+00  0.13002341325E+04  0.13002341325E+04  0.00000000000E+00 0. -1.
         -2   -1    0    0    0  501 -0.00000000000E+00 -0.00000000000E+00 -0.67531599550E+03  0.67531599550E+03  0.00000000000E+00 0.  1.
         23    2    1    2    0    0  0.32464871388E+03  0.38801956725E+03 -0.29471280035E+03  0.59230916952E+03  0.89546332265E+02 0.  0.
        254    2    1    2    0    0 -0.32464871388E+03 -0.38801956725E+03  0.91963093736E+03  0.13832409585E+04  0.90093202646E+03 0.  0.
         23    2    4    4    0    0  0.21502113886E+03 -0.37481702885E+03  0.61458669562E+03  0.75698745896E+03  0.92689326898E+02 0.  0.
         23    2    4    4    0    0 -0.53966985274E+03 -0.13202538400E+02  0.30504424174E+03  0.62625349953E+03  0.87884010344E+02 0.  0.
          4    1    3    3  502    0  0.69394521497E+02  0.57208703378E+02 -0.19644662334E+02  0.92056222572E+02  0.00000000000E+00 0. -1.
         -4    1    3    3    0  502  0.25525419238E+03  0.33081086387E+03 -0.27506813802E+03  0.50025294695E+03  0.00000000000E+00 0.  1.
         11    1    5    5    0    0  0.12686271581E+03 -0.19974906535E+03  0.25802839128E+03  0.35010353965E+03  0.00000000000E+00 0.  1.
        -11    1    5    5    0    0  0.88158423052E+02 -0.17506796349E+03  0.35655830434E+03  0.40688391931E+03  0.00000000000E+00 0. -1.
          3    1    6    6  503    0 -0.30259710174E+03 -0.32339529215E+02  0.12992238370E+03  0.33089375472E+03  0.00000000000E+00 0. -1.
         -3    1    6    6    0  503 -0.23707275100E+03  0.19136990815E+02  0.17512185804E+03  0.29535974480E+03  0.00000000000E+00 0.  1.
<mgrwt>
<rscale>  0 0.18741066E+04</rscale>
<asrwt>0</asrwt>
<pdfrwt beam="1">  1        2 0.20003602E+00 0.18741066E+04</pdfrwt>
<pdfrwt beam="2">  1       -2 0.10389477E+00 0.18741066E+04</pdfrwt>
<totfact> 0.11696307E+01</totfact>
</mgrwt>
</event>
<event>
12    2  0.3561489E-008  0.1415192E+04  0.7818608E-02  0.8942895E-01
          1   -1    0    0  501    0  0.00000000000E+00  0.00000000000E+00  0.24990292961E+04  0.24990292961E+04  0.00000000000E+00 0. -1.
         -1   -1    0    0    0  501 -0.00000000000E+00 -0.00000000000E+00 -0.20035450390E+03  0.20035450390E+03  0.00000000000E+00 0.  1.
         23    2    1    2    0    0 -0.23733694713E+03  0.28340089055E+03  0.30519991920E+03  0.48734755757E+03  0.87839398625E+02 0.  0.
        254    2    1    2    0    0  0.23733694713E+03 -0.28340089055E+03  0.19934748730E+04  0.22120362424E+04  0.88460012280E+03 0.  0.
         23    2    4    4    0    0 -0.22556905270E+03 -0.20307280396E+03  0.24639367991E+03  0.40063084675E+03  0.87608610409E+02 0.  0.
         23    2    4    4    0    0  0.46290599983E+03 -0.80328086590E+02  0.17470811931E+04  0.18114053957E+04  0.90345149621E+02 0.  0.
          1    1    3    3  502    0 -0.18364181933E+02 -0.35603529364E+01  0.11198164931E+02  0.21801793251E+02  0.00000000000E+00 0. -1.
         -1    1    3    3    0  502 -0.21897276520E+03  0.28696124349E+03  0.29400175427E+03  0.46554576432E+03  0.00000000000E+00 0.  1.
         11    1    5    5    0    0 -0.16365970360E+03 -0.12406903198E+03  0.11529758114E+03  0.23552315278E+03  0.00000000000E+00 0. -1.
        -11    1    5    5    0    0 -0.61909349107E+02 -0.79003771983E+02  0.13109609877E+03  0.16510769397E+03  0.00000000000E+00 0.  1.
          4    1    6    6  503    0  0.41821969714E+03 -0.79138491691E+02  0.14569885376E+04  0.15178887360E+04  0.00000000000E+00 0.  1.
         -4    1    6    6    0  503  0.44686302694E+02 -0.11895948988E+01  0.29009265545E+03  0.29351665972E+03  0.00000000000E+00 0. -1.
<mgrwt>
<rscale>  0 0.14151915E+04</rscale>
<asrwt>0</asrwt>
<pdfrwt beam="1">  1        1 0.38446602E+00 0.14151915E+04</pdfrwt>
<pdfrwt beam="2">  1       -1 0.30823772E-01 0.14151915E+04</pdfrwt>
<totfact> 0.12898952E+01</totfact>
</mgrwt>
</event>
<event>
12    2  0.3561489E-008  0.1411359E+04  0.7818608E-02  0.8945637E-01
          1   -1    0    0  501    0  0.00000000000E+00  0.00000000000E+00  0.13884838168E+04  0.13884838168E+04  0.00000000000E+00 0. -1.
         -1   -1    0    0    0  501 -0.00000000000E+00 -0.00000000000E+00 -0.35865273117E+03  0.35865273117E+03  0.00000000000E+00 0.  1.
         23    2    1    2    0    0  0.79301124768E+02  0.26063491162E+03 -0.66488623243E+02  0.29452849737E+03  0.90039286962E+02 0.  0.
        254    2    1    2    0    0 -0.79301124768E+02 -0.26063491162E+03  0.10963197089E+04  0.14526080506E+04  0.91319987903E+03 0.  0.
         23    2    4    4    0    0 -0.32301567959E+03 -0.43765000029E+03  0.96363376079E+03  0.11102554830E+04  0.90556946652E+02 0.  0.
         23    2    4    4    0    0  0.24371455482E+03  0.17701508867E+03  0.13268594810E+03  0.34235256761E+03  0.94173212120E+02 0.  0.
          3    1    3    3  502    0  0.17405091620E+02  0.95942882614E+02 -0.67489150406E+02  0.11858650581E+03  0.00000000000E+00 0. -1.
         -3    1    3    3    0  502  0.61896033148E+02  0.16469202900E+03  0.10005271631E+01  0.17594199155E+03  0.00000000000E+00 0.  1.
         11    1    5    5    0    0 -0.20305324467E+03 -0.24790114107E+03  0.64833517123E+03  0.72320404463E+03  0.00000000000E+00 0. -1.
        -11    1    5    5    0    0 -0.11996243492E+03 -0.18974885922E+03  0.31529858955E+03  0.38705143837E+03  0.00000000000E+00 0.  1.
          1    1    6    6  503    0  0.20689329013E+03  0.12532032353E+03  0.66961096625E+02  0.25098566783E+03  0.00000000000E+00 0. -1.
         -1    1    6    6    0  503  0.36821264687E+02  0.51694765135E+02  0.65724851475E+02  0.91366899788E+02  0.00000000000E+00 0.  1.
<mgrwt>
<rscale>  0 0.14113589E+04</rscale>
<asrwt>0</asrwt>
<pdfrwt beam="1">  1        1 0.21361289E+00 0.14113589E+04</pdfrwt>
<pdfrwt beam="2">  1       -1 0.55177344E-01 0.14113589E+04</pdfrwt>
<totfact> 0.25316427E+01</totfact>
</mgrwt>
</event>
<event>
12    2  0.3561489E-008  0.1880026E+04  0.7818608E-02  0.8664863E-01
          2   -1    0    0  501    0  0.00000000000E+00  0.00000000000E+00  0.55748495940E+03  0.55748495940E+03  0.00000000000E+00 0. -1.
         -2   -1    0    0    0  501 -0.00000000000E+00 -0.00000000000E+00 -0.15850193978E+04  0.15850193978E+04  0.00000000000E+00 0.  1.
         23    2    1    2    0    0  0.51038116518E+03  0.15755815912E+03  0.15689334660E+03  0.56422762912E+03  0.91781196195E+02 0.  0.
        254    2    1    2    0    0 -0.51038116518E+03 -0.15755815912E+03 -0.11844277850E+04  0.15782767281E+04  0.89597697811E+03 0.  0.
         23    2    4    4    0    0  0.18579806593E+03 -0.22501940583E+03 -0.19275022251E+03  0.36141453823E+03  0.91176564193E+02 0.  0.
         23    2    4    4    0    0 -0.69617923112E+03  0.67461246709E+02 -0.99167756252E+03  0.12168621899E+04  0.90070303449E+02 0.  0.
          4    1    3    3  502    0  0.36640599260E+03  0.73997583051E+02  0.87703118919E+02  0.38395420402E+03  0.00000000000E+00 0. -1.
         -4    1    3    3    0  502  0.14397517258E+03  0.83560576067E+02  0.69190227676E+02  0.18027342510E+03  0.00000000000E+00 0.  1.
         11    1    5    5    0    0  0.18794637108E+03 -0.22342482342E+03 -0.19986065250E+03  0.35381742544E+03  0.00000000000E+00 0.  1.
        -11    1    5    5    0    0 -0.21483051518E+01 -0.15945824077E+01  0.71104299892E+01  0.75971127879E+01  0.00000000000E+00 0. -1.
          3    1    6    6  503    0 -0.89419231356E+02 -0.79275346877E+01 -0.17480787922E+03  0.19651065971E+03  0.00000000000E+00 0. -1.
         -3    1    6    6    0  503 -0.60675999976E+03  0.75388781396E+02 -0.81686968330E+03  0.10203515302E+04  0.00000000000E+00 0.  1.
<mgrwt>
<rscale>  0 0.18800260E+04</rscale>
<asrwt>0</asrwt>
<pdfrwt beam="1">  1        2 0.85766919E-01 0.18800260E+04</pdfrwt>
<pdfrwt beam="2">  1       -2 0.24384913E+00 0.18800260E+04</pdfrwt>
<totfact> 0.35626313E+00</totfact>
</mgrwt>
</event>
<event>
12    2  0.3561489E-008  0.1517818E+04  0.7818608E-02  0.8872690E-01
          2   -1    0    0  501    0  0.00000000000E+00  0.00000000000E+00  0.26575675844E+04  0.26575675844E+04  0.00000000000E+00 0.  1.
         -2   -1    0    0    0  501 -0.00000000000E+00 -0.00000000000E+00 -0.21671793113E+03  0.21671793113E+03  0.00000000000E+00 0. -1.
         23    2    1    2    0    0 -0.39728115974E+03 -0.19653431191E+03  0.84632499946E+03  0.95964063431E+03  0.90476995218E+02 0.  0.
        254    2    1    2    0    0  0.39728115974E+03  0.19653431191E+03  0.15945246538E+04  0.19146448812E+04  0.96275546943E+03 0.  0.
         23    2    4    4    0    0 -0.10803307145E+03  0.34135997062E+03  0.19447993059E+03  0.41644400781E+03  0.86054599918E+02 0.  0.
         23    2    4    4    0    0  0.50531423119E+03 -0.14482565871E+03  0.14000447232E+04  0.14982008734E+04  0.90353120691E+02 0.  0.
          3    1    3    3  502    0 -0.20533687906E+03 -0.11943242359E+03  0.36184306093E+03  0.43284840123E+03  0.00000000000E+00 0. -1.
         -3    1    3    3    0  502 -0.19194428068E+03 -0.77101888326E+02  0.48448193853E+03  0.52679223308E+03  0.00000000000E+00 0.  1.
         11    1    5    5    0    0 -0.12463501663E+02  0.94553321877E+02  0.14707989936E+02  0.96498676258E+02  0.00000000000E+00 0. -1.
        -11    1    5    5    0    0 -0.95569569789E+02  0.24680664875E+03  0.17977194065E+03  0.31994533155E+03  0.00000000000E+00 0.  1.
          3    1    6    6  503    0  0.30440435260E+02  0.14930098628E+01  0.14900555618E+03  0.15209044989E+03  0.00000000000E+00 0. -1.
         -3    1    6    6    0  503  0.47487379593E+03 -0.14631866857E+03  0.12510391670E+04  0.13461104235E+04  0.00000000000E+00 0.  1.
<mgrwt>
<rscale>  0 0.15178176E+04</rscale>
<asrwt>0</asrwt>
<pdfrwt beam="1">  1        2 0.40885653E+00 0.15178176E+04</pdfrwt>
<pdfrwt beam="2">  1       -2 0.33341222E-01 0.15178176E+04</pdfrwt>
<totfact> 0.22909417E+01</totfact>
</mgrwt>
</event>
<event>
12    2  0.3561489E-008  0.1780094E+04  0.7818608E-02  0.8716957E-01
         -2   -1    0    0    0  501 -0.00000000000E+00  0.00000000000E+00  0.23183156420E+03  0.23183156420E+03  0.00000000000E+00 0.  1.
          2   -1    0    0  501    0  0.00000000000E+00 -0.00000000000E+00 -0.34170673187E+04  0.34170673187E+04  0.00000000000E+00 0. -1.
         23    2    1    2    0    0  0.53826268728E+03  0.33289293256E+03 -0.15844702883E+04  0.17087727895E+04  0.93882513459E+02 0.  0.
        254    2    1    2    0    0 -0.53826268728E+03 -0.33289293256E+03 -0.16007654662E+04  0.19401260935E+04  0.89503896884E+03 0.  0.
         23    2    4    4    0    0 -0.19208046149E+03 -0.57763364462E+03 -0.12058172869E+04  0.13535213585E+04  0.86424577049E+02 0.  0.
         23    2    4    4    0    0 -0.34618222579E+03  0.24474071206E+03 -0.39494817930E+03  0.58660473494E+03  0.91547261790E+02 0.  0.
          4    1    3    3  502    0  0.20570694656E+03  0.10439551540E+03 -0.68912875383E+03  0.72671329343E+03  0.00000000000E+00 0.  1.
         -4    1    3    3    0  502  0.33255574072E+03  0.22849741716E+03 -0.89534153451E+03  0.98205949604E+03  0.00000000000E+00 0. -1.
         11    1    5    5    0    0 -0.32025835871E+02 -0.68137469257E+02 -0.21723344044E+03  0.22991027929E+03  0.00000000000E+00 0. -1.
        -11    1    5    5    0    0 -0.16005462562E+03 -0.50949617536E+03 -0.98858384647E+03  0.11236110792E+04  0.00000000000E+00 0.  1.
          3    1    6    6  503    0 -0.75717908645E+02  0.22146706817E+02 -0.10827740020E+03  0.13396892814E+03  0.00000000000E+00 0. -1.
         -3    1    6    6    0  503 -0.27046431714E+03  0.22259400524E+03 -0.28667077910E+03  0.45263580681E+03  0.00000000000E+00 0.  1.
<mgrwt>
<rscale>  0 0.17800944E+04</rscale>
<asrwt>0</asrwt>
<pdfrwt beam="1">  1        2 0.52570261E+00 0.17800944E+04</pdfrwt>
<pdfrwt beam="2">  1       -2 0.35666398E-01 0.17800944E+04</pdfrwt>
<totfact> 0.65339511E+00</totfact>
</mgrwt>
</event>
<event>
12    2  0.3561489E-008  0.2348492E+04  0.7818608E-02  0.8459043E-01
         -2   -1    0    0    0  501 -0.00000000000E+00  0.00000000000E+00  0.96260388789E+03  0.96260388789E+03  0.00000000000E+00 0.  1.
          2   -1    0    0  501    0  0.00000000000E+00 -0.00000000000E+00 -0.14324211440E+04  0.14324211440E+04  0.00000000000E+00 0. -1.
         23    2    1    2    0    0  0.63305651788E+03 -0.67420298667E+03 -0.55276886775E+03  0.10810903223E+04  0.88840541209E+02 0.  0.
        254    2    1    2    0    0 -0.63305651788E+03  0.67420298667E+03  0.82951611667E+02  0.13139347096E+04  0.92964145187E+03 0.  0.
         23    2    4    4    0    0  0.80452913041E+02  0.15111671078E+03  0.33703276544E+03  0.38887477457E+03  0.91233622205E+02 0.  0.
         23    2    4    4    0    0 -0.71350943093E+03  0.52308627589E+03 -0.25408115378E+03  0.92505993499E+03  0.91998318291E+02 0.  0.
          1    1    3    3  502    0  0.31699966336E+03 -0.28293090816E+03 -0.22568711795E+03  0.48111678476E+03  0.00000000000E+00 0. -1.
         -1    1    3    3    0  502  0.31605685452E+03 -0.39127207851E+03 -0.32708174980E+03  0.59997353755E+03  0.00000000000E+00 0.  1.
         11    1    5    5    0    0  0.61339225088E+02  0.55558366314E+02  0.84894345652E+02  0.11855919418E+03  0.00000000000E+00 0. -1.
        -11    1    5    5    0    0  0.19113687952E+02  0.95558344463E+02  0.25213841979E+03  0.27031558039E+03  0.00000000000E+00 0.  1.
          3    1    6    6  503    0 -0.69116191510E+02  0.19990190412E+02 -0.19516458391E+02  0.74548962365E+02  0.00000000000E+00 0. -1.
         -3    1    6    6    0  503 -0.64439323942E+03  0.50309608548E+03 -0.23456469539E+03  0.85051097263E+03  0.00000000000E+00 0.  1.
<mgrwt>
<rscale>  0 0.23484924E+04</rscale>
<asrwt>0</asrwt>
<pdfrwt beam="1">  1        2 0.22037248E+00 0.23484924E+04</pdfrwt>
<pdfrwt beam="2">  1       -2 0.14809291E+00 0.23484924E+04</pdfrwt>
<totfact> 0.38816489E+00</totfact>
</mgrwt>
</event>
<event>
12    2  0.3561489E-008  0.2447029E+04  0.7818608E-02  0.8422103E-01
         -1   -1    0    0    0  501 -0.00000000000E+00  0.00000000000E+00  0.14222781146E+04  0.14222781146E+04  0.00000000000E+00 0. -1.
          1   -1    0    0  501    0  0.00000000000E+00 -0.00000000000E+00 -0.10525283857E+04  0.10525283857E+04  0.00000000000E+00 0.  1.
         23    2    1    2    0    0  0.60784859137E+03  0.57829785565E+03  0.80737833048E+03  0.11679156423E+04  0.90878265980E+02 0.  0.
        254    2    1    2    0    0 -0.60784859137E+03 -0.57829785565E+03 -0.43762860153E+03  0.13068908579E+04  0.90140812167E+03 0.  0.
         23    2    4    4    0    0 -0.26239081925E+03 -0.74775447622E+03 -0.13580417055E+03  0.80924048837E+03  0.91878705585E+02 0.  0.
         23    2    4    4    0    0 -0.34545777212E+03  0.16945662057E+03 -0.30182443098E+03  0.49765036957E+03  0.92202411172E+02 0.  0.
          3    1    3    3  502    0  0.56228021680E+03  0.49699704901E+03  0.72702180386E+03  0.10448568381E+04  0.00000000000E+00 0. -1.
         -3    1    3    3    0  502  0.45568374570E+02  0.81300806634E+02  0.80356526618E+02  0.12305880420E+03  0.00000000000E+00 0.  1.
         11    1    5    5    0    0 -0.16075520150E+03 -0.52589459465E+03 -0.13032149563E+03  0.56514692932E+03  0.00000000000E+00 0.  1.
        -11    1    5    5    0    0 -0.10163561776E+03 -0.22185988157E+03 -0.54826749187E+01  0.24409355905E+03  0.00000000000E+00 0. -1.
          2    1    6    6  503    0 -0.20160122774E+03  0.57332390637E+02 -0.12737836896E+03  0.24526578832E+03  0.00000000000E+00 0. -1.
         -2    1    6    6    0  503 -0.14385654438E+03  0.11212422994E+03 -0.17444606201E+03  0.25238458125E+03  0.00000000000E+00 0.  1.
<mgrwt>
<rscale>  0 0.24470293E+04</rscale>
<asrwt>0</asrwt>
<pdfrwt beam="1">  1        1 0.16192744E+00 0.24470293E+04</pdfrwt>
<pdfrwt beam="2">  1       -1 0.21881202E+00 0.24470293E+04</pdfrwt>
<totfact> 0.13782353E+00</totfact>
</mgrwt>
</event>
<event>
12    2  0.3561489E-008  0.1653664E+04  0.7818608E-02  0.8788242E-01
         -1   -1    0    0    0  501 -0.00000000000E+00  0.00000000000E+00  0.28221324817E+03  0.28221324817E+03  0.00000000000E+00 0.  1.
          1   -1    0    0  501    0  0.00000000000E+00 -0.00000000000E+00 -0.24224634107E+04  0.24224634107E+04  0.00000000000E+00 0. -1.
         23    2    1    2    0    0 -0.42309892393E+03  0.28738992804E+03 -0.32418195132E+03  0.61243749133E+03  0.91542738940E+02 0.  0.
        254    2    1    2    0    0  0.42309892393E+03 -0.28738992804E+03 -0.18160682112E+04  0.20922391675E+04  0.90429824517E+03 0.  0.
         23    2    4    4    0    0  0.61460743460E+03 -0.44898455978E+03 -0.12722591733E+04  0.14852780131E+04  0.89877352687E+02 0.  0.
         23    2    4    4    0    0 -0.19150851066E+03  0.16159463175E+03 -0.54380903789E+03  0.60696115443E+03  0.99424537341E+02 0.  0.
          3    1    3    3  502    0 -0.20707165940E+03  0.13774070748E+03 -0.10390688251E+03  0.26953258589E+03  0.00000000000E+00 0. -1.
         -3    1    3    3    0  502 -0.21602726453E+03  0.14964922055E+03 -0.22027506881E+03  0.34290490544E+03  0.00000000000E+00 0.  1.
         11    1    5    5    0    0  0.15784908673E+03 -0.69984937506E+02 -0.27157215619E+03  0.32181619238E+03  0.00000000000E+00 0. -1.
        -11    1    5    5    0    0  0.45675834787E+03 -0.37899962228E+03 -0.10006870171E+04  0.11634618207E+04  0.00000000000E+00 0.  1.
          2    1    6    6  503    0 -0.61225670021E+02  0.26533997326E+02 -0.24658602319E+03  0.25545508904E+03  0.00000000000E+00 0. -1.
         -2    1    6    6    0  503 -0.13028284064E+03  0.13506063442E+03 -0.29722301470E+03  0.35150606539E+03  0.00000000000E+00 0.  1.
<mgrwt>
<rscale>  0 0.16536641E+04</rscale>
<asrwt>0</asrwt>
<pdfrwt beam="1">  1        1 0.37268666E+00 0.16536641E+04</pdfrwt>
<pdfrwt beam="2">  1       -1 0.43417425E-01 0.16536641E+04</pdfrwt>
<totfact> 0.76783851E+00</totfact>
</mgrwt>
</event>
<event>
12    2  0.3561489E-008  0.1247040E+04  0.7818608E-02  0.9072650E-01
         -2   -1    0    0    0  501 -0.00000000000E+00  0.00000000000E+00  0.31461807396E+03  0.31461807396E+03  0.00000000000E+00 0.  1.
          2   -1    0    0  501    0  0.00000000000E+00 -0.00000000000E+00 -0.12357116988E+04  0.12357116988E+04  0.00000000000E+00 0. -1.
         23    2    1    2    0    0  0.46494449638E+02  0.27315333872E+03 -0.12191001622E+03  0.31613039759E+03  0.91114740446E+02 0.  0.
        254    2    1    2    0    0 -0.46494449638E+02 -0.27315333872E+03 -0.79918360858E+03  0.12341993751E+04  0.89876536263E+03 0.  0.
         23    2    4    4    0    0  0.27092269492E+03 -0.23715561778E+03 -0.41137553944E+01  0.37171465551E+03  0.92265749167E+02 0.  0.
         23    2    4    4    0    0 -0.31741714455E+03 -0.35997720939E+02 -0.79506985318E+03  0.86248471963E+03  0.98459842467E+02 0.  0.
          3    1    3    3  502    0  0.35955166843E+02  0.78458720309E+02 -0.24446986804E+00  0.86305298683E+02  0.00000000000E+00 0. -1.
         -3    1    3    3    0  502  0.10539282796E+02  0.19469461841E+03 -0.12166554635E+03  0.22982509891E+03  0.00000000000E+00 0.  1.
         11    1    5    5    0    0  0.83646700163E+02 -0.42621979687E+02  0.32214192254E+02  0.99252998862E+02  0.00000000000E+00 0. -1.
        -11    1    5    5    0    0  0.18727599475E+03 -0.19453363809E+03 -0.36327947649E+02  0.27246165664E+03  0.00000000000E+00 0.  1.
          1    1    6    6  503    0 -0.15384456450E+03 -0.65518791512E+02 -0.42947000027E+03  0.46087454172E+03  0.00000000000E+00 0. -1.
         -1    1    6    6    0  503 -0.16357258005E+03  0.29521070573E+02 -0.36559985291E+03  0.40161017791E+03  0.00000000000E+00 0.  1.
<mgrwt>
<rscale>  0 0.12470401E+04</rscale>
<asrwt>0</asrwt>
<pdfrwt beam="1">  1        2 0.19010949E+00 0.12470401E+04</pdfrwt>
<pdfrwt beam="2">  1       -2 0.48402780E-01 0.12470401E+04</pdfrwt>
<totfact> 0.71704316E+01</totfact>
</mgrwt>
</event>
<event>
12    2  0.3561489E-008  0.1172044E+04  0.7818608E-02  0.9137685E-01
          1   -1    0    0  501    0  0.00000000000E+00  0.00000000000E+00  0.31965808544E+03  0.31965808544E+03  0.00000000000E+00 0.  1.
         -1   -1    0    0    0  501 -0.00000000000E+00 -0.00000000000E+00 -0.10743402947E+04  0.10743402947E+04  0.00000000000E+00 0. -1.
         23    2    1    2    0    0  0.24712176179E+02 -0.83372724257E+02  0.80636279234E+02  0.14869731846E+03  0.89704961883E+02 0.  0.
        254    2    1    2    0    0 -0.24712176179E+02  0.83372724257E+02 -0.83531848849E+03  0.12453010617E+04  0.91948684287E+03 0.  0.
         23    2    4    4    0    0  0.25580740955E+03 -0.28868609139E+03 -0.17766979167E+03  0.43419553253E+03  0.90455046584E+02 0.  0.
         23    2    4    4    0    0 -0.28051958573E+03  0.37205881565E+03 -0.65764869682E+03  0.81110552916E+03  0.90947076478E+02 0.  0.
          1    1    3    3  502    0  0.16972530732E+02 -0.95207592237E+02  0.38222020201E+02  0.10398786106E+03  0.00000000000E+00 0. -1.
         -1    1    3    3    0  502  0.77396454468E+01  0.11834867980E+02  0.42414259033E+02  0.44709457400E+02  0.00000000000E+00 0.  1.
         11    1    5    5    0    0  0.25054137272E+03 -0.28382362472E+03 -0.18714463856E+03  0.42231498332E+03  0.00000000000E+00 0.  1.
        -11    1    5    5    0    0  0.52660368334E+01 -0.48624666662E+01  0.94748468868E+01  0.11880549210E+02  0.00000000000E+00 0. -1.
          4    1    6    6  503    0 -0.33739287323E+02  0.13334857344E+02 -0.29257554668E+02  0.46606463442E+02  0.00000000000E+00 0. -1.
         -4    1    6    6    0  503 -0.24678029841E+03  0.35872395830E+03 -0.62839114215E+03  0.76449906571E+03  0.00000000000E+00 0.  1.
<mgrwt>
<rscale>  0 0.11720436E+04</rscale>
<asrwt>0</asrwt>
<pdfrwt beam="1">  1        1 0.49178167E-01 0.11720436E+04</pdfrwt>
<pdfrwt beam="2">  1       -1 0.16528312E+00 0.11720436E+04</pdfrwt>
<totfact> 0.21338831E+01</totfact>
</mgrwt>
</event>
<event>
12    2  0.3561489E-008  0.2018848E+04  0.7818608E-02  0.8597859E-01
         -2   -1    0    0    0  501 -0.00000000000E+00  0.00000000000E+00  0.33549951852E+03  0.33549951852E+03  0.00000000000E+00 0.  1.
          2   -1    0    0  501    0  0.00000000000E+00 -0.00000000000E+00 -0.30370737169E+04  0.30370737169E+04  0.00000000000E+00 0. -1.
         23    2    1    2    0    0  0.25009671986E+03  0.47632086987E+03 -0.20819670982E+04  0.21523016959E+04  0.91573203960E+02 0.  0.
        254    2    1    2    0    0 -0.25009671986E+03 -0.47632086987E+03 -0.61960710018E+03  0.12202715395E+04  0.90317203859E+03 0.  0.
         23    2    4    4    0    0 -0.91855832717E+02 -0.51836780963E+03 -0.79899881237E+03  0.96075856533E+03  0.86690475912E+02 0.  0.
         23    2    4    4    0    0 -0.15824088714E+03  0.42046939761E+02  0.17939171219E+03  0.25951297422E+03  0.91419220509E+02 0.  0.
          3    1    3    3  502    0  0.23696073960E+03  0.41783789699E+03 -0.19315174964E+04  0.19903514110E+04  0.00000000000E+00 0. -1.
         -3    1    3    3    0  502  0.13135980258E+02  0.58482972882E+02 -0.15044960180E+03  0.16195028489E+03  0.00000000000E+00 0.  1.
         11    1    5    5    0    0 -0.15916925210E+02 -0.11454088441E+03 -0.24584760550E+03  0.27168733471E+03  0.00000000000E+00 0. -1.
        -11    1    5    5    0    0 -0.75938907506E+02 -0.40382692522E+03 -0.55315120687E+03  0.68907123062E+03  0.00000000000E+00 0.  1.
          1    1    6    6  503    0 -0.13946667774E+03  0.10386442201E+02  0.99764891480E+02  0.17179018003E+03  0.00000000000E+00 0. -1.
         -1    1    6    6    0  503 -0.18774209402E+02  0.31660497560E+02  0.79626820715E+02  0.87722794196E+02  0.00000000000E+00 0.  1.
<mgrwt>
<rscale>  0 0.20188480E+04</rscale>
<asrwt>0</asrwt>
<pdfrwt beam="1">  1        2 0.46724212E+00 0.20188480E+04</pdfrwt>
<pdfrwt beam="2">  1       -2 0.51615309E-01 0.20188480E+04</pdfrwt>
<totfact> 0.54403499E+00</totfact>
</mgrwt>
</event>
<event>
12    2  0.3561489E-008  0.1920045E+04  0.7818608E-02  0.8644942E-01
         -1   -1    0    0    0  501 -0.00000000000E+00  0.00000000000E+00  0.14722601030E+04  0.14722601030E+04  0.00000000000E+00 0.  1.
          1   -1    0    0  501    0  0.00000000000E+00 -0.00000000000E+00 -0.62600597876E+03  0.62600597876E+03  0.00000000000E+00 0. -1.
         23    2    1    2    0    0 -0.70969210308E+03 -0.21550610626E+03  0.42150417004E+03  0.85797147333E+03  0.91342874207E+02 0.  0.
        254    2    1    2    0    0  0.70969210308E+03  0.21550610626E+03  0.42474995419E+03  0.12402946084E+04  0.89878386117E+03 0.  0.
         23    2    4    4    0    0  0.91427725319E+03  0.16497676770E+03  0.31638316550E+03  0.98585175453E+03  0.93194124995E+02 0.  0.
         23    2    4    4    0    0 -0.20458515010E+03  0.50529338566E+02  0.10836678869E+03  0.25444285390E+03  0.92679594894E+02 0.  0.
          2    1    3    3  502    0 -0.10501902704E+03 -0.31553113430E+02  0.10203008906E+03  0.14978228894E+03  0.00000000000E+00 0. -1.
         -2    1    3    3    0  502 -0.60467307604E+03 -0.18395299283E+03  0.31947408099E+03  0.70818918439E+03  0.00000000000E+00 0.  1.
         11    1    5    5    0    0  0.24799295350E+03  0.70335198158E+02  0.52950563760E+02  0.26315643121E+03  0.00000000000E+00 0.  1.
        -11    1    5    5    0    0  0.66628429969E+03  0.94641569538E+02  0.26343260174E+03  0.72269532332E+03  0.00000000000E+00 0. -1.
          2    1    6    6  503    0 -0.18808755120E+03  0.36290442155E+02  0.12349471682E+03  0.22791416848E+03  0.00000000000E+00 0. -1.
         -2    1    6    6    0  503 -0.16497598900E+02  0.14238896410E+02 -0.15127928134E+02  0.26528685419E+02  0.00000000000E+00 0.  1.
<mgrwt>
<rscale>  0 0.19200454E+04</rscale>
<asrwt>0</asrwt>
<pdfrwt beam="1">  1        1 0.96308613E-01 0.19200454E+04</pdfrwt>
<pdfrwt beam="2">  1       -1 0.22650155E+00 0.19200454E+04</pdfrwt>
<totfact> 0.29940507E+00</totfact>
</mgrwt>
</event>
<event>
12    2  0.3561489E-008  0.1963483E+04  0.7818608E-02  0.8623886E-01
         -2   -1    0    0    0  501 -0.00000000000E+00  0.00000000000E+00  0.67812589530E+03  0.67812589530E+03  0.00000000000E+00 0.  1.
          2   -1    0    0  501    0  0.00000000000E+00 -0.00000000000E+00 -0.14212941238E+04  0.14212941238E+04  0.00000000000E+00 0. -1.
         23    2    1    2    0    0  0.53109790538E+03 -0.49031771610E+03  0.38057278634E+01  0.72852404010E+03  0.90864435402E+02 0.  0.
        254    2    1    2    0    0 -0.53109790538E+03  0.49031771610E+03 -0.74697395640E+03  0.13708959790E+04  0.89381723298E+03 0.  0.
         23    2    4    4    0    0 -0.64264715600E+03  0.40549884522E+03 -0.87392800058E+03  0.11616657100E+04  0.91062565833E+02 0.  0.
         23    2    4    4    0    0  0.11154925063E+03  0.84818870880E+02  0.12695404419E+03  0.20923026907E+03  0.89568409552E+02 0.  0.
          2    1    3    3  502    0  0.46081990015E+03 -0.46213052659E+03 -0.13809870628E+01  0.65262662457E+03  0.00000000000E+00 0.  1.
         -2    1    3    3    0  502  0.70278005230E+02 -0.28187189508E+02  0.51867149262E+01  0.75897415523E+02  0.00000000000E+00 0. -1.
         11    1    5    5    0    0 -0.63003542353E+03  0.39295940769E+03 -0.86935574834E+03  0.11433027369E+04  0.00000000000E+00 0. -1.
        -11    1    5    5    0    0 -0.12611732471E+02  0.12539437528E+02 -0.45722522406E+01  0.18362973071E+02  0.00000000000E+00 0.  1.
          1    1    6    6  503    0  0.48799479782E+02 -0.10955791563E+02  0.53273363811E+02  0.73071676370E+02  0.00000000000E+00 0. -1.
         -1    1    6    6    0  503  0.62749770843E+02  0.95774662443E+02  0.73680680375E+02  0.13615859270E+03  0.00000000000E+00 0.  1.
<mgrwt>
<rscale>  0 0.19634830E+04</rscale>
<asrwt>0</asrwt>
<pdfrwt beam="1">  1        2 0.21866063E+00 0.19634830E+04</pdfrwt>
<pdfrwt beam="2">  1       -2 0.10432706E+00 0.19634830E+04</pdfrwt>
<totfact> 0.97888892E+00</totfact>
</mgrwt>
</event>
<event>
12    2  0.3561489E-008  0.1534126E+04  0.7818608E-02  0.8862072E-01
         -2   -1    0    0    0  501 -0.00000000000E+00  0.00000000000E+00  0.47187952640E+03  0.47187952640E+03  0.00000000000E+00 0.  1.
          2   -1    0    0  501    0  0.00000000000E+00 -0.00000000000E+00 -0.12468976168E+04  0.12468976168E+04  0.00000000000E+00 0. -1.
         23    2    1    2    0    0 -0.34137020278E+03 -0.38214181534E+03 -0.29302294756E+03  0.59760818111E+03  0.93311885375E+02 0.  0.
        254    2    1    2    0    0  0.34137020278E+03  0.38214181534E+03 -0.48199514282E+03  0.11211689621E+04  0.87300317377E+03 0.  0.
         23    2    4    4    0    0  0.49556308144E+03  0.25151511417E+03  0.29431374523E+02  0.56381923734E+03  0.90461628574E+02 0.  0.
         23    2    4    4    0    0 -0.15419287866E+03  0.13062670117E+03 -0.51142651734E+03  0.55734972472E+03  0.90790165315E+02 0.  0.
          1    1    3    3  502    0 -0.72440939910E+02 -0.10788338485E+03 -0.11789396349E+03  0.17545797540E+03  0.00000000000E+00 0. -1.
         -1    1    3    3    0  502 -0.26892926287E+03 -0.27425843049E+03 -0.17512898407E+03  0.42215020571E+03  0.00000000000E+00 0.  1.
         11    1    5    5    0    0  0.24419946219E+03  0.15907347027E+03 -0.17282921734E+02  0.29195281410E+03  0.00000000000E+00 0.  1.
        -11    1    5    5    0    0  0.25136361925E+03  0.92441643901E+02  0.46714296256E+02  0.27186642324E+03  0.00000000000E+00 0. -1.
          2    1    6    6  503    0 -0.14602896888E+03  0.75451929405E+02 -0.40751383628E+03  0.43941436044E+03  0.00000000000E+00 0. -1.
         -2    1    6    6    0  503 -0.81639097864E+01  0.55174771768E+02 -0.10391268106E+03  0.11793536428E+03  0.00000000000E+00 0.  1.
<mgrwt>
<rscale>  0 0.15341258E+04</rscale>
<asrwt>0</asrwt>
<pdfrwt beam="1">  1        2 0.19183040E+00 0.15341258E+04</pdfrwt>
<pdfrwt beam="2">  1       -2 0.72596852E-01 0.15341258E+04</pdfrwt>
<totfact> 0.29377894E+01</totfact>
</mgrwt>
</event>
<event>
12    2  0.3561489E-008  0.1920829E+04  0.7818608E-02  0.8644557E-01
         -2   -1    0    0    0  501 -0.00000000000E+00  0.00000000000E+00  0.14535919219E+04  0.14535919219E+04  0.00000000000E+00 0.  1.
          2   -1    0    0  501    0  0.00000000000E+00 -0.00000000000E+00 -0.63456332798E+03  0.63456332798E+03  0.00000000000E+00 0. -1.
         23    2    1    2    0    0  0.54159324065E+03  0.36976754223E+03  0.71239284406E+03  0.97251310745E+03  0.90702294838E+02 0.  0.
        254    2    1    2    0    0 -0.54159324065E+03 -0.36976754223E+03  0.10663574981E+03  0.11156421424E+04  0.89623374916E+03 0.  0.
         23    2    4    4    0    0 -0.52924343532E+03  0.87652287872E+02 -0.17410125908E+03  0.57141391809E+03  0.91766442482E+02 0.  0.
         23    2    4    4    0    0 -0.12349805321E+02 -0.45741983011E+03  0.28073700889E+03  0.54422822431E+03  0.89362594557E+02 0.  0.
          4    1    3    3  502    0  0.20218153602E+02  0.56802790066E+01  0.55655747616E+01  0.21725904518E+02  0.00000000000E+00 0. -1.
         -4    1    3    3    0  502  0.52137508704E+03  0.36408726323E+03  0.70682726930E+03  0.95078720293E+03  0.00000000000E+00 0.  1.
         11    1    5    5    0    0 -0.21106651655E+03 -0.48274435621E+01 -0.45372663188E+02  0.21594225428E+03  0.00000000000E+00 0. -1.
        -11    1    5    5    0    0 -0.31817691878E+03  0.92479731435E+02 -0.12872859589E+03  0.35547166381E+03  0.00000000000E+00 0.  1.
          1    1    6    6  503    0  0.22596265524E+02 -0.31363974029E+03  0.22251949674E+03  0.38522124076E+03  0.00000000000E+00 0. -1.
         -1    1    6    6    0  503 -0.34946070845E+02 -0.14378008982E+03  0.58217512151E+02  0.15900698355E+03  0.00000000000E+00 0.  1.
<mgrwt>
<rscale>  0 0.19208291E+04</rscale>
<asrwt>0</asrwt>
<pdfrwt beam="1">  1        2 0.97625128E-01 0.19208291E+04</pdfrwt>
<pdfrwt beam="2">  1       -2 0.22362953E+00 0.19208291E+04</pdfrwt>
<totfact> 0.40576380E+00</totfact>
</mgrwt>
</event>
<event>
12    2  0.3561489E-008  0.2703548E+04  0.7818608E-02  0.8333855E-01
         -1   -1    0    0    0  501 -0.00000000000E+00  0.00000000000E+00  0.14026832698E+04  0.14026832698E+04  0.00000000000E+00 0.  1.
          1   -1    0    0  501    0  0.00000000000E+00 -0.00000000000E+00 -0.13027127106E+04  0.13027127106E+04  0.00000000000E+00 0. -1.
         23    2    1    2    0    0  0.11790646266E+04 -0.16026863997E+03 -0.12080089762E+03  0.11995433989E+04  0.91826347786E+02 0.  0.
        254    2    1    2    0    0 -0.11790646266E+04  0.16026863997E+03  0.22077145680E+03  0.15058525815E+04  0.89608734534E+03 0.  0.
         23    2    4    4    0    0 -0.24107355347E+03 -0.31701644325E+03 -0.57413443197E+02  0.41345843704E+03  0.95056258221E+02 0.  0.
         23    2    4    4    0    0 -0.93799107317E+03  0.47728508322E+03  0.27818490000E+03  0.10923941445E+04  0.91158238084E+02 0.  0.
          4    1    3    3  502    0  0.79036492584E+03 -0.11207299414E+03 -0.37777941643E+02  0.79916471700E+03  0.00000000000E+00 0. -1.
         -4    1    3    3    0  502  0.38869970079E+03 -0.48195645832E+02 -0.83022955976E+02  0.40037868186E+03  0.00000000000E+00 0.  1.
         11    1    5    5    0    0 -0.37416356395E+02 -0.98443785259E+02 -0.44791635180E+02  0.11444410498E+03  0.00000000000E+00 0. -1.
        -11    1    5    5    0    0 -0.20365719707E+03 -0.21857265799E+03 -0.12621808017E+02  0.29901433206E+03  0.00000000000E+00 0.  1.
          4    1    6    6  503    0 -0.17513835103E+03  0.13042541228E+03  0.56086916401E+02  0.22545503401E+03  0.00000000000E+00 0.  1.
         -4    1    6    6    0  503 -0.76285272214E+03  0.34685967094E+03  0.22209798360E+03  0.86693911050E+03  0.00000000000E+00 0. -1.
<mgrwt>
<rscale>  0 0.27035483E+04</rscale>
<asrwt>0</asrwt>
<pdfrwt beam="1">  1        1 0.20041734E+00 0.27035483E+04</pdfrwt>
<pdfrwt beam="2">  1       -1 0.21579743E+00 0.27035483E+04</pdfrwt>
<totfact> 0.92324414E-01</totfact>
</mgrwt>
</event>
<event>
12    2  0.3561489E-008  0.1192172E+04  0.7818608E-02  0.9119736E-01
         -2   -1    0    0    0  501 -0.00000000000E+00  0.00000000000E+00  0.50741407091E+03  0.50741407091E+03  0.00000000000E+00 0. -1.
          2   -1    0    0  501    0  0.00000000000E+00 -0.00000000000E+00 -0.70025357705E+03  0.70025357705E+03  0.00000000000E+00 0.  1.
         23    2    1    2    0    0 -0.18564271734E+03 -0.13198107279E+03 -0.34862392453E+02  0.24860116455E+03  0.93300217230E+02 0.  0.
        254    2    1    2    0    0  0.18564271734E+03  0.13198107279E+03 -0.15797711369E+03  0.95906648342E+03  0.91813372070E+03 0.  0.
         23    2    4    4    0    0 -0.31607998727E+03  0.79096143478E+02 -0.27200316167E+03  0.43382114813E+03  0.89734666329E+02 0.  0.
         23    2    4    4    0    0  0.50172270461E+03  0.52884929309E+02  0.11402604798E+03  0.52524533528E+03  0.91423380785E+02 0.  0.
          4    1    3    3  502    0 -0.16644639344E+03 -0.12845921469E+03 -0.18612502026E+01  0.21026087601E+03  0.00000000000E+00 0. -1.
         -4    1    3    3    0  502 -0.19196323893E+02 -0.35218580964E+01 -0.33001142251E+02  0.38340288540E+02  0.00000000000E+00 0.  1.
         11    1    5    5    0    0 -0.12680678385E+02  0.61030202370E+01 -0.47119418344E+02  0.49176071878E+02  0.00000000000E+00 0. -1.
        -11    1    5    5    0    0 -0.30339930889E+03  0.72993123241E+02 -0.22488374333E+03  0.38464507625E+03  0.00000000000E+00 0.  1.
          3    1    6    6  503    0  0.44565615168E+03  0.30241467851E+02  0.12488742278E+03  0.46381119033E+03  0.00000000000E+00 0. -1.
         -3    1    6    6    0  503  0.56066552922E+02  0.22643461458E+02 -0.10861374793E+02  0.61434144950E+02  0.00000000000E+00 0.  1.
<mgrwt>
<rscale>  0 0.11921720E+04</rscale>
<asrwt>0</asrwt>
<pdfrwt beam="1">  1        2 0.10773132E+00 0.11921720E+04</pdfrwt>
<pdfrwt beam="2">  1       -2 0.78063704E-01 0.11921720E+04</pdfrwt>
<totfact> 0.59080053E+01</totfact>
</mgrwt>
</event>
<event>
12    2  0.3561489E-008  0.2372328E+04  0.7818608E-02  0.8449937E-01
         -2   -1    0    0    0  501 -0.00000000000E+00  0.00000000000E+00  0.11098592895E+04  0.11098592895E+04  0.00000000000E+00 0.  1.
          2   -1    0    0  501    0  0.00000000000E+00 -0.00000000000E+00 -0.12677148699E+04  0.12677148699E+04  0.00000000000E+00 0. -1.
         23    2    1    2    0    0 -0.77710696888E+03  0.27262544989E+03 -0.66260724742E+03  0.10609150187E+04  0.90952930329E+02 0.  0.
        254    2    1    2    0    0  0.77710696888E+03 -0.27262544989E+03  0.50475166695E+03  0.13166591407E+04  0.89476095723E+03 0.  0.
         23    2    4    4    0    0  0.19023605986E+02 -0.33820076551E+03  0.41802612734E+03  0.54543840612E+03  0.89529639543E+02 0.  0.
         23    2    4    4    0    0  0.75808336289E+03  0.65575315625E+02  0.86725539616E+02  0.77122073461E+03  0.90937314464E+02 0.  0.
          3    1    3    3  502    0 -0.20952071746E+03  0.52127897365E+02 -0.13061007719E+03  0.25233953513E+03  0.00000000000E+00 0. -1.
         -3    1    3    3    0  502 -0.56758625142E+03  0.22049755252E+03 -0.53199717023E+03  0.80857548355E+03  0.00000000000E+00 0.  1.
         11    1    5    5    0    0 -0.14027015865E+02 -0.26776607787E+03  0.35741723608E+03  0.44681373108E+03  0.00000000000E+00 0.  1.
        -11    1    5    5    0    0  0.33050621851E+02 -0.70434687639E+02  0.60608891256E+02  0.98624675040E+02  0.00000000000E+00 0. -1.
          1    1    6    6  503    0  0.14200192879E+03  0.56529508942E+01 -0.18628823903E+02  0.14333016680E+03  0.00000000000E+00 0. -1.
         -1    1    6    6    0  503  0.61608143410E+03  0.59922364731E+02  0.10535436352E+03  0.62789056781E+03  0.00000000000E+00 0.  1.
<mgrwt>
<rscale>  0 0.23723281E+04</rscale>
<asrwt>0</asrwt>
<pdfrwt beam="1">  1        2 0.19503306E+00 0.23723281E+04</pdfrwt>
<pdfrwt beam="2">  1       -2 0.17074758E+00 0.23723281E+04</pdfrwt>
<totfact> 0.32767960E+00</totfact>
</mgrwt>
</event>
<event>
12    2  0.3561489E-008  0.1586538E+04  0.7818608E-02  0.8828861E-01
          2   -1    0    0  501    0  0.00000000000E+00  0.00000000000E+00  0.33215919334E+04  0.33215919334E+04  0.00000000000E+00 0. -1.
         -2   -1    0    0    0  501 -0.00000000000E+00 -0.00000000000E+00 -0.18945003927E+03  0.18945003927E+03  0.00000000000E+00 0.  1.
         23    2    1    2    0    0  0.10462277037E+03  0.51072953410E+03  0.82318909454E+03  0.97941605189E+03  0.99120816420E+02 0.  0.
        254    2    1    2    0    0 -0.10462277037E+03 -0.51072953410E+03  0.23089527996E+04  0.25316259208E+04  0.89781745972E+03 0.  0.
         23    2    4    4    0    0 -0.12376434994E+03 -0.54261402612E+03  0.23564537975E+04  0.24230095138E+04  0.91394796151E+02 0.  0.
         23    2    4    4    0    0  0.19141579570E+02  0.31884492025E+02 -0.47500997856E+02  0.10861640699E+03  0.90322523055E+02 0.  0.
          3    1    3    3  502    0  0.85231821079E+02  0.18372789376E+03  0.29278703918E+03  0.35601215229E+03  0.00000000000E+00 0. -1.
         -3    1    3    3    0  502  0.19390949288E+02  0.32700164034E+03  0.53040205536E+03  0.62340389960E+03  0.00000000000E+00 0.  1.
         11    1    5    5    0    0 -0.12820920095E+03 -0.45451531707E+03  0.20747398604E+04  0.21278080883E+04  0.00000000000E+00 0.  1.
        -11    1    5    5    0    0  0.44448510103E+01 -0.88098709050E+02  0.28171393710E+03  0.29520142546E+03  0.00000000000E+00 0. -1.
          1    1    6    6  503    0  0.43124647406E+02  0.73190056100E+01  0.69059846799E+01  0.44283130890E+02  0.00000000000E+00 0. -1.
         -1    1    6    6    0  503 -0.23983067837E+02  0.24565486415E+02 -0.54406982536E+02  0.64333276104E+02  0.00000000000E+00 0.  1.
<mgrwt>
<rscale>  0 0.15865380E+04</rscale>
<asrwt>0</asrwt>
<pdfrwt beam="1">  1        2 0.51101410E+00 0.15865380E+04</pdfrwt>
<pdfrwt beam="2">  1       -2 0.29146162E-01 0.15865380E+04</pdfrwt>
<totfact> 0.11301413E+01</totfact>
</mgrwt>
</event>
<event>
12    2  0.3561489E-008  0.1768436E+04  0.7818608E-02  0.8723267E-01
          1   -1    0    0  501    0  0.00000000000E+00  0.00000000000E+00  0.22504971709E+04  0.22504971709E+04  0.00000000000E+00 0. -1.
         -1   -1    0    0    0  501 -0.00000000000E+00 -0.00000000000E+00 -0.34740820146E+03  0.34740820146E+03  0.00000000000E+00 0.  1.
         23    2    1    2    0    0 -0.61968098329E+02 -0.52352934314E+02  0.16570553181E+04  0.16614578187E+04  0.89604023992E+02 0.  0.
        254    2    1    2    0    0  0.61968098329E+02  0.52352934314E+02  0.24603365136E+03  0.93644755369E+03  0.89990032130E+03 0.  0.
         23    2    4    4    0    0 -0.34673810833E+03  0.25418129246E+03  0.12318543408E+03  0.45597141719E+03  0.88881026796E+02 0.  0.
         23    2    4    4    0    0  0.40870620666E+03 -0.20182835815E+03  0.12284821728E+03  0.48047613650E+03  0.89387827702E+02 0.  0.
          3    1    3    3  502    0 -0.76007302532E+02 -0.14080442267E+02  0.12427275886E+04  0.12451294023E+04  0.00000000000E+00 0. -1.
         -3    1    3    3    0  502  0.14039204203E+02 -0.38272492046E+02  0.41432772946E+03  0.41632841640E+03  0.00000000000E+00 0.  1.
         11    1    5    5    0    0 -0.22490862411E+03  0.13686378487E+03  0.11308478322E+03  0.28653752460E+03  0.00000000000E+00 0.  1.
        -11    1    5    5    0    0 -0.12182948422E+03  0.11731750759E+03  0.10100650862E+02  0.16943389260E+03  0.00000000000E+00 0. -1.
          1    1    6    6  503    0  0.15583100697E+03 -0.29777496134E+02  0.42100626563E+02  0.16414159974E+03  0.00000000000E+00 0. -1.
         -1    1    6    6    0  503  0.25287519969E+03 -0.17205086201E+03  0.80747590719E+02  0.31633453675E+03  0.00000000000E+00 0.  1.
<mgrwt>
<rscale>  0 0.17684357E+04</rscale>
<asrwt>0</asrwt>
<pdfrwt beam="1">  1        1 0.34623033E+00 0.17684357E+04</pdfrwt>
<pdfrwt beam="2">  1       -1 0.53447417E-01 0.17684357E+04</pdfrwt>
<totfact> 0.67276860E+00</totfact>
</mgrwt>
</event>
<event>
12    2  0.3561489E-008  0.1569498E+04  0.7818608E-02  0.8839509E-01
          2   -1    0    0  501    0  0.00000000000E+00  0.00000000000E+00  0.17569114036E+04  0.17569114036E+04  0.00000000000E+00 0. -1.
         -2   -1    0    0    0  501 -0.00000000000E+00 -0.00000000000E+00 -0.35051915596E+03  0.35051915596E+03  0.00000000000E+00 0.  1.
         23    2    1    2    0    0  0.30490728029E+03 -0.33859840250E+03  0.13842007383E+03  0.48501948824E+03  0.92013365244E+02 0.  0.
        254    2    1    2    0    0 -0.30490728029E+03  0.33859840250E+03  0.12679721739E+04  0.16224110714E+04  0.90379584148E+03 0.  0.
         23    2    4    4    0    0  0.11988538771E+03  0.42931320558E+03  0.26675548108E+03  0.52741576579E+03  0.91250033655E+02 0.  0.
         23    2    4    4    0    0 -0.42479266800E+03 -0.90714803080E+02  0.10012166928E+04  0.10949953056E+04  0.88892446552E+02 0.  0.
          1    1    3    3  502    0  0.56704993064E+02 -0.65967607853E+02  0.66221583972E+02  0.10932739688E+03  0.00000000000E+00 0. -1.
         -1    1    3    3    0  502  0.24820228722E+03 -0.27263079465E+03  0.72198489857E+02  0.37569209136E+03  0.00000000000E+00 0.  1.
         11    1    5    5    0    0  0.58090718865E+02  0.25291104970E+03  0.10395623213E+03  0.27954503909E+03  0.00000000000E+00 0.  1.
        -11    1    5    5    0    0  0.61794668849E+02  0.17640215588E+03  0.16279924895E+03  0.24787072670E+03  0.00000000000E+00 0. -1.
          1    1    6    6  503    0 -0.55969672473E+02 -0.41983808617E+01  0.21594210577E+03  0.22311706273E+03  0.00000000000E+00 0. -1.
         -1    1    6    6    0  503 -0.36882299553E+03 -0.86516422219E+02  0.78527458701E+03  0.87187824285E+03  0.00000000000E+00 0.  1.
<mgrwt>
<rscale>  0 0.15694981E+04</rscale>
<asrwt>0</asrwt>
<pdfrwt beam="1">  1        2 0.27029406E+00 0.15694981E+04</pdfrwt>
<pdfrwt beam="2">  1       -2 0.53926025E-01 0.15694981E+04</pdfrwt>
<totfact> 0.28382380E+01</totfact>
</mgrwt>
</event>
<event>
12    2  0.3561489E-008  0.2602839E+04  0.7818608E-02  0.8367238E-01
          2   -1    0    0  501    0  0.00000000000E+00  0.00000000000E+00  0.16712611028E+04  0.16712611028E+04  0.00000000000E+00 0. -1.
         -2   -1    0    0    0  501 -0.00000000000E+00 -0.00000000000E+00 -0.10134218358E+04  0.10134218358E+04  0.00000000000E+00 0.  1.
         23    2    1    2    0    0 -0.64516177606E+02 -0.93890032211E+02 -0.88109146150E+03  0.89302864398E+03  0.90555618835E+02 0.  0.
        254    2    1    2    0    0  0.64516177606E+02  0.93890032211E+02  0.15389307285E+04  0.17916542946E+04  0.91035138777E+03 0.  0.
         23    2    4    4    0    0  0.17972287525E+03  0.46864767325E+03  0.94842450101E+03  0.10769765096E+04  0.91860844030E+02 0.  0.
         23    2    4    4    0    0 -0.11520669764E+03 -0.37475764104E+03  0.59050622744E+03  0.71467778500E+03  0.91383034700E+02 0.  0.
          3    1    3    3  502    0  0.17611578498E+02 -0.33356210112E+02 -0.14183594945E+03  0.14676593953E+03  0.00000000000E+00 0. -1.
         -3    1    3    3    0  502 -0.82127756104E+02 -0.60533822099E+02 -0.73925551205E+03  0.74626270444E+03  0.00000000000E+00 0.  1.
         11    1    5    5    0    0  0.16353339375E+03  0.36335585421E+03  0.80605099591E+03  0.89916008345E+03  0.00000000000E+00 0. -1.
        -11    1    5    5    0    0  0.16189481497E+02  0.10529181905E+03  0.14237350510E+03  0.17781642619E+03  0.00000000000E+00 0.  1.
          1    1    6    6  503    0 -0.73062640667E+02 -0.20336091574E+03  0.24485372391E+03  0.32656876400E+03  0.00000000000E+00 0. -1.
         -1    1    6    6    0  503 -0.42144056974E+02 -0.17139672530E+03  0.34565250353E+03  0.38810902100E+03  0.00000000000E+00 0.  1.
<mgrwt>
<rscale>  0 0.26028388E+04</rscale>
<asrwt>0</asrwt>
<pdfrwt beam="1">  1        2 0.25711709E+00 0.26028388E+04</pdfrwt>
<pdfrwt beam="2">  1       -2 0.15591105E+00 0.26028388E+04</pdfrwt>
<totfact> 0.24319702E+00</totfact>
</mgrwt>
</event>
<event>
12    2  0.3561489E-008  0.1886186E+04  0.7818608E-02  0.8661763E-01
         -2   -1    0    0    0  501 -0.00000000000E+00  0.00000000000E+00  0.85761453845E+03  0.85761453845E+03  0.00000000000E+00 0.  1.
          2   -1    0    0  501    0  0.00000000000E+00 -0.00000000000E+00 -0.10370915209E+04  0.10370915209E+04  0.00000000000E+00 0. -1.
         23    2    1    2    0    0 -0.58341840595E+03 -0.41462719115E+03  0.19320046643E+02  0.72162565582E+03  0.89875351921E+02 0.  0.
        254    2    1    2    0    0  0.58341840595E+03  0.41462719115E+03 -0.19879702907E+03  0.11730804035E+04  0.90791223710E+03 0.  0.
         23    2    4    4    0    0  0.63548286924E+03  0.20294379522E+03 -0.46283865496E+03  0.81715799143E+03  0.92211177816E+02 0.  0.
         23    2    4    4    0    0 -0.52064463288E+02  0.21168339593E+03  0.26404162590E+03  0.35592241207E+03  0.97171059268E+02 0.  0.
          2    1    3    3  502    0 -0.25216539033E+03 -0.16281006907E+03  0.50423533640E+02  0.30436332797E+03  0.00000000000E+00 0. -1.
         -2    1    3    3    0  502 -0.33125301563E+03 -0.25181712208E+03 -0.31103486997E+02  0.41726232784E+03  0.00000000000E+00 0.  1.
         11    1    5    5    0    0  0.29329645247E+03  0.89317356530E+02 -0.26858639148E+03  0.40760158108E+03  0.00000000000E+00 0. -1.
        -11    1    5    5    0    0  0.34218641677E+03  0.11362643869E+03 -0.19425226348E+03  0.40955641035E+03  0.00000000000E+00 0.  1.
          1    1    6    6  503    0 -0.65030191398E+02  0.18341774651E+03  0.25970060671E+03  0.32452334377E+03  0.00000000000E+00 0.  1.
         -1    1    6    6    0  503  0.12965728109E+02  0.28265649422E+02  0.43410191886E+01  0.31399068302E+02  0.00000000000E+00 0. -1.
<mgrwt>
<rscale>  0 0.18861864E+04</rscale>
<asrwt>0</asrwt>
<pdfrwt beam="1">  1        2 0.15955254E+00 0.18861864E+04</pdfrwt>
<pdfrwt beam="2">  1       -2 0.13194070E+00 0.18861864E+04</pdfrwt>
<totfact> 0.93541570E+00</totfact>
</mgrwt>
</event>
<event>
12    2  0.3561489E-008  0.1489766E+04  0.7818608E-02  0.8891287E-01
         -2   -1    0    0    0  501 -0.00000000000E+00  0.00000000000E+00  0.70550633239E+03  0.70550633239E+03  0.00000000000E+00 0.  1.
          2   -1    0    0  501    0  0.00000000000E+00 -0.00000000000E+00 -0.78645688904E+03  0.78645688904E+03  0.00000000000E+00 0. -1.
         23    2    1    2    0    0  0.17503462603E+03 -0.22383108572E+03  0.34261952980E+03  0.45422049833E+03  0.90502174852E+02 0.  0.
        254    2    1    2    0    0 -0.17503462603E+03  0.22383108572E+03 -0.42357008645E+03  0.10377427231E+04  0.90374823152E+03 0.  0.
         23    2    4    4    0    0  0.17445507992E+03  0.36991253187E+03 -0.48764455147E+03  0.64294389585E+03  0.91158041215E+02 0.  0.
         23    2    4    4    0    0 -0.34948970596E+03 -0.14608144615E+03  0.64074465026E+02  0.39479882726E+03  0.90982050195E+02 0.  0.
          3    1    3    3  502    0  0.10110414317E+03 -0.17613416882E+03  0.19028904744E+03  0.27830776986E+03  0.00000000000E+00 0. -1.
         -3    1    3    3    0  502  0.73930482864E+02 -0.47696916902E+02  0.15233048236E+03  0.17591272846E+03  0.00000000000E+00 0.  1.
         11    1    5    5    0    0  0.30037661010E+02  0.96447057074E+02 -0.68472119200E+02  0.12203576117E+03  0.00000000000E+00 0. -1.
        -11    1    5    5    0    0  0.14441741891E+03  0.27346547480E+03 -0.41917243227E+03  0.52090813468E+03  0.00000000000E+00 0.  1.
          2    1    6    6  503    0 -0.13878140544E+03 -0.41377968714E+02  0.66827430974E+02  0.15949395074E+03  0.00000000000E+00 0.  1.
         -2    1    6    6    0  503 -0.21070830052E+03 -0.10470347744E+03 -0.27529659479E+01  0.23530487652E+03  0.00000000000E+00 0. -1.
<mgrwt>
<rscale>  0 0.14897655E+04</rscale>
<asrwt>0</asrwt>
<pdfrwt beam="1">  1        2 0.12099337E+00 0.14897655E+04</pdfrwt>
<pdfrwt beam="2">  1       -2 0.10853943E+00 0.14897655E+04</pdfrwt>
<totfact> 0.23124220E+01</totfact>
</mgrwt>
</event>
<event>
12    2  0.3561489E-008  0.1546526E+04  0.7818608E-02  0.8854090E-01
          2   -1    0    0  501    0  0.00000000000E+00  0.00000000000E+00  0.37487338544E+04  0.37487338544E+04  0.00000000000E+00 0.  1.
         -2   -1    0    0    0  501 -0.00000000000E+00 -0.00000000000E+00 -0.15950340378E+03  0.15950340378E+03  0.00000000000E+00 0. -1.
         23    2    1    2    0    0  0.25644586143E+03 -0.41838089776E+03  0.15149652135E+04  0.15952502261E+04  0.94321949552E+02 0.  0.
        254    2    1    2    0    0 -0.25644586143E+03  0.41838089776E+03  0.20742652371E+04  0.23129870321E+04  0.89806774878E+03 0.  0.
         23    2    4    4    0    0  0.26366428271E+03  0.39394831590E+03  0.81342691613E+03  0.94589924795E+03  0.91366896626E+02 0.  0.
         23    2    4    4    0    0 -0.52011014414E+03  0.24432581855E+02  0.12608383209E+04  0.13670877841E+04  0.90023468477E+02 0.  0.
          1    1    3    3  502    0  0.21513015695E+03 -0.33499902285E+03  0.10958869266E+04  0.11659646159E+04  0.00000000000E+00 0.  1.
         -1    1    3    3    0  502  0.41315704482E+02 -0.83381874913E+02  0.41907828691E+03  0.42928561012E+03  0.00000000000E+00 0. -1.
         11    1    5    5    0    0  0.32500729487E+02  0.70374979026E+02  0.20373887073E+03  0.21798729903E+03  0.00000000000E+00 0. -1.
        -11    1    5    5    0    0  0.23116355322E+03  0.32357333688E+03  0.60968804540E+03  0.72791194892E+03  0.00000000000E+00 0.  1.
          4    1    6    6  503    0 -0.42291482904E+03 -0.91593413499E+01  0.10640007869E+04  0.11450059042E+04  0.00000000000E+00 0.  1.
         -4    1    6    6    0  503 -0.97195315100E+02  0.33591923205E+02  0.19683753406E+03  0.22208187994E+03  0.00000000000E+00 0. -1.
<mgrwt>
<rscale>  0 0.15465262E+04</rscale>
<asrwt>0</asrwt>
<pdfrwt beam="1">  1        2 0.57672822E+00 0.15465262E+04</pdfrwt>
<pdfrwt beam="2">  1       -2 0.24538988E-01 0.15465262E+04</pdfrwt>
<totfact> 0.78037409E+00</totfact>
</mgrwt>
</event>
<event>
12    2  0.3561489E-008  0.1853383E+04  0.7818608E-02  0.8678415E-01
          1   -1    0    0  501    0  0.00000000000E+00  0.00000000000E+00  0.58688639811E+03  0.58688639811E+03  0.00000000000E+00 0. -1.
         -1   -1    0    0    0  501 -0.00000000000E+00 -0.00000000000E+00 -0.14632419213E+04  0.14632419213E+04  0.00000000000E+00 0.  1.
         23    2    1    2    0    0  0.69481696351E+03  0.18732211905E+01 -0.50413694212E+03  0.86355468047E+03  0.93800362570E+02 0.  0.
        254    2    1    2    0    0 -0.69481696351E+03 -0.18732211905E+01 -0.37221858102E+03  0.11865736389E+04  0.88692514156E+03 0.  0.
         23    2    4    4    0    0 -0.70354213324E+03  0.32603398907E+03 -0.21744988734E+03  0.81070381771E+03  0.93201562637E+02 0.  0.
         23    2    4    4    0    0  0.87251697341E+01 -0.32790721026E+03 -0.15476869368E+03  0.37586982118E+03  0.98617984193E+02 0.  0.
          4    1    3    3  502    0  0.69375215445E+03  0.37952593848E+01 -0.50747631410E+03  0.85955724950E+03  0.00000000000E+00 0. -1.
         -4    1    3    3    0  502  0.10648090579E+01 -0.19220381943E+01  0.33393719792E+01  0.39974309707E+01  0.00000000000E+00 0.  1.
         11    1    5    5    0    0 -0.34782366357E+03  0.21207879736E+03 -0.11961856285E+03  0.42457898889E+03  0.00000000000E+00 0. -1.
        -11    1    5    5    0    0 -0.35571846967E+03  0.11395519171E+03 -0.97831324491E+02  0.38612482882E+03  0.00000000000E+00 0.  1.
          1    1    6    6  503    0  0.44198512631E+02 -0.27685246841E+03 -0.12662459555E+03  0.30762734921E+03  0.00000000000E+00 0. -1.
         -1    1    6    6    0  503 -0.35473342897E+02 -0.51054741849E+02 -0.28144098127E+02  0.68242471973E+02  0.00000000000E+00 0.  1.
<mgrwt>
<rscale>  0 0.18533826E+04</rscale>
<asrwt>0</asrwt>
<pdfrwt beam="1">  1        1 0.90290215E-01 0.18533826E+04</pdfrwt>
<pdfrwt beam="2">  1       -1 0.22511414E+00 0.18533826E+04</pdfrwt>
<totfact> 0.33780604E+00</totfact>
</mgrwt>
</event>
<event>
12    2  0.3561489E-008  0.1305519E+04  0.7818608E-02  0.9025200E-01
         -1   -1    0    0    0  501 -0.00000000000E+00  0.00000000000E+00  0.28751286548E+03  0.28751286548E+03  0.00000000000E+00 0.  1.
          1   -1    0    0  501    0  0.00000000000E+00 -0.00000000000E+00 -0.14820034906E+04  0.14820034906E+04  0.00000000000E+00 0. -1.
         23    2    1    2    0    0  0.25950874063E+02  0.21326892641E+03 -0.66984648054E+03  0.70942628934E+03  0.91838280050E+02 0.  0.
        254    2    1    2    0    0 -0.25950874063E+02 -0.21326892641E+03 -0.52464414461E+03  0.10600900668E+04  0.89575799652E+03 0.  0.
         23    2    4    4    0    0  0.26376624191E+03 -0.27347612124E+03 -0.62269937929E+03  0.73529317755E+03  0.92410609360E+02 0.  0.
         23    2    4    4    0    0 -0.28971711597E+03  0.60207194826E+02  0.98055234686E+02  0.32479688920E+03  0.91199104124E+02 0.  0.
          3    1    3    3  502    0 -0.14614189255E+02  0.15883309978E+03 -0.38773118928E+03  0.41925768121E+03  0.00000000000E+00 0. -1.
         -3    1    3    3    0  502  0.40565063318E+02  0.54435826631E+02 -0.28211529126E+03  0.29016860814E+03  0.00000000000E+00 0.  1.
         11    1    5    5    0    0  0.93841308345E+02 -0.13812981946E+03 -0.33971185708E+03  0.37853689915E+03  0.00000000000E+00 0.  1.
        -11    1    5    5    0    0  0.16992493356E+03 -0.13534630177E+03 -0.28298752221E+03  0.35675627840E+03  0.00000000000E+00 0. -1.
          2    1    6    6  503    0 -0.51113892592E+02  0.42633159625E+02  0.88009321078E+00  0.66565688456E+02  0.00000000000E+00 0. -1.
         -2    1    6    6    0  503 -0.23860322338E+03  0.17574035200E+02  0.97175141475E+02  0.25823120075E+03  0.00000000000E+00 0.  1.
<mgrwt>
<rscale>  0 0.13055192E+04</rscale>
<asrwt>0</asrwt>
<pdfrwt beam="1">  1        1 0.22800053E+00 0.13055192E+04</pdfrwt>
<pdfrwt beam="2">  1       -1 0.44232749E-01 0.13055192E+04</pdfrwt>
<totfact> 0.33435064E+01</totfact>
</mgrwt>
</event>
<event>
12    2  0.3561489E-008  0.2407159E+04  0.7818608E-02  0.8436828E-01
         -1   -1    0    0    0  501 -0.00000000000E+00  0.00000000000E+00  0.79494682815E+03  0.79494682815E+03  0.00000000000E+00 0.  1.
          1   -1    0    0  501    0  0.00000000000E+00 -0.00000000000E+00 -0.18222649899E+04  0.18222649899E+04  0.00000000000E+00 0. -1.
         23    2    1    2    0    0  0.93000882340E+03 -0.30529603333E+03 -0.92235406013E+02  0.98730042733E+03  0.90181395694E+02 0.  0.
        254    2    1    2    0    0 -0.93000882340E+03  0.30529603333E+03 -0.93508275573E+03  0.16299113907E+04  0.90780466069E+03 0.  0.
         23    2    4    4    0    0  0.11160101204E+03 -0.20543841899E+02 -0.36887410641E+03  0.39703506162E+03  0.93230351561E+02 0.  0.
         23    2    4    4    0    0 -0.10416098354E+04  0.32583987523E+03 -0.56620864932E+03  0.12328763291E+04  0.90934782756E+02 0.  0.
          4    1    3    3  502    0  0.43669192884E+02 -0.32560070919E+02 -0.16231255816E+02  0.56838457850E+02  0.00000000000E+00 0. -1.
         -4    1    3    3    0  502  0.88633963051E+03 -0.27273596241E+03 -0.76004150197E+02  0.93046196948E+03  0.00000000000E+00 0.  1.
         11    1    5    5    0    0  0.66467430395E+02 -0.48551280931E+02 -0.14298180257E+03  0.16498164155E+03  0.00000000000E+00 0.  1.
        -11    1    5    5    0    0  0.45133581641E+02  0.28007439032E+02 -0.22589230384E+03  0.23205342007E+03  0.00000000000E+00 0. -1.
          1    1    6    6  503    0 -0.65261159840E+03  0.18637515982E+03 -0.30568817888E+03  0.74436742357E+03  0.00000000000E+00 0. -1.
         -1    1    6    6    0  503 -0.38899823703E+03  0.13946471541E+03 -0.26052047043E+03  0.48850890552E+03  0.00000000000E+00 0.  1.
<mgrwt>
<rscale>  0 0.24071591E+04</rscale>
<asrwt>0</asrwt>
<pdfrwt beam="1">  1        1 0.28034846E+00 0.24071591E+04</pdfrwt>
<pdfrwt beam="2">  1       -1 0.12229951E+00 0.24071591E+04</pdfrwt>
<totfact> 0.20815306E+00</totfact>
</mgrwt>
</event>
<event>
12    2  0.3561489E-008  0.1575101E+04  0.7818608E-02  0.8835992E-01
          1   -1    0    0  501    0  0.00000000000E+00  0.00000000000E+00  0.10235199257E+04  0.10235199257E+04  0.00000000000E+00 0. -1.
         -1   -1    0    0    0  501 -0.00000000000E+00 -0.00000000000E+00 -0.60598334194E+03  0.60598334194E+03  0.00000000000E+00 0.  1.
         23    2    1    2    0    0 -0.11961879752E+03 -0.30304256248E+03 -0.28024369089E+03  0.43950896649E+03  0.92131177940E+02 0.  0.
        254    2    1    2    0    0  0.11961879752E+03  0.30304256248E+03  0.69778027467E+03  0.11899943012E+04  0.90721864715E+03 0.  0.
         23    2    4    4    0    0  0.18073518234E+03 -0.29366358207E+03  0.27354509453E+03  0.44988524013E+03  0.93092990992E+02 0.  0.
         23    2    4    4    0    0 -0.61116384822E+02  0.59670614455E+03  0.42423518014E+03  0.74010906106E+03  0.89400776029E+02 0.  0.
          4    1    3    3  502    0 -0.20197482857E+02 -0.80446809206E+02 -0.12657164183E+03  0.15132748574E+03  0.00000000000E+00 0. -1.
         -4    1    3    3    0  502 -0.99421314664E+02 -0.22259575327E+03 -0.15367204905E+03  0.28818148074E+03  0.00000000000E+00 0.  1.
         11    1    5    5    0    0  0.29559897162E+02 -0.80279592836E+02  0.11754801457E+03  0.14538272344E+03  0.00000000000E+00 0.  1.
        -11    1    5    5    0    0  0.15117528518E+03 -0.21338398923E+03  0.15599707996E+03  0.30450251669E+03  0.00000000000E+00 0. -1.
          3    1    6    6  503    0 -0.84763004060E+01  0.33968521405E+03  0.28267125801E+03  0.44199652987E+03  0.00000000000E+00 0. -1.
         -3    1    6    6    0  503 -0.52640084417E+02  0.25702093049E+03  0.14156392213E+03  0.29811253118E+03  0.00000000000E+00 0.  1.
<mgrwt>
<rscale>  0 0.15751013E+04</rscale>
<asrwt>0</asrwt>
<pdfrwt beam="1">  1        1 0.15746460E+00 0.15751013E+04</pdfrwt>
<pdfrwt beam="2">  1       -1 0.93228207E-01 0.15751013E+04</pdfrwt>
<totfact> 0.15581461E+01</totfact>
</mgrwt>
</event>
<event>
12    2  0.3561489E-008  0.1308903E+04  0.7818608E-02  0.9022535E-01
         -2   -1    0    0    0  501 -0.00000000000E+00  0.00000000000E+00  0.26182219041E+03  0.26182219041E+03  0.00000000000E+00 0.  1.
          2   -1    0    0  501    0  0.00000000000E+00 -0.00000000000E+00 -0.16358686261E+04  0.16358686261E+04  0.00000000000E+00 0. -1.
         23    2    1    2    0    0  0.22196299656E+03  0.18658714067E+03 -0.16827227776E+03  0.34746884417E+03  0.91305560099E+02 0.  0.
        254    2    1    2    0    0 -0.22196299656E+03 -0.18658714067E+03 -0.12057741579E+04  0.15502219723E+04  0.93016907638E+03 0.  0.
         23    2    4    4    0    0 -0.48956218676E+03 -0.38181049489E+03 -0.71330752117E+03  0.95001374859E+03  0.90929170423E+02 0.  0.
         23    2    4    4    0    0  0.26759919021E+03  0.19522335422E+03 -0.49246663671E+03  0.60020822370E+03  0.89470882930E+02 0.  0.
          1    1    3    3  502    0  0.78897761774E+02  0.14530610272E+02 -0.45912181280E+02  0.92433348082E+02  0.00000000000E+00 0. -1.
         -1    1    3    3    0  502  0.14306523478E+03  0.17205653040E+03 -0.12236009648E+03  0.25503549609E+03  0.00000000000E+00 0.  1.
         11    1    5    5    0    0 -0.36556264754E+03 -0.33055757743E+03 -0.54575136621E+03  0.73535631839E+03  0.00000000000E+00 0.  1.
        -11    1    5    5    0    0 -0.12399953922E+03 -0.51252917462E+02 -0.16755615496E+03  0.21465743021E+03  0.00000000000E+00 0. -1.
          2    1    6    6  503    0  0.15710940844E+03  0.16413930664E+03 -0.34957209987E+03  0.41692413125E+03  0.00000000000E+00 0.  1.
         -2    1    6    6    0  503  0.11048978177E+03  0.31084047579E+02 -0.14289453684E+03  0.18328409246E+03  0.00000000000E+00 0. -1.
<mgrwt>
<rscale>  0 0.13089029E+04</rscale>
<asrwt>0</asrwt>
<pdfrwt beam="1">  1        2 0.25167210E+00 0.13089029E+04</pdfrwt>
<pdfrwt beam="2">  1       -2 0.40280336E-01 0.13089029E+04</pdfrwt>
<totfact> 0.60836808E+01</totfact>
</mgrwt>
</event>
<event>
12    2  0.3561489E-008  0.1703737E+04  0.7818608E-02  0.8759236E-01
          1   -1    0    0  501    0  0.00000000000E+00  0.00000000000E+00  0.44894788026E+03  0.44894788026E+03  0.00000000000E+00 0. -1.
         -1   -1    0    0    0  501 -0.00000000000E+00 -0.00000000000E+00 -0.16164017137E+04  0.16164017137E+04  0.00000000000E+00 0.  1.
         23    2    1    2    0    0  0.45779963138E+03  0.28472854668E+02  0.66481458986E+02  0.47176358430E+03  0.88033454630E+02 0.  0.
        254    2    1    2    0    0 -0.45779963138E+03 -0.28472854668E+02 -0.12339352924E+04  0.15935860096E+04  0.89806951753E+03 0.  0.
         23    2    4    4    0    0 -0.62823672944E+03 -0.82704993636E+02 -0.44511013302E+03  0.77955638954E+03  0.89797715869E+02 0.  0.
         23    2    4    4    0    0  0.17043709806E+03  0.54232138968E+02 -0.78882515938E+03  0.81402962009E+03  0.91701477727E+02 0.  0.
          3    1    3    3  502    0  0.41069481006E+03  0.12711943814E+02  0.33745642680E+02  0.41227489485E+03  0.00000000000E+00 0. -1.
         -3    1    3    3    0  502  0.47104821324E+02  0.15760910854E+02  0.32735816306E+02  0.59488689447E+02  0.00000000000E+00 0.  1.
         11    1    5    5    0    0 -0.10051493054E+02 -0.10647288048E+02 -0.23969613514E+02  0.28088069129E+02  0.00000000000E+00 0. -1.
        -11    1    5    5    0    0 -0.61818523638E+03 -0.72057705588E+02 -0.42114051951E+03  0.75146832041E+03  0.00000000000E+00 0.  1.
          1    1    6    6  503    0  0.27014537137E+02 -0.23498175804E+02 -0.19207938260E+03  0.19538791852E+03  0.00000000000E+00 0. -1.
         -1    1    6    6    0  503  0.14342256092E+03  0.77730314772E+02 -0.59674577678E+03  0.61864170157E+03  0.00000000000E+00 0.  1.
<mgrwt>
<rscale>  0 0.17037372E+04</rscale>
<asrwt>0</asrwt>
<pdfrwt beam="1">  1        1 0.69068904E-01 0.17037372E+04</pdfrwt>
<pdfrwt beam="2">  1       -1 0.24867719E+00 0.17037372E+04</pdfrwt>
<totfact> 0.34761447E+00</totfact>
</mgrwt>
</event>
<event>
12    2  0.3561489E-008  0.2127793E+04  0.7818608E-02  0.8549098E-01
         -1   -1    0    0    0  501 -0.00000000000E+00  0.00000000000E+00  0.77843971991E+03  0.77843971991E+03  0.00000000000E+00 0.  1.
          1   -1    0    0  501    0  0.00000000000E+00 -0.00000000000E+00 -0.14540307518E+04  0.14540307518E+04  0.00000000000E+00 0. -1.
         23    2    1    2    0    0  0.55591446674E+03  0.28689287692E+02 -0.98335322600E+03  0.11335826842E+04  0.90344702582E+02 0.  0.
        254    2    1    2    0    0 -0.55591446674E+03 -0.28689287692E+02  0.30776219411E+03  0.10988877875E+04  0.89608751350E+03 0.  0.
         23    2    4    4    0    0  0.53927046861E+02 -0.34689239126E+03  0.90490702678E+02  0.37180190373E+03  0.82496247481E+02 0.  0.
         23    2    4    4    0    0 -0.60984151360E+03  0.31820310357E+03  0.21727149143E+03  0.72708588377E+03  0.91033480467E+02 0.  0.
          4    1    3    3  502    0  0.46693317920E+03  0.88943357304E+01 -0.75576917947E+03  0.88842149664E+03  0.00000000000E+00 0. -1.
         -4    1    3    3    0  502  0.88981287534E+02  0.19794951961E+02 -0.22758404652E+03  0.24516118756E+03  0.00000000000E+00 0.  1.
         11    1    5    5    0    0  0.71717684317E+02 -0.20280825651E+03  0.61790098753E+02  0.22381383214E+03  0.00000000000E+00 0. -1.
        -11    1    5    5    0    0 -0.17790637456E+02 -0.14408413475E+03  0.28700603925E+02  0.14798807159E+03  0.00000000000E+00 0.  1.
          4    1    6    6  503    0 -0.21755702088E+03  0.85412950494E+02  0.37158116568E+02  0.23665830869E+03  0.00000000000E+00 0. -1.
         -4    1    6    6    0  503 -0.39228449272E+03  0.23279015308E+03  0.18011337486E+03  0.49042757508E+03  0.00000000000E+00 0.  1.
<mgrwt>
<rscale>  0 0.21277926E+04</rscale>
<asrwt>0</asrwt>
<pdfrwt beam="1">  1        1 0.22369704E+00 0.21277926E+04</pdfrwt>
<pdfrwt beam="2">  1       -1 0.11975996E+00 0.21277926E+04</pdfrwt>
<totfact> 0.40193226E+00</totfact>
</mgrwt>
</event>
<event>
12    2  0.3561489E-008  0.1781297E+04  0.7818608E-02  0.8716309E-01
          1   -1    0    0  501    0  0.00000000000E+00  0.00000000000E+00  0.22093362885E+04  0.22093362885E+04  0.00000000000E+00 0. -1.
         -1   -1    0    0    0  501 -0.00000000000E+00 -0.00000000000E+00 -0.35904667892E+03  0.35904667892E+03  0.00000000000E+00 0.  1.
         23    2    1    2    0    0  0.33774114577E+03  0.19936701552E+02 -0.12151487205E+03  0.37101792500E+03  0.91770817429E+02 0.  0.
        254    2    1    2    0    0 -0.33774114577E+03 -0.19936701552E+02  0.19718044817E+04  0.21973650425E+04  0.90880892505E+03 0.  0.
         23    2    4    4    0    0 -0.61333001353E+03  0.65405336112E+02  0.15969529794E+04  0.17146961665E+04  0.97327086713E+02 0.  0.
         23    2    4    4    0    0  0.27558886776E+03 -0.85342037664E+02  0.37485150232E+03  0.48266887591E+03  0.96037011372E+02 0.  0.
          3    1    3    3  502    0  0.19079472332E+02  0.25454424291E+02 -0.12517963751E+02  0.34185572936E+02  0.00000000000E+00 0. -1.
         -3    1    3    3    0  502  0.31866167344E+03 -0.55177227396E+01 -0.10899690830E+03  0.33683235207E+03  0.00000000000E+00 0.  1.
         11    1    5    5    0    0 -0.44602775327E+03  0.86981387644E+02  0.11135179980E+04  0.12026757045E+04  0.00000000000E+00 0. -1.
        -11    1    5    5    0    0 -0.16730226026E+03 -0.21576051532E+02  0.48343498139E+03  0.51202046202E+03  0.00000000000E+00 0.  1.
          2    1    6    6  503    0  0.26959779407E+02  0.15743820614E+02  0.17624573439E+02  0.35851404186E+02  0.00000000000E+00 0.  1.
         -2    1    6    6    0  503  0.24862908836E+03 -0.10108585828E+03  0.35722692888E+03  0.44681747172E+03  0.00000000000E+00 0. -1.
<mgrwt>
<rscale>  0 0.17812971E+04</rscale>
<asrwt>0</asrwt>
<pdfrwt beam="1">  1        1 0.33989788E+00 0.17812971E+04</pdfrwt>
<pdfrwt beam="2">  1       -1 0.55237952E-01 0.17812971E+04</pdfrwt>
<totfact> 0.67253845E+00</totfact>
</mgrwt>
</event>
<event>
12    2  0.3561489E-008  0.1168844E+04  0.7818608E-02  0.9140573E-01
          3   -1    0    0  501    0  0.00000000000E+00  0.00000000000E+00  0.15211275822E+04  0.15211275822E+04  0.00000000000E+00 0. -1.
         -3   -1    0    0    0  501 -0.00000000000E+00 -0.00000000000E+00 -0.22453672446E+03  0.22453672446E+03  0.00000000000E+00 0.  1.
         23    2    1    2    0    0  0.11457397404E+03  0.18006855991E+03  0.16196766306E+03  0.28237851363E+03  0.89175216767E+02 0.  0.
        254    2    1    2    0    0 -0.11457397404E+03 -0.18006855991E+03  0.11346231947E+04  0.14632857931E+04  0.89904595901E+03 0.  0.
         23    2    4    4    0    0  0.33470545669E+03 -0.21686146129E+03  0.77906861669E+03  0.88034832065E+03  0.94913750411E+02 0.  0.
         23    2    4    4    0    0 -0.44927943073E+03  0.36792901374E+02  0.35555457803E+03  0.58293747243E+03  0.10095203978E+03 0.  0.
          4    1    3    3  502    0  0.30283618608E+02  0.11974546914E+02  0.60494819979E+02  0.68703060879E+02  0.00000000000E+00 0. -1.
         -4    1    3    3    0  502  0.84290355431E+02  0.16809401300E+03  0.10147284308E+03  0.21367545275E+03  0.00000000000E+00 0.  1.
         11    1    5    5    0    0  0.11100885078E+03 -0.56200091826E+02  0.15924073097E+03  0.20208667861E+03  0.00000000000E+00 0. -1.
        -11    1    5    5    0    0  0.22369660591E+03 -0.16066136946E+03  0.61982788572E+03  0.67826164203E+03  0.00000000000E+00 0.  1.
          4    1    6    6  503    0 -0.68115278840E+02 -0.28637204246E+02  0.41525728951E+02  0.84759464624E+02  0.00000000000E+00 0. -1.
         -4    1    6    6    0  503 -0.38116415189E+03  0.65430105620E+02  0.31402884908E+03  0.49817800780E+03  0.00000000000E+00 0.  1.
<mgrwt>
<rscale>  0 0.11688439E+04</rscale>
<asrwt>0</asrwt>
<pdfrwt beam="1">  1        3 0.23401962E+00 0.11688439E+04</pdfrwt>
<pdfrwt beam="2">  1       -3 0.34544112E-01 0.11688439E+04</pdfrwt>
<totfact> 0.19717673E+00</totfact>
</mgrwt>
</event>
<event>
12    2  0.3561489E-008  0.2208060E+04  0.7818608E-02  0.8515081E-01
          2   -1    0    0  501    0  0.00000000000E+00  0.00000000000E+00  0.20723802418E+04  0.20723802418E+04  0.00000000000E+00 0. -1.
         -2   -1    0    0    0  501 -0.00000000000E+00 -0.00000000000E+00 -0.58815588194E+03  0.58815588194E+03  0.00000000000E+00 0.  1.
         23    2    1    2    0    0 -0.33468056262E+03  0.63977869148E+03 -0.61692554283E+02  0.72883380939E+03  0.77877451082E+02 0.  0.
        254    2    1    2    0    0  0.33468056262E+03 -0.63977869148E+03  0.15459169141E+04  0.19317023143E+04  0.90569689895E+03 0.  0.
         23    2    4    4    0    0  0.20955967696E+03 -0.63614388693E+03  0.16236150260E+04  0.17586031886E+04  0.89247517778E+02 0.  0.
         23    2    4    4    0    0  0.12512088566E+03 -0.36348045553E+01 -0.77698111844E+02  0.17309912571E+03  0.90872784183E+02 0.  0.
          4    1    3    3  502    0 -0.45117256946E+02  0.44046610538E+02 -0.15001755479E+02  0.64812988217E+02  0.00000000000E+00 0. -1.
         -4    1    3    3    0  502 -0.28956330567E+03  0.59573208094E+03 -0.46690798803E+02  0.66402082117E+03  0.00000000000E+00 0.  1.
         11    1    5    5    0    0  0.28789529310E+01 -0.55552297037E+02  0.90122497597E+02  0.10590755709E+03  0.00000000000E+00 0.  1.
        -11    1    5    5    0    0  0.20668072403E+03 -0.58059158989E+03  0.15334925284E+04  0.16526956315E+04  0.00000000000E+00 0. -1.
          3    1    6    6  503    0  0.48696647495E+02 -0.39718893523E+02 -0.59723892647E+02  0.86694275087E+02  0.00000000000E+00 0. -1.
         -3    1    6    6    0  503  0.76424238160E+02  0.36084088967E+02 -0.17974219197E+02  0.86404850620E+02  0.00000000000E+00 0.  1.
<mgrwt>
<rscale>  0 0.22080604E+04</rscale>
<asrwt>0</asrwt>
<pdfrwt beam="1">  1        2 0.31882773E+00 0.22080604E+04</pdfrwt>
<pdfrwt beam="2">  1       -2 0.90485521E-01 0.22080604E+04</pdfrwt>
<totfact> 0.58040783E+00</totfact>
</mgrwt>
</event>
<event>
12    2  0.3561489E-008  0.1304574E+04  0.7818608E-02  0.9025945E-01
         -2   -1    0    0    0  501 -0.00000000000E+00  0.00000000000E+00  0.33924338881E+03  0.33924338881E+03  0.00000000000E+00 0.  1.
          2   -1    0    0  501    0  0.00000000000E+00 -0.00000000000E+00 -0.12541987672E+04  0.12541987672E+04  0.00000000000E+00 0. -1.
         23    2    1    2    0    0 -0.75280985648E+02  0.11362804926E+03  0.11416119335E+03  0.20144844005E+03  0.94710799559E+02 0.  0.
        254    2    1    2    0    0  0.75280985648E+02 -0.11362804926E+03 -0.10291165717E+04  0.13919937159E+04  0.92735485478E+03 0.  0.
         23    2    4    4    0    0 -0.11110734771E+03 -0.67319913204E+02  0.13490434347E+03  0.20868540728E+03  0.92052180290E+02 0.  0.
         23    2    4    4    0    0  0.18638833336E+03 -0.46308136054E+02 -0.11640209152E+04  0.11833083087E+04  0.91590436631E+02 0.  0.
          1    1    3    3  502    0 -0.34304154835E+02 -0.12270524168E+01 -0.11487334068E+00  0.34326285737E+02  0.00000000000E+00 0. -1.
         -1    1    3    3    0  502 -0.40976830813E+02  0.11485510167E+03  0.11427606669E+03  0.16712215431E+03  0.00000000000E+00 0.  1.
         11    1    5    5    0    0 -0.55610322057E+01 -0.44302936054E+02  0.14552387197E+02  0.46962188996E+02  0.00000000000E+00 0. -1.
        -11    1    5    5    0    0 -0.10554631550E+03 -0.23016977150E+02  0.12035195628E+03  0.16172321829E+03  0.00000000000E+00 0.  1.
          1    1    6    6  503    0  0.14821781536E+03 -0.35090506472E+01 -0.68461166803E+03  0.70048124188E+03  0.00000000000E+00 0. -1.
         -1    1    6    6    0  503  0.38170517993E+02 -0.42799085406E+02 -0.47940924716E+03  0.48282706678E+03  0.00000000000E+00 0.  1.
<mgrwt>
<rscale>  0 0.13045745E+04</rscale>
<asrwt>0</asrwt>
<pdfrwt beam="1">  1        2 0.19295366E+00 0.13045745E+04</pdfrwt>
<pdfrwt beam="2">  1       -2 0.52191289E-01 0.13045745E+04</pdfrwt>
<totfact> 0.59708066E+01</totfact>
</mgrwt>
</event>
<event>
12    2  0.3561489E-008  0.2377673E+04  0.7818608E-02  0.8447910E-01
         -2   -1    0    0    0  501 -0.00000000000E+00  0.00000000000E+00  0.73855420309E+03  0.73855420309E+03  0.00000000000E+00 0. -1.
          2   -1    0    0  501    0  0.00000000000E+00 -0.00000000000E+00 -0.19136471297E+04  0.19136471297E+04  0.00000000000E+00 0.  1.
         23    2    1    2    0    0 -0.99085757438E+03  0.17120623692E+03 -0.58691182943E+03  0.11676495767E+04  0.88485762512E+02 0.  0.
        254    2    1    2    0    0  0.99085757438E+03 -0.17120623692E+03 -0.58818109721E+03  0.14845517561E+04  0.92023182147E+03 0.  0.
         23    2    4    4    0    0  0.80435808306E+03 -0.49779572336E+03 -0.54454082668E+03  0.10951774312E+04  0.89979919192E+02 0.  0.
         23    2    4    4    0    0  0.18649949132E+03  0.32658948645E+03 -0.43640270533E+02  0.38937432495E+03  0.90912808774E+02 0.  0.
          1    1    3    3  502    0 -0.61662580906E+01  0.77720205214E+01 -0.40663331082E+00  0.99293701952E+01  0.00000000000E+00 0. -1.
         -1    1    3    3    0  502 -0.98469131629E+03  0.16343421639E+03 -0.58650519612E+03  0.11577202065E+04  0.00000000000E+00 0.  1.
         11    1    5    5    0    0  0.38073438214E+03 -0.27468291780E+03 -0.23463178663E+03  0.52484421533E+03  0.00000000000E+00 0. -1.
        -11    1    5    5    0    0  0.42362370092E+03 -0.22311280556E+03 -0.30990904005E+03  0.57033321584E+03  0.00000000000E+00 0.  1.
          1    1    6    6  503    0  0.18665003925E+03  0.28548222224E+03 -0.19363076822E+02  0.34163323186E+03  0.00000000000E+00 0. -1.
         -1    1    6    6    0  503 -0.15054792707E+00  0.41107264207E+02 -0.24277193711E+02  0.47741093093E+02  0.00000000000E+00 0.  1.
<mgrwt>
<rscale>  0 0.23776729E+04</rscale>
<asrwt>0</asrwt>
<pdfrwt beam="1">  1        2 0.29440725E+00 0.23776729E+04</pdfrwt>
<pdfrwt beam="2">  1       -2 0.11362372E+00 0.23776729E+04</pdfrwt>
<totfact> 0.40821561E+00</totfact>
</mgrwt>
</event>
<event>
12    2  0.3561489E-008  0.1236380E+04  0.7818608E-02  0.9081596E-01
          1   -1    0    0  501    0  0.00000000000E+00  0.00000000000E+00  0.22206920629E+04  0.22206920629E+04  0.00000000000E+00 0. -1.
         -1   -1    0    0    0  501 -0.00000000000E+00 -0.00000000000E+00 -0.17208986104E+03  0.17208986104E+03  0.00000000000E+00 0.  1.
         23    2    1    2    0    0  0.18044557553E+03  0.58388631228E+02  0.90659949228E+03  0.93070240403E+03  0.91183811494E+02 0.  0.
        254    2    1    2    0    0 -0.18044557553E+03 -0.58388631228E+02  0.11420027096E+04  0.14620795199E+04  0.89304898851E+03 0.  0.
         23    2    4    4    0    0  0.17156278212E+02  0.29659503056E+03  0.95691895121E+03  0.10061087993E+04  0.91093835163E+02 0.  0.
         23    2    4    4    0    0 -0.19760185374E+03 -0.35498366179E+03  0.18508375841E+03  0.45597072064E+03  0.92700634947E+02 0.  0.
          1    1    3    3  502    0  0.17944981842E+03  0.72051974967E+02  0.87728964431E+03  0.89834895472E+03  0.00000000000E+00 0. -1.
         -1    1    3    3    0  502  0.99575710586E+00 -0.13663343739E+02  0.29309847970E+02  0.32353449312E+02  0.00000000000E+00 0.  1.
         11    1    5    5    0    0  0.32523032057E+02  0.29319358248E+03  0.90646937940E+03  0.95326122350E+03  0.00000000000E+00 0.  1.
        -11    1    5    5    0    0 -0.15366753846E+02  0.34014480776E+01  0.50449571807E+02  0.52847575803E+02  0.00000000000E+00 0. -1.
          1    1    6    6  503    0 -0.47975682980E+02 -0.17409795145E+03  0.62172906495E+02  0.19099013890E+03  0.00000000000E+00 0. -1.
         -1    1    6    6    0  503 -0.14962617076E+03 -0.18088571034E+03  0.12291085191E+03  0.26498058174E+03  0.00000000000E+00 0.  1.
<mgrwt>
<rscale>  0 0.12363795E+04</rscale>
<asrwt>0</asrwt>
<pdfrwt beam="1">  1        1 0.34164491E+00 0.12363795E+04</pdfrwt>
<pdfrwt beam="2">  1       -1 0.26475365E-01 0.12363795E+04</pdfrwt>
<totfact> 0.26497392E+01</totfact>
</mgrwt>
</event>
<event>
12    2  0.3561489E-008  0.3315114E+04  0.7818608E-02  0.8159060E-01
          1   -1    0    0  501    0  0.00000000000E+00  0.00000000000E+00  0.29618289090E+04  0.29618289090E+04  0.00000000000E+00 0. -1.
         -1   -1    0    0    0  501 -0.00000000000E+00 -0.00000000000E+00 -0.92763482949E+03  0.92763482949E+03  0.00000000000E+00 0.  1.
         23    2    1    2    0    0 -0.10589117864E+03  0.15323634085E+04  0.96825721776E+03  0.18179914335E+04  0.90665621906E+02 0.  0.
        254    2    1    2    0    0  0.10589117864E+03 -0.15323634085E+04  0.10659368617E+04  0.20714723050E+04  0.89186633508E+03 0.  0.
         23    2    4    4    0    0  0.17320860650E+03 -0.14677668077E+04  0.11838514538E+04  0.18958260967E+04  0.91168530283E+02 0.  0.
         23    2    4    4    0    0 -0.67317427853E+02 -0.64596600796E+02 -0.11791459207E+03  0.17564620832E+03  0.90793075447E+02 0.  0.
          1    1    3    3  502    0 -0.52382906178E+02  0.11783294273E+04  0.77201619337E+03  0.14096855007E+04  0.00000000000E+00 0. -1.
         -1    1    3    3    0  502 -0.53508272467E+02  0.35403398124E+03  0.19624102438E+03  0.40830593279E+03  0.00000000000E+00 0.  1.
         11    1    5    5    0    0  0.28288098912E+02 -0.61847703940E+03  0.48581817252E+03  0.78697735772E+03  0.00000000000E+00 0. -1.
        -11    1    5    5    0    0  0.14492050759E+03 -0.84928976832E+03  0.69803328129E+03  0.11088487390E+04  0.00000000000E+00 0.  1.
          4    1    6    6  503    0 -0.19416026536E+02 -0.15251036756E+02 -0.10214935742E+03  0.10509075806E+03  0.00000000000E+00 0. -1.
         -4    1    6    6    0  503 -0.47901401318E+02 -0.49345564040E+02 -0.15765234650E+02  0.70555450265E+02  0.00000000000E+00 0.  1.
<mgrwt>
<rscale>  0 0.33151143E+04</rscale>
<asrwt>0</asrwt>
<pdfrwt beam="1">  1        1 0.45566598E+00 0.33151143E+04</pdfrwt>
<pdfrwt beam="2">  1       -1 0.14271305E+00 0.33151143E+04</pdfrwt>
<totfact> 0.21026717E-01</totfact>
</mgrwt>
</event>
<event>
12    2  0.3561489E-008  0.1733523E+04  0.7818608E-02  0.8742473E-01
         -2   -1    0    0    0  501 -0.00000000000E+00  0.00000000000E+00  0.93444828971E+03  0.93444828971E+03  0.00000000000E+00 0.  1.
          2   -1    0    0  501    0  0.00000000000E+00 -0.00000000000E+00 -0.80397739546E+03  0.80397739546E+03  0.00000000000E+00 0. -1.
         23    2    1    2    0    0 -0.29752437081E+03 -0.37285679461E+03  0.44906879303E+03  0.66045690968E+03  0.83651707442E+02 0.  0.
        254    2    1    2    0    0  0.29752437081E+03  0.37285679461E+03 -0.31859789877E+03  0.10779687755E+04  0.91267141913E+03 0.  0.
         23    2    4    4    0    0  0.37313340585E+03  0.46629866625E+03  0.11845555674E+03  0.61604353959E+03  0.93887906793E+02 0.  0.
         23    2    4    4    0    0 -0.75609035033E+02 -0.93441871640E+02 -0.43705345551E+03  0.46192523590E+03  0.88944314195E+02 0.  0.
          2    1    3    3  502    0 -0.64883972850E+02 -0.13366710716E+03  0.11107343638E+03  0.18551046800E+03  0.00000000000E+00 0. -1.
         -2    1    3    3    0  502 -0.23264039796E+03 -0.23918968745E+03  0.33799535665E+03  0.47494644168E+03  0.00000000000E+00 0.  1.
         11    1    5    5    0    0  0.34090519749E+03  0.43507631565E+03  0.13367238444E+03  0.56866163971E+03  0.00000000000E+00 0.  1.
        -11    1    5    5    0    0  0.32228208358E+02  0.31222350604E+02 -0.15216827702E+02  0.47381899883E+02  0.00000000000E+00 0. -1.
          2    1    6    6  503    0 -0.60686097266E+02 -0.25731738128E+02 -0.11553778643E+03  0.13301843797E+03  0.00000000000E+00 0. -1.
         -2    1    6    6    0  503 -0.14922937766E+02 -0.67710133512E+02 -0.32151566908E+03  0.32890679792E+03  0.00000000000E+00 0.  1.
<mgrwt>
<rscale>  0 0.17335228E+04</rscale>
<asrwt>0</asrwt>
<pdfrwt beam="1">  1        2 0.12368883E+00 0.17335228E+04</pdfrwt>
<pdfrwt beam="2">  1       -2 0.14376127E+00 0.17335228E+04</pdfrwt>
<totfact> 0.10880206E+01</totfact>
</mgrwt>
</event>
<event>
12    2  0.3561489E-008  0.1714668E+04  0.7818608E-02  0.8753042E-01
         -2   -1    0    0    0  501 -0.00000000000E+00  0.00000000000E+00  0.51880231285E+03  0.51880231285E+03  0.00000000000E+00 0.  1.
          2   -1    0    0  501    0  0.00000000000E+00 -0.00000000000E+00 -0.14167667559E+04  0.14167667559E+04  0.00000000000E+00 0. -1.
         23    2    1    2    0    0 -0.10822619188E+03 -0.47952911188E+03 -0.24357983431E+02  0.50045102533E+03  0.90536399574E+02 0.  0.
        254    2    1    2    0    0  0.10822619188E+03  0.47952911188E+03 -0.87360645963E+03  0.14351180434E+04  0.10269929282E+04 0.  0.
         23    2    4    4    0    0 -0.63894895738E+02 -0.11733005551E+03  0.15859219295E+03  0.22707160748E+03  0.92526383445E+02 0.  0.
         23    2    4    4    0    0  0.17212108762E+03  0.59685916739E+03 -0.10321986526E+04  0.12080464359E+04  0.89864333839E+02 0.  0.
          1    1    3    3  502    0 -0.55962829728E+01 -0.13004118310E+03 -0.39099888822E+02  0.13590742802E+03  0.00000000000E+00 0. -1.
         -1    1    3    3    0  502 -0.10262990891E+03 -0.34948792878E+03  0.14741905390E+02  0.36454359731E+03  0.00000000000E+00 0.  1.
         11    1    5    5    0    0 -0.47468679366E+02 -0.36060115988E+01  0.46967380941E+02  0.66874611870E+02  0.00000000000E+00 0.  1.
        -11    1    5    5    0    0 -0.16426216372E+02 -0.11372404391E+03  0.11162481201E+03  0.16019699561E+03  0.00000000000E+00 0. -1.
          2    1    6    6  503    0  0.33729854549E+02  0.27800769510E+03 -0.46432086267E+03  0.54223596813E+03  0.00000000000E+00 0. -1.
         -2    1    6    6    0  503  0.13839123307E+03  0.31885147230E+03 -0.56787778990E+03  0.66581046781E+03  0.00000000000E+00 0.  1.
<mgrwt>
<rscale>  0 0.17146683E+04</rscale>
<asrwt>0</asrwt>
<pdfrwt beam="1">  1        2 0.21796412E+00 0.17146683E+04</pdfrwt>
<pdfrwt beam="2">  1       -2 0.79815740E-01 0.17146683E+04</pdfrwt>
<totfact> 0.18693463E+01</totfact>
</mgrwt>
</event>
<event>
12    2  0.3561489E-008  0.1652111E+04  0.7818608E-02  0.8789159E-01
          1   -1    0    0  501    0  0.00000000000E+00  0.00000000000E+00  0.32377204217E+04  0.32377204217E+04  0.00000000000E+00 0. -1.
         -1   -1    0    0    0  501 -0.00000000000E+00 -0.00000000000E+00 -0.21075559764E+03  0.21075559764E+03  0.00000000000E+00 0.  1.
         23    2    1    2    0    0  0.24927606651E+03  0.16996638689E+03  0.44980729589E+02  0.31872730569E+03  0.92394260390E+02 0.  0.
        254    2    1    2    0    0 -0.24927606651E+03 -0.16996638689E+03  0.29819840945E+04  0.31297487136E+04  0.90114967729E+03 0.  0.
         23    2    4    4    0    0 -0.25410478379E+03 -0.51172144142E+03  0.15407896467E+04  0.16457834248E+04  0.90234534324E+02 0.  0.
         23    2    4    4    0    0  0.48287172800E+01  0.34175505453E+03  0.14411944478E+04  0.14839652889E+04  0.91058818537E+02 0.  0.
          1    1    3    3  502    0  0.47404359389E+02  0.26019117305E+02  0.45682476082E+02  0.70788815327E+02  0.00000000000E+00 0. -1.
         -1    1    3    3    0  502  0.20187170712E+03  0.14394726959E+03 -0.70174649269E+00  0.24793849037E+03  0.00000000000E+00 0.  1.
         11    1    5    5    0    0 -0.12052562047E+03 -0.30189754318E+03  0.76838232973E+03  0.83431406341E+03  0.00000000000E+00 0. -1.
        -11    1    5    5    0    0 -0.13357916332E+03 -0.20982389824E+03  0.77240731695E+03  0.81146936136E+03  0.00000000000E+00 0.  1.
          2    1    6    6  503    0 -0.31576202631E+02  0.25494807826E+03  0.96868265775E+03  0.10021684841E+04  0.00000000000E+00 0. -1.
         -2    1    6    6    0  503  0.36404919911E+02  0.86806976265E+02  0.47251179003E+03  0.48179680472E+03  0.00000000000E+00 0.  1.
<mgrwt>
<rscale>  0 0.16521110E+04</rscale>
<asrwt>0</asrwt>
<pdfrwt beam="1">  1        1 0.49811080E+00 0.16521110E+04</pdfrwt>
<pdfrwt beam="2">  1       -1 0.32423940E-01 0.16521110E+04</pdfrwt>
<totfact> 0.34051335E+00</totfact>
</mgrwt>
</event>
<event>
12    2  0.3561489E-008  0.1380341E+04  0.7818608E-02  0.8968173E-01
          1   -1    0    0  501    0  0.00000000000E+00  0.00000000000E+00  0.29823585959E+04  0.29823585959E+04  0.00000000000E+00 0. -1.
         -1   -1    0    0    0  501 -0.00000000000E+00 -0.00000000000E+00 -0.15971770929E+03  0.15971770929E+03  0.00000000000E+00 0.  1.
         23    2    1    2    0    0  0.11950449847E+03 -0.39528488628E+02 -0.29632704085E+01  0.15656061755E+03  0.93051702992E+02 0.  0.
        254    2    1    2    0    0 -0.11950449847E+03  0.39528488628E+02  0.28256041570E+04  0.29855156876E+04  0.95573073740E+03 0.  0.
         23    2    4    4    0    0  0.19741209117E+03  0.21160033743E+03  0.24041736006E+04  0.24232229264E+04  0.90622361888E+02 0.  0.
         23    2    4    4    0    0 -0.31691658964E+03 -0.17207184880E+03  0.42143055638E+03  0.56229276124E+03  0.92328703826E+02 0.  0.
          3    1    3    3  502    0  0.10312423410E+03  0.17421324119E+01 -0.26243423828E+02  0.10642537282E+03  0.00000000000E+00 0.  1.
         -3    1    3    3    0  502  0.16380264366E+02 -0.41270621040E+02  0.23280153419E+02  0.50135244738E+02  0.00000000000E+00 0. -1.
         11    1    5    5    0    0  0.17655219970E+03  0.19857718033E+03  0.19047496725E+04  0.19231939296E+04  0.00000000000E+00 0. -1.
        -11    1    5    5    0    0  0.20859891474E+02  0.13023157104E+02  0.49942392811E+03  0.50002899682E+03  0.00000000000E+00 0.  1.
          1    1    6    6  503    0 -0.27750066064E+03 -0.11300793910E+03  0.31894028718E+03  0.43760749279E+03  0.00000000000E+00 0. -1.
         -1    1    6    6    0  503 -0.39415928999E+02 -0.59063909705E+02  0.10249026919E+03  0.12468526845E+03  0.00000000000E+00 0.  1.
<mgrwt>
<rscale>  0 0.13803412E+04</rscale>
<asrwt>0</asrwt>
<pdfrwt beam="1">  1        1 0.45882436E+00 0.13803412E+04</pdfrwt>
<pdfrwt beam="2">  1       -1 0.24571957E-01 0.13803412E+04</pdfrwt>
<totfact> 0.87463757E+00</totfact>
</mgrwt>
</event>
<event>
12    2  0.3561489E-008  0.1501917E+04  0.7818608E-02  0.8883179E-01
          2   -1    0    0  501    0  0.00000000000E+00  0.00000000000E+00  0.19112963099E+04  0.19112963099E+04  0.00000000000E+00 0. -1.
         -2   -1    0    0    0  501 -0.00000000000E+00 -0.00000000000E+00 -0.29505565600E+03  0.29505565600E+03  0.00000000000E+00 0.  1.
         23    2    1    2    0    0 -0.42093210587E+03  0.43352997947E+02  0.20356564298E+03  0.47839766606E+03  0.91444167146E+02 0.  0.
        254    2    1    2    0    0  0.42093210587E+03 -0.43352997947E+02  0.14126750109E+04  0.17279542998E+04  0.90061759679E+03 0.  0.
         23    2    4    4    0    0  0.30433481513E+02  0.36971151218E+03  0.80194702327E+03  0.88848804684E+03  0.93162128583E+02 0.  0.
         23    2    4    4    0    0  0.39049862436E+03 -0.41306451012E+03  0.61072798761E+03  0.83946625296E+03  0.92754783512E+02 0.  0.
          3    1    3    3  502    0 -0.89109665792E+02  0.35937967450E+02  0.77182258399E+02  0.12324435506E+03  0.00000000000E+00 0. -1.
         -3    1    3    3    0  502 -0.33182244008E+03  0.74150304971E+01  0.12638338458E+03  0.35515331101E+03  0.00000000000E+00 0.  1.
         11    1    5    5    0    0  0.45553307031E+02  0.78706818659E+02  0.20133146822E+03  0.22091678791E+03  0.00000000000E+00 0.  1.
        -11    1    5    5    0    0 -0.15119825519E+02  0.29100469352E+03  0.60061555505E+03  0.66757125893E+03  0.00000000000E+00 0. -1.
          2    1    6    6  503    0  0.25284456250E+03 -0.22482036422E+03  0.41160115854E+03  0.53281336569E+03  0.00000000000E+00 0. -1.
         -2    1    6    6    0  503  0.13765406186E+03 -0.18824414591E+03  0.19912682907E+03  0.30665288727E+03  0.00000000000E+00 0.  1.
<mgrwt>
<rscale>  0 0.15019172E+04</rscale>
<asrwt>0</asrwt>
<pdfrwt beam="1">  1        2 0.29404558E+00 0.15019172E+04</pdfrwt>
<pdfrwt beam="2">  1       -2 0.45393179E-01 0.15019172E+04</pdfrwt>
<totfact> 0.33281708E+01</totfact>
</mgrwt>
</event>
<event>
12    2  0.3561489E-008  0.2242713E+04  0.7818608E-02  0.8500857E-01
          2   -1    0    0  501    0  0.00000000000E+00  0.00000000000E+00  0.26849913808E+04  0.26849913808E+04  0.00000000000E+00 0. -1.
         -2   -1    0    0    0  501 -0.00000000000E+00 -0.00000000000E+00 -0.46832199462E+03  0.46832199462E+03  0.00000000000E+00 0.  1.
         23    2    1    2    0    0  0.51177140193E+02 -0.45596596790E+03  0.20791763807E+04  0.21311939309E+04  0.92136233029E+02 0.  0.
        254    2    1    2    0    0 -0.51177140193E+02  0.45596596790E+03  0.13749300552E+03  0.10221194446E+04  0.90293951560E+03 0.  0.
         23    2    4    4    0    0 -0.39437386914E+03  0.47310754377E+03 -0.42590847193E+02  0.62382184914E+03  0.89320896609E+02 0.  0.
         23    2    4    4    0    0  0.34319672894E+03 -0.17141575872E+02  0.18008385271E+03  0.39829759543E+03  0.90182881611E+02 0.  0.
          2    1    3    3  502    0  0.85520755898E+01 -0.44065098253E+02  0.10739267163E+03  0.11639612021E+03  0.00000000000E+00 0. -1.
         -2    1    3    3    0  502  0.42625064603E+02 -0.41190086964E+03  0.19717837091E+04  0.20147978107E+04  0.00000000000E+00 0.  1.
         11    1    5    5    0    0 -0.83395583792E+02  0.10276473769E+03 -0.46313693578E+02  0.14021545179E+03  0.00000000000E+00 0. -1.
        -11    1    5    5    0    0 -0.31097828534E+03  0.37034280608E+03  0.37228463853E+01  0.48360639735E+03  0.00000000000E+00 0.  1.
          4    1    6    6  503    0  0.21326096231E+03 -0.25621097878E+02  0.15699842984E+03  0.26605485463E+03  0.00000000000E+00 0. -1.
         -4    1    6    6    0  503  0.12993576663E+03  0.84795220053E+01  0.23085422874E+02  0.13224274079E+03  0.00000000000E+00 0.  1.
<mgrwt>
<rscale>  0 0.22427131E+04</rscale>
<asrwt>0</asrwt>
<pdfrwt beam="1">  1        2 0.41307559E+00 0.22427131E+04</pdfrwt>
<pdfrwt beam="2">  1       -2 0.72049539E-01 0.22427131E+04</pdfrwt>
<totfact> 0.43095436E+00</totfact>
</mgrwt>
</event>
<event>
12    2  0.3561489E-008  0.2210049E+04  0.7818608E-02  0.8514257E-01
          2   -1    0    0  501    0  0.00000000000E+00  0.00000000000E+00  0.24004087723E+04  0.24004087723E+04  0.00000000000E+00 0.  1.
         -2   -1    0    0    0  501 -0.00000000000E+00 -0.00000000000E+00 -0.50869627500E+03  0.50869627500E+03  0.00000000000E+00 0. -1.
         23    2    1    2    0    0  0.27549394816E+03  0.12210837113E+02 -0.36597452323E+03  0.46711442876E+03  0.90622943478E+02 0.  0.
        254    2    1    2    0    0 -0.27549394816E+03 -0.12210837113E+02  0.22576870205E+04  0.24419906185E+04  0.88888777604E+03 0.  0.
         23    2    4    4    0    0  0.30002525552E+03  0.70537111801E+02  0.57196716657E+03  0.65622450984E+03  0.92160347168E+02 0.  0.
         23    2    4    4    0    0 -0.57551920368E+03 -0.82747948914E+02  0.16857198539E+04  0.17857661087E+04  0.96122797104E+02 0.  0.
          1    1    3    3  502    0  0.18514825059E+03 -0.25982614983E+02 -0.27999637245E+03  0.33667928294E+03  0.00000000000E+00 0. -1.
         -1    1    3    3    0  502  0.90345697565E+02  0.38193452096E+02 -0.85978150783E+02  0.13043514581E+03  0.00000000000E+00 0.  1.
         11    1    5    5    0    0  0.50885988755E+02  0.15825985159E+02  0.41244944531E+02  0.67386876373E+02  0.00000000000E+00 0.  1.
        -11    1    5    5    0    0  0.24913926676E+03  0.54711126642E+02  0.53072222204E+03  0.58883763347E+03  0.00000000000E+00 0. -1.
          1    1    6    6  503    0 -0.48550992312E+03 -0.33411972050E+02  0.13855003959E+04  0.14684847948E+04  0.00000000000E+00 0. -1.
         -1    1    6    6    0  503 -0.90009280561E+02 -0.49335976864E+02  0.30021945797E+03  0.31728131389E+03  0.00000000000E+00 0.  1.
<mgrwt>
<rscale>  0 0.22100489E+04</rscale>
<asrwt>0</asrwt>
<pdfrwt beam="1">  1        2 0.36929365E+00 0.22100489E+04</pdfrwt>
<pdfrwt beam="2">  1       -2 0.78260967E-01 0.22100489E+04</pdfrwt>
<totfact> 0.52697624E+00</totfact>
</mgrwt>
</event>
<event>
12    2  0.3561489E-008  0.2914750E+04  0.7818608E-02  0.8268502E-01
         -2   -1    0    0    0  501 -0.00000000000E+00  0.00000000000E+00  0.59360603120E+03  0.59360603120E+03  0.00000000000E+00 0.  1.
          2   -1    0    0  501    0  0.00000000000E+00 -0.00000000000E+00 -0.35780333857E+04  0.35780333857E+04  0.00000000000E+00 0. -1.
         23    2    1    2    0    0  0.13133604103E+04 -0.82692306993E+02 -0.14738697396E+04  0.19779712074E+04  0.91238714312E+02 0.  0.
        254    2    1    2    0    0 -0.13133604103E+04  0.82692306993E+02 -0.15105576148E+04  0.21936682094E+04  0.89366790274E+03 0.  0.
         23    2    4    4    0    0 -0.19335674874E+03  0.13176707174E+03 -0.85662208948E+03  0.89264129826E+03  0.90871831096E+02 0.  0.
         23    2    4    4    0    0 -0.11200036616E+04 -0.49074764751E+02 -0.65393552533E+03  0.13010269112E+04  0.90679754229E+02 0.  0.
          2    1    3    3  502    0  0.10875980501E+04 -0.47124182478E+02 -0.12575142777E+04  0.16632595605E+04  0.00000000000E+00 0. -1.
         -2    1    3    3    0  502  0.22576236023E+03 -0.35568124515E+02 -0.21635546199E+03  0.31471164693E+03  0.00000000000E+00 0.  1.
         11    1    5    5    0    0 -0.13979388322E+03  0.48170986928E+02 -0.43335074389E+03  0.45788168887E+03  0.00000000000E+00 0. -1.
        -11    1    5    5    0    0 -0.53562865512E+02  0.83596084816E+02 -0.42327134559E+03  0.43475960939E+03  0.00000000000E+00 0.  1.
          2    1    6    6  503    0 -0.11142866882E+04 -0.47344853534E+02 -0.64002478796E+03  0.12858880542E+04  0.00000000000E+00 0. -1.
         -2    1    6    6    0  503 -0.57169733901E+01 -0.17299112168E+01 -0.13910737366E+02  0.15138857012E+02  0.00000000000E+00 0.  1.
<mgrwt>
<rscale>  0 0.29147502E+04</rscale>
<asrwt>0</asrwt>
<pdfrwt beam="1">  1        2 0.55046667E+00 0.29147502E+04</pdfrwt>
<pdfrwt beam="2">  1       -2 0.91324006E-01 0.29147502E+04</pdfrwt>
<totfact> 0.63018964E-01</totfact>
</mgrwt>
</event>
<event>
12    2  0.3561489E-008  0.2511802E+04  0.7818608E-02  0.8398793E-01
          1   -1    0    0  501    0  0.00000000000E+00  0.00000000000E+00  0.91284173252E+03  0.91284173252E+03  0.00000000000E+00 0. -1.
         -1   -1    0    0    0  501 -0.00000000000E+00 -0.00000000000E+00 -0.17278870460E+04  0.17278870460E+04  0.00000000000E+00 0.  1.
         23    2    1    2    0    0  0.75524583903E+03 -0.55763074395E+03  0.23579276848E+03  0.97223856301E+03  0.91111304295E+02 0.  0.
        254    2    1    2    0    0 -0.75524583903E+03  0.55763074395E+03 -0.10508380819E+04  0.16684902155E+04  0.89344871190E+03 0.  0.
         23    2    4    4    0    0 -0.76160181911E+03  0.71853580433E+03 -0.67571965361E+03  0.12493759013E+04  0.89510108457E+02 0.  0.
         23    2    4    4    0    0  0.63559800795E+01 -0.16090506039E+03 -0.37511842831E+03  0.41911431418E+03  0.94932271401E+02 0.  0.
          4    1    3    3  502    0  0.44978929937E+03 -0.32351640303E+03  0.18459271855E+03  0.58399293540E+03  0.00000000000E+00 0. -1.
         -4    1    3    3    0  502  0.30545653966E+03 -0.23411434091E+03  0.51200049923E+02  0.38824562760E+03  0.00000000000E+00 0.  1.
         11    1    5    5    0    0 -0.71996936262E+03  0.68316511484E+03 -0.61456011939E+03  0.11673708055E+04  0.00000000000E+00 0. -1.
        -11    1    5    5    0    0 -0.41632456484E+02  0.35370689488E+02 -0.61159534214E+02  0.82005095775E+02  0.00000000000E+00 0.  1.
          3    1    6    6  503    0  0.14997313327E+02 -0.17039380047E+03 -0.32366750341E+03  0.36608690145E+03  0.00000000000E+00 0. -1.
         -3    1    6    6    0  503 -0.86413332471E+01  0.94887400822E+01 -0.51450924896E+02  0.53027412734E+02  0.00000000000E+00 0.  1.
<mgrwt>
<rscale>  0 0.25118021E+04</rscale>
<asrwt>0</asrwt>
<pdfrwt beam="1">  1        1 0.14043719E+00 0.25118021E+04</pdfrwt>
<pdfrwt beam="2">  1       -1 0.26582878E+00 0.25118021E+04</pdfrwt>
<totfact> 0.86683576E-01</totfact>
</mgrwt>
</event>
<event>
12    2  0.3561489E-008  0.1633909E+04  0.7818608E-02  0.8799983E-01
          2   -1    0    0  501    0  0.00000000000E+00  0.00000000000E+00  0.22492857333E+04  0.22492857333E+04  0.00000000000E+00 0.  1.
         -2   -1    0    0    0  501 -0.00000000000E+00 -0.00000000000E+00 -0.29672302192E+03  0.29672302192E+03  0.00000000000E+00 0. -1.
         23    2    1    2    0    0  0.22661237786E+03  0.11301887318E+03 -0.95382719643E+02  0.28539618601E+03  0.90701071058E+02 0.  0.
        254    2    1    2    0    0 -0.22661237786E+03 -0.11301887318E+03  0.20479454311E+04  0.22606125693E+04  0.92312635328E+03 0.  0.
         23    2    4    4    0    0 -0.56622645600E+03 -0.17311680570E+03  0.12547216533E+04  0.13903784579E+04  0.90796480631E+02 0.  0.
         23    2    4    4    0    0  0.33961407815E+03  0.60097932527E+02  0.79322377776E+03  0.87023411139E+03  0.95676347424E+02 0.  0.
          1    1    3    3  502    0  0.23437688854E+03  0.11476939617E+03 -0.91538926239E+02  0.27655725482E+03  0.00000000000E+00 0. -1.
         -1    1    3    3    0  502 -0.77645106805E+01 -0.17505229910E+01 -0.38437934042E+01  0.88389311901E+01  0.00000000000E+00 0.  1.
         11    1    5    5    0    0 -0.48494639052E+03 -0.12433975118E+03  0.99391478467E+03  0.11128791375E+04  0.00000000000E+00 0.  1.
        -11    1    5    5    0    0 -0.81280065484E+02 -0.48777054525E+02  0.26080686864E+03  0.27749932040E+03  0.00000000000E+00 0. -1.
          2    1    6    6  503    0  0.29612427184E+03  0.73506839195E+02  0.61825201135E+03  0.68944063509E+03  0.00000000000E+00 0.  1.
         -2    1    6    6    0  503  0.43489806302E+02 -0.13408906667E+02  0.17497176641E+03  0.18079347630E+03  0.00000000000E+00 0. -1.
<mgrwt>
<rscale>  0 0.16339093E+04</rscale>
<asrwt>0</asrwt>
<pdfrwt beam="1">  1        2 0.34604395E+00 0.16339093E+04</pdfrwt>
<pdfrwt beam="2">  1       -2 0.45649697E-01 0.16339093E+04</pdfrwt>
<totfact> 0.21098565E+01</totfact>
</mgrwt>
</event>
<event>
12    2  0.3561489E-008  0.1790633E+04  0.7818608E-02  0.8711297E-01
         -1   -1    0    0    0  501 -0.00000000000E+00  0.00000000000E+00  0.69507220444E+03  0.69507220444E+03  0.00000000000E+00 0.  1.
          1   -1    0    0  501    0  0.00000000000E+00 -0.00000000000E+00 -0.11532495656E+04  0.11532495656E+04  0.00000000000E+00 0. -1.
         23    2    1    2    0    0 -0.28724684163E+03  0.74768016622E+02  0.44600302348E+03  0.54359056158E+03  0.92038021188E+02 0.  0.
        254    2    1    2    0    0  0.28724684163E+03 -0.74768016622E+02 -0.90418038461E+03  0.13047312084E+04  0.89256952334E+03 0.  0.
         23    2    4    4    0    0  0.98635062231E+02 -0.24067657953E+03 -0.98710444228E+03  0.10248933734E+04  0.91526802237E+02 0.  0.
         23    2    4    4    0    0  0.18861177940E+03  0.16590856290E+03  0.82924057676E+02  0.27983783498E+03  0.91283952434E+02 0.  0.
          4    1    3    3  502    0 -0.11483577297E+03 -0.73775294997E+01  0.12365354773E+03  0.16891383177E+03  0.00000000000E+00 0. -1.
         -4    1    3    3    0  502 -0.17241106865E+03  0.82145546122E+02  0.32234947575E+03  0.37467672981E+03  0.00000000000E+00 0.  1.
         11    1    5    5    0    0  0.20884587174E+01 -0.63177722633E+02 -0.13362952658E+03  0.14782637340E+03  0.00000000000E+00 0.  1.
        -11    1    5    5    0    0  0.96546603513E+02 -0.17749885689E+03 -0.85347491570E+03  0.87706700005E+03  0.00000000000E+00 0. -1.
          3    1    6    6  503    0  0.17308466209E+01  0.34606642841E+02  0.28947343135E+02  0.45150462161E+02  0.00000000000E+00 0. -1.
         -3    1    6    6    0  503  0.18688093278E+03  0.13130192006E+03  0.53976714540E+02  0.23468737282E+03  0.00000000000E+00 0.  1.
<mgrwt>
<rscale>  0 0.17906331E+04</rscale>
<asrwt>0</asrwt>
<pdfrwt beam="1">  1        1 0.17742301E+00 0.17906331E+04</pdfrwt>
<pdfrwt beam="2">  1       -1 0.10693419E+00 0.17906331E+04</pdfrwt>
<totfact> 0.89128284E+00</totfact>
</mgrwt>
</event>
<event>
12    2  0.3561489E-008  0.1235164E+04  0.7818608E-02  0.9082622E-01
         -2   -1    0    0    0  501 -0.00000000000E+00  0.00000000000E+00  0.43963326683E+03  0.43963326683E+03  0.00000000000E+00 0.  1.
          2   -1    0    0  501    0  0.00000000000E+00 -0.00000000000E+00 -0.86755829859E+03  0.86755829859E+03  0.00000000000E+00 0. -1.
         23    2    1    2    0    0 -0.55323750817E+02  0.46717942883E+02 -0.38332772108E+03  0.40064121697E+03  0.91268611263E+02 0.  0.
        254    2    1    2    0    0  0.55323750817E+02 -0.46717942883E+02 -0.44597310680E+02  0.90655034844E+03  0.90255267467E+03 0.  0.
         23    2    4    4    0    0  0.53930572045E+02  0.13468057443E+03  0.39063283781E+03  0.42672388020E+03  0.91934173367E+02 0.  0.
         23    2    4    4    0    0  0.13931787714E+01 -0.18139851731E+03 -0.43523014849E+03  0.47982646824E+03  0.88886413134E+02 0.  0.
          1    1    3    3  502    0 -0.15655362977E+01  0.57587329916E+02 -0.24839221539E+03  0.25498518416E+03  0.00000000000E+00 0. -1.
         -1    1    3    3    0  502 -0.53758214519E+02 -0.10869387033E+02 -0.13493550568E+03  0.14565603282E+03  0.00000000000E+00 0.  1.
         11    1    5    5    0    0  0.53372570285E+02  0.20040982966E+02  0.13672341863E+03  0.14813360678E+03  0.00000000000E+00 0.  1.
        -11    1    5    5    0    0  0.55800176032E+00  0.11463959146E+03  0.25390941918E+03  0.27859027342E+03  0.00000000000E+00 0. -1.
          2    1    6    6  503    0  0.13498100377E+02 -0.16339677535E+03 -0.29129348863E+03  0.33426426884E+03  0.00000000000E+00 0. -1.
         -2    1    6    6    0  503 -0.12104921606E+02 -0.18001741958E+02 -0.14393665986E+03  0.14556219940E+03  0.00000000000E+00 0.  1.
<mgrwt>
<rscale>  0 0.12351639E+04</rscale>
<asrwt>0</asrwt>
<pdfrwt beam="1">  1        2 0.13347051E+00 0.12351639E+04</pdfrwt>
<pdfrwt beam="2">  1       -2 0.67635887E-01 0.12351639E+04</pdfrwt>
<totfact> 0.60885206E+01</totfact>
</mgrwt>
</event>
<event>
12    2  0.3561489E-008  0.1592947E+04  0.7818608E-02  0.8824893E-01
         -2   -1    0    0    0  501 -0.00000000000E+00  0.00000000000E+00  0.24366036797E+03  0.24366036797E+03  0.00000000000E+00 0. -1.
          2   -1    0    0  501    0  0.00000000000E+00 -0.00000000000E+00 -0.26034999601E+04  0.26034999601E+04  0.00000000000E+00 0.  1.
         23    2    1    2    0    0  0.13813122603E+03  0.24215960801E+02  0.12081959900E+03  0.20482324827E+03  0.87684315405E+02 0.  0.
        254    2    1    2    0    0 -0.13813122603E+03 -0.24215960801E+02 -0.24806591912E+04  0.26423370798E+04  0.89922665242E+03 0.  0.
         23    2    4    4    0    0  0.23565716225E+03  0.25265150067E+03 -0.56848942910E+03  0.67219446914E+03  0.96426627162E+02 0.  0.
         23    2    4    4    0    0 -0.37378838828E+03 -0.27686746147E+03 -0.19121697621E+04  0.19701426107E+04  0.93248898766E+02 0.  0.
          1    1    3    3  502    0  0.50295387426E+02 -0.31587752623E+02  0.59338063528E+02  0.83954856294E+02  0.00000000000E+00 0. -1.
         -1    1    3    3    0  502  0.87835838603E+02  0.55803713424E+02  0.61481535471E+02  0.12086839198E+03  0.00000000000E+00 0.  1.
         11    1    5    5    0    0  0.18829613720E+03  0.14250238892E+03 -0.41431976944E+03  0.47688912493E+03  0.00000000000E+00 0. -1.
        -11    1    5    5    0    0  0.47361025054E+02  0.11014911175E+03 -0.15416965966E+03  0.19530534420E+03  0.00000000000E+00 0.  1.
          4    1    6    6  503    0 -0.33314613907E+03 -0.20785525805E+03 -0.16456382781E+04  0.16918379062E+04  0.00000000000E+00 0. -1.
         -4    1    6    6    0  503 -0.40642249211E+02 -0.69012203424E+02 -0.26653148392E+03  0.27830470453E+03  0.00000000000E+00 0.  1.
<mgrwt>
<rscale>  0 0.15929467E+04</rscale>
<asrwt>0</asrwt>
<pdfrwt beam="1">  1        2 0.40053844E+00 0.15929467E+04</pdfrwt>
<pdfrwt beam="2">  1       -2 0.37486212E-01 0.15929467E+04</pdfrwt>
<totfact> 0.19560348E+01</totfact>
</mgrwt>
</event>
<event>
12    2  0.3561489E-008  0.2059650E+04  0.7818608E-02  0.8579229E-01
         -1   -1    0    0    0  501 -0.00000000000E+00  0.00000000000E+00  0.87165889860E+03  0.87165889860E+03  0.00000000000E+00 0.  1.
          1   -1    0    0  501    0  0.00000000000E+00 -0.00000000000E+00 -0.12166912013E+04  0.12166912013E+04  0.00000000000E+00 0. -1.
         23    2    1    2    0    0 -0.23476921702E+03  0.22601028845E+03 -0.86360450954E+03  0.92749956401E+03  0.90804496540E+02 0.  0.
        254    2    1    2    0    0  0.23476921702E+03 -0.22601028845E+03  0.51857220686E+03  0.11608505359E+04  0.98613366089E+03 0.  0.
         23    2    4    4    0    0  0.23030951028E+03  0.10935535494E+03 -0.21671333096E+03  0.34775408787E+03  0.94695161599E+02 0.  0.
         23    2    4    4    0    0  0.44597067373E+01 -0.33536564339E+03  0.73528553783E+03  0.81309644800E+03  0.89392437341E+02 0.  0.
          1    1    3    3  502    0 -0.17513791663E+03  0.17912842887E+03 -0.75139003542E+03  0.79205256720E+03  0.00000000000E+00 0. -1.
         -1    1    3    3    0  502 -0.59631300387E+02  0.46881859579E+02 -0.11221447412E+03  0.13544699681E+03  0.00000000000E+00 0.  1.
         11    1    5    5    0    0  0.19203888885E+03  0.48943426636E+02 -0.13851869288E+03  0.24178879652E+03  0.00000000000E+00 0. -1.
        -11    1    5    5    0    0  0.38270621424E+02  0.60411928305E+02 -0.78194638083E+02  0.10596529135E+03  0.00000000000E+00 0.  1.
          4    1    6    6  503    0 -0.25190847551E+02 -0.26372527043E+03  0.61926026382E+03  0.67354945729E+03  0.00000000000E+00 0. -1.
         -4    1    6    6    0  503  0.29650554288E+02 -0.71640372959E+02  0.11602527400E+03  0.13954699070E+03  0.00000000000E+00 0.  1.
<mgrwt>
<rscale>  0 0.20596502E+04</rscale>
<asrwt>0</asrwt>
<pdfrwt beam="1">  1        1 0.18718326E+00 0.20596502E+04</pdfrwt>
<pdfrwt beam="2">  1       -1 0.13410137E+00 0.20596502E+04</pdfrwt>
<totfact> 0.44935989E+00</totfact>
</mgrwt>
</event>
<event>
12    2  0.3561489E-008  0.1195274E+04  0.7818608E-02  0.9117003E-01
          1   -1    0    0  501    0  0.00000000000E+00  0.00000000000E+00  0.11194698084E+04  0.11194698084E+04  0.00000000000E+00 0. -1.
         -1   -1    0    0    0  501 -0.00000000000E+00 -0.00000000000E+00 -0.31905288946E+03  0.31905288946E+03  0.00000000000E+00 0.  1.
         23    2    1    2    0    0 -0.15922183421E+03  0.17390904392E+03  0.28776343743E+03  0.38316779226E+03  0.91726839388E+02 0.  0.
        254    2    1    2    0    0  0.15922183421E+03 -0.17390904392E+03  0.51265348154E+03  0.10553549056E+04  0.89183206752E+03 0.  0.
         23    2    4    4    0    0  0.13769859273E+03 -0.90957067890E+02  0.75722413443E+03  0.78073341453E+03  0.94457313996E+02 0.  0.
         23    2    4    4    0    0  0.21523241475E+02 -0.82951976027E+02 -0.24457065289E+03  0.27462149109E+03  0.90872871998E+02 0.  0.
          1    1    3    3  502    0 -0.13599186458E+03  0.15736567910E+03  0.28725430209E+03  0.35464458019E+03  0.00000000000E+00 0. -1.
         -1    1    3    3    0  502 -0.23229969624E+02  0.16543364817E+02  0.50913534084E+00  0.28523212073E+02  0.00000000000E+00 0.  1.
         11    1    5    5    0    0  0.12699444534E+03 -0.99913385676E+02  0.55543061911E+03  0.57845781733E+03  0.00000000000E+00 0. -1.
        -11    1    5    5    0    0  0.10704147397E+02  0.89563177857E+01  0.20179351532E+03  0.20227559721E+03  0.00000000000E+00 0.  1.
          1    1    6    6  503    0 -0.21101237579E+02 -0.78082408909E+02 -0.17663966106E+03  0.19427736530E+03  0.00000000000E+00 0. -1.
         -1    1    6    6    0  503  0.42624479054E+02 -0.48695671173E+01 -0.67930991825E+02  0.80344125789E+02  0.00000000000E+00 0.  1.
<mgrwt>
<rscale>  0 0.11952742E+04</rscale>
<asrwt>0</asrwt>
<pdfrwt beam="1">  1        1 0.17222612E+00 0.11952742E+04</pdfrwt>
<pdfrwt beam="2">  1       -1 0.49085061E-01 0.11952742E+04</pdfrwt>
<totfact> 0.50441726E+01</totfact>
</mgrwt>
</event>
<event>
12    2  0.3561489E-008  0.1064709E+04  0.7818608E-02  0.9240289E-01
         -1   -1    0    0    0  501 -0.00000000000E+00  0.00000000000E+00  0.12805192782E+03  0.12805192782E+03  0.00000000000E+00 0.  1.
          1   -1    0    0  501    0  0.00000000000E+00 -0.00000000000E+00 -0.22131731474E+04  0.22131731474E+04  0.00000000000E+00 0. -1.
         23    2    1    2    0    0 -0.50800608930E+02 -0.73567942608E+01 -0.49048661192E+03  0.50010396081E+03  0.83018256161E+02 0.  0.
        254    2    1    2    0    0  0.50800608930E+02  0.73567942608E+01 -0.15946346077E+04  0.18411211145E+04  0.91882131108E+03 0.  0.
         23    2    4    4    0    0 -0.27013301996E+03  0.21574861110E+03 -0.24016766322E+03  0.43067839480E+03  0.91016820589E+02 0.  0.
         23    2    4    4    0    0  0.32093362889E+03 -0.20839181684E+03 -0.13544669445E+04  0.14104427197E+04  0.91336839391E+02 0.  0.
          4    1    3    3  502    0 -0.52093916947E+02 -0.37908444788E+02 -0.38179356312E+03  0.38719136252E+03  0.00000000000E+00 0. -1.
         -4    1    3    3    0  502  0.12933080172E+01  0.30551650527E+02 -0.10869304880E+03  0.11291259829E+03  0.00000000000E+00 0.  1.
         11    1    5    5    0    0 -0.44920177721E+02  0.76558463341E+02 -0.89510496921E+02  0.12606010366E+03  0.00000000000E+00 0.  1.
        -11    1    5    5    0    0 -0.22521284224E+03  0.13919014776E+03 -0.15065716630E+03  0.30461829114E+03  0.00000000000E+00 0. -1.
          3    1    6    6  503    0  0.71310403792E+02 -0.93146437267E+02 -0.35721175628E+03  0.37598094538E+03  0.00000000000E+00 0. -1.
         -3    1    6    6    0  503  0.24962322510E+03 -0.11524537957E+03 -0.99725518820E+03  0.10344617743E+04  0.00000000000E+00 0.  1.
<mgrwt>
<rscale>  0 0.10647086E+04</rscale>
<asrwt>0</asrwt>
<pdfrwt beam="1">  1        1 0.34048816E+00 0.10647086E+04</pdfrwt>
<pdfrwt beam="2">  1       -1 0.19700297E-01 0.10647086E+04</pdfrwt>
<totfact> 0.44974986E+01</totfact>
</mgrwt>
</event>
<event>
12    2  0.3561489E-008  0.1666208E+04  0.7818608E-02  0.8780875E-01
         -1   -1    0    0    0  501 -0.00000000000E+00  0.00000000000E+00  0.70527242176E+03  0.70527242176E+03  0.00000000000E+00 0. -1.
          1   -1    0    0  501    0  0.00000000000E+00 -0.00000000000E+00 -0.98410540577E+03  0.98410540577E+03  0.00000000000E+00 0.  1.
         23    2    1    2    0    0  0.37176524165E+03  0.41932502433E+03 -0.26199348765E+03  0.62650128189E+03  0.99097919821E+02 0.  0.
        254    2    1    2    0    0 -0.37176524165E+03 -0.41932502433E+03 -0.16839496358E+02  0.10628765456E+04  0.90298400413E+03 0.  0.
         23    2    4    4    0    0 -0.79506494895E+02  0.10533776611E+03 -0.33820119802E+03  0.37461249123E+03  0.92396647908E+02 0.  0.
         23    2    4    4    0    0 -0.29225874675E+03 -0.52466279044E+03  0.32136170167E+03  0.68826405441E+03  0.98731183369E+02 0.  0.
          3    1    3    3  502    0  0.21808577471E+03  0.27141793804E+03 -0.11200519217E+03  0.36575164428E+03  0.00000000000E+00 0. -1.
         -3    1    3    3    0  502  0.15367946694E+03  0.14790708629E+03 -0.14998829548E+03  0.26074963761E+03  0.00000000000E+00 0.  1.
         11    1    5    5    0    0 -0.31471095799E+02  0.10565917307E+03 -0.26544639283E+03  0.28743012749E+03  0.00000000000E+00 0. -1.
        -11    1    5    5    0    0 -0.48035399096E+02 -0.32140695853E+00 -0.72754805193E+02  0.87182363741E+02  0.00000000000E+00 0.  1.
          3    1    6    6  503    0 -0.18084243526E+03 -0.41284107570E+03  0.23350902429E+03  0.50761028812E+03  0.00000000000E+00 0. -1.
         -3    1    6    6    0  503 -0.11141631149E+03 -0.11182171473E+03  0.87852677378E+02  0.18065376629E+03  0.00000000000E+00 0.  1.
<mgrwt>
<rscale>  0 0.16662082E+04</rscale>
<asrwt>0</asrwt>
<pdfrwt beam="1">  1        1 0.15140083E+00 0.16662082E+04</pdfrwt>
<pdfrwt beam="2">  1       -1 0.10850345E+00 0.16662082E+04</pdfrwt>
<totfact> 0.11717090E+01</totfact>
</mgrwt>
</event>
<event>
12    2  0.3561489E-008  0.2467716E+04  0.7818608E-02  0.8414578E-01
         -2   -1    0    0    0  501 -0.00000000000E+00  0.00000000000E+00  0.10224857963E+04  0.10224857963E+04  0.00000000000E+00 0.  1.
          2   -1    0    0  501    0  0.00000000000E+00 -0.00000000000E+00 -0.14889258377E+04  0.14889258377E+04  0.00000000000E+00 0. -1.
         23    2    1    2    0    0  0.74508188160E+03  0.75760705192E+03 -0.27789216272E+03  0.11021408999E+04  0.91515320127E+02 0.  0.
        254    2    1    2    0    0 -0.74508188160E+03 -0.75760705192E+03 -0.18854787864E+03  0.14092707341E+04  0.90629920220E+03 0.  0.
         23    2    4    4    0    0 -0.56790377617E+03 -0.81764234121E+03 -0.43189207961E+03  0.10889559614E+04  0.90777862932E+02 0.  0.
         23    2    4    4    0    0 -0.17717810543E+03  0.60035289292E+02  0.24334420098E+03  0.32031477261E+03  0.91590591205E+02 0.  0.
          3    1    3    3  502    0  0.43397842357E+03  0.39027390688E+03 -0.12310410406E+03  0.59649443832E+03  0.00000000000E+00 0. -1.
         -3    1    3    3    0  502  0.31110345803E+03  0.36733314504E+03 -0.15478805866E+03  0.50564646162E+03  0.00000000000E+00 0.  1.
         11    1    5    5    0    0 -0.41009017934E+03 -0.64944849538E+03 -0.31223283602E+03  0.82912402403E+03  0.00000000000E+00 0. -1.
        -11    1    5    5    0    0 -0.15781359683E+03 -0.16819384583E+03 -0.11965924359E+03  0.25983193741E+03  0.00000000000E+00 0.  1.
          3    1    6    6  503    0 -0.74686713764E+02  0.73432211494E+02  0.12928053303E+03  0.16638464808E+03  0.00000000000E+00 0. -1.
         -3    1    6    6    0  503 -0.10249139167E+03 -0.13396922202E+02  0.11406366795E+03  0.15393012453E+03  0.00000000000E+00 0.  1.
<mgrwt>
<rscale>  0 0.24677160E+04</rscale>
<asrwt>0</asrwt>
<pdfrwt beam="1">  1        2 0.22906551E+00 0.24677160E+04</pdfrwt>
<pdfrwt beam="2">  1       -2 0.15730551E+00 0.24677160E+04</pdfrwt>
<totfact> 0.30383890E+00</totfact>
</mgrwt>
</event>
<event>
12    2  0.3561489E-008  0.2329852E+04  0.7818608E-02  0.8466243E-01
          2   -1    0    0  501    0  0.00000000000E+00  0.00000000000E+00  0.15713752183E+04  0.15713752183E+04  0.00000000000E+00 0. -1.
         -2   -1    0    0    0  501 -0.00000000000E+00 -0.00000000000E+00 -0.86360816476E+03  0.86360816476E+03  0.00000000000E+00 0.  1.
         23    2    1    2    0    0 -0.74664359914E+03  0.31749707340E+03 -0.29437697374E+03  0.86804494640E+03  0.92537400853E+02 0.  0.
        254    2    1    2    0    0  0.74664359914E+03 -0.31749707340E+03  0.10021440273E+04  0.15669384366E+04  0.89034957017E+03 0.  0.
         23    2    4    4    0    0 -0.15576829011E+03 -0.21910327726E+03  0.31856739114E+03  0.42692205930E+03  0.92234785751E+02 0.  0.
         23    2    4    4    0    0  0.90241188925E+03 -0.98393796132E+02  0.68357663611E+03  0.11400163773E+04  0.91278508901E+02 0.  0.
          4    1    3    3  502    0 -0.15000330646E+03  0.39579078944E+02 -0.26289095249E+02  0.15734869547E+03  0.00000000000E+00 0. -1.
         -4    1    3    3    0  502 -0.59664029268E+03  0.27791799445E+03 -0.26808787849E+03  0.71069625093E+03  0.00000000000E+00 0.  1.
         11    1    5    5    0    0 -0.71975236971E+02 -0.17511120451E+03  0.22071151727E+03  0.29078848419E+03  0.00000000000E+00 0. -1.
        -11    1    5    5    0    0 -0.83793053141E+02 -0.43992072754E+02  0.97855873870E+02  0.13613357510E+03  0.00000000000E+00 0.  1.
          2    1    6    6  503    0  0.25597258088E+03 -0.35568874474E+02  0.24663473980E+03  0.35723353968E+03  0.00000000000E+00 0.  1.
         -2    1    6    6    0  503  0.64643930837E+03 -0.62824921659E+02  0.43694189631E+03  0.78278283766E+03  0.00000000000E+00 0. -1.
<mgrwt>
<rscale>  0 0.23298519E+04</rscale>
<asrwt>0</asrwt>
<pdfrwt beam="1">  1        2 0.24175003E+00 0.23298519E+04</pdfrwt>
<pdfrwt beam="2">  1       -2 0.13286280E+00 0.23298519E+04</pdfrwt>
<totfact> 0.43011640E+00</totfact>
</mgrwt>
</event>
<event>
12    2  0.3561489E-008  0.1357238E+04  0.7818608E-02  0.8985367E-01
          2   -1    0    0  501    0  0.00000000000E+00  0.00000000000E+00  0.94128913961E+03  0.94128913961E+03  0.00000000000E+00 0. -1.
         -2   -1    0    0    0  501 -0.00000000000E+00 -0.00000000000E+00 -0.48924777627E+03  0.48924777627E+03  0.00000000000E+00 0.  1.
         23    2    1    2    0    0 -0.67968165369E+02 -0.25234611854E+03 -0.80623195474E+02  0.28837315979E+03  0.91437107311E+02 0.  0.
        254    2    1    2    0    0  0.67968165369E+02  0.25234611854E+03  0.53266455881E+03  0.11421637561E+04  0.97596530596E+03 0.  0.
         23    2    4    4    0    0  0.12440305506E+03  0.26727489393E+03  0.79786287031E+03  0.85511879976E+03  0.87926178410E+02 0.  0.
         23    2    4    4    0    0 -0.56434889687E+02 -0.14928775388E+02 -0.26519831150E+03  0.28704495632E+03  0.93042449558E+02 0.  0.
          4    1    3    3  502    0  0.66539387370E+01 -0.19231168952E+02 -0.33371440711E+02  0.39086644971E+02  0.00000000000E+00 0. -1.
         -4    1    3    3    0  502 -0.74622104106E+02 -0.23311494959E+03 -0.47251754763E+02  0.24928651482E+03  0.00000000000E+00 0.  1.
         11    1    5    5    0    0  0.13028311011E+03  0.19357424780E+03  0.62336768228E+03  0.66560644941E+03  0.00000000000E+00 0. -1.
        -11    1    5    5    0    0 -0.58800550534E+01  0.73700646134E+02  0.17449518803E+03  0.18951235035E+03  0.00000000000E+00 0.  1.
          2    1    6    6  503    0 -0.24422392698E+02 -0.15804408812E+02 -0.24984051632E+03  0.25152836062E+03  0.00000000000E+00 0. -1.
         -2    1    6    6    0  503 -0.32012496990E+02  0.87563342454E+00 -0.15357795182E+02  0.35516595702E+02  0.00000000000E+00 0.  1.
<mgrwt>
<rscale>  0 0.13572378E+04</rscale>
<asrwt>0</asrwt>
<pdfrwt beam="1">  1        2 0.14481371E+00 0.13572378E+04</pdfrwt>
<pdfrwt beam="2">  1       -2 0.75268889E-01 0.13572378E+04</pdfrwt>
<totfact> 0.42563143E+01</totfact>
</mgrwt>
</event>
<event>
12    2  0.3561489E-008  0.2046743E+04  0.7818608E-02  0.8585073E-01
         -1   -1    0    0    0  501 -0.00000000000E+00  0.00000000000E+00  0.22313730010E+04  0.22313730010E+04  0.00000000000E+00 0.  1.
          1   -1    0    0  501    0  0.00000000000E+00 -0.00000000000E+00 -0.46934733101E+03  0.46934733101E+03  0.00000000000E+00 0. -1.
         23    2    1    2    0    0  0.41419903462E+02 -0.12551941513E+03 -0.35873749002E+03  0.39205944079E+03  0.86875119479E+02 0.  0.
        254    2    1    2    0    0 -0.41419903462E+02  0.12551941513E+03  0.21207631601E+04  0.23086608913E+04  0.90266715783E+03 0.  0.
         23    2    4    4    0    0 -0.29168434723E+03  0.32233095626E+03  0.17754057984E+04  0.18307360784E+04  0.10272213017E+03 0.  0.
         23    2    4    4    0    0  0.25026444376E+03 -0.19681154112E+03  0.34535736169E+03  0.47792481289E+03  0.88166575115E+02 0.  0.
          3    1    3    3  502    0  0.63329929370E+02 -0.63068175467E+02 -0.24032213138E+03  0.25640398113E+03  0.00000000000E+00 0. -1.
         -3    1    3    3    0  502 -0.21910025908E+02 -0.62451239665E+02 -0.11841535865E+03  0.13565545965E+03  0.00000000000E+00 0.  1.
         11    1    5    5    0    0 -0.28122075589E+03  0.26398148183E+03  0.15883720189E+04  0.16345326570E+04  0.00000000000E+00 0. -1.
        -11    1    5    5    0    0 -0.10463591339E+02  0.58349474420E+02  0.18703377946E+03  0.19620342140E+03  0.00000000000E+00 0.  1.
          3    1    6    6  503    0  0.21861234973E+03 -0.20021971778E+03  0.32616210880E+03  0.44075051453E+03  0.00000000000E+00 0. -1.
         -3    1    6    6    0  503  0.31652094034E+02  0.34081766519E+01  0.19195252885E+02  0.37174298354E+02  0.00000000000E+00 0.  1.
<mgrwt>
<rscale>  0 0.20467427E+04</rscale>
<asrwt>0</asrwt>
<pdfrwt beam="1">  1        1 0.72207283E-01 0.20467427E+04</pdfrwt>
<pdfrwt beam="2">  1       -1 0.34328815E+00 0.20467427E+04</pdfrwt>
<totfact> 0.76988730E-01</totfact>
</mgrwt>
</event>
<event>
12    2  0.3561489E-008  0.1442709E+04  0.7818608E-02  0.8923471E-01
          1   -1    0    0  501    0  0.00000000000E+00  0.00000000000E+00  0.14485660521E+04  0.14485660521E+04  0.00000000000E+00 0. -1.
         -1   -1    0    0    0  501 -0.00000000000E+00 -0.00000000000E+00 -0.35921886036E+03  0.35921886036E+03  0.00000000000E+00 0.  1.
         23    2    1    2    0    0  0.12245910669E+03 -0.35918594622E+03  0.61133047457E+03  0.72519590089E+03  0.90406685405E+02 0.  0.
        254    2    1    2    0    0 -0.12245910669E+03  0.35918594622E+03  0.47801671713E+03  0.10825890115E+04  0.89414104550E+03 0.  0.
         23    2    4    4    0    0 -0.43973297457E+03  0.29712897845E+03  0.53356030780E+02  0.54098818055E+03  0.90391519027E+02 0.  0.
         23    2    4    4    0    0  0.31727386788E+03  0.62056967771E+02  0.42466068635E+03  0.54160083098E+03  0.92092274919E+02 0.  0.
          2    1    3    3  502    0  0.12586656851E+03 -0.34032010188E+03  0.53461851527E+03  0.64612469515E+03  0.00000000000E+00 0. -1.
         -2    1    3    3    0  502 -0.34074618209E+01 -0.18865844340E+02  0.76711959297E+02  0.79071205745E+02  0.00000000000E+00 0.  1.
         11    1    5    5    0    0 -0.43014815479E+03  0.27429835153E+03  0.63755334837E+02  0.51413204865E+03  0.00000000000E+00 0.  1.
        -11    1    5    5    0    0 -0.95848197747E+01  0.22830626925E+02 -0.10399304057E+02  0.26856131903E+02  0.00000000000E+00 0. -1.
          4    1    6    6  503    0  0.21698347110E+03  0.29854881136E+02  0.34851780701E+03  0.41162823331E+03  0.00000000000E+00 0. -1.
         -4    1    6    6    0  503  0.10029039678E+03  0.32202086635E+02  0.76142879338E+02  0.12997259767E+03  0.00000000000E+00 0.  1.
<mgrwt>
<rscale>  0 0.14427089E+04</rscale>
<asrwt>0</asrwt>
<pdfrwt beam="1">  1        1 0.22285631E+00 0.14427089E+04</pdfrwt>
<pdfrwt beam="2">  1       -1 0.55264441E-01 0.14427089E+04</pdfrwt>
<totfact> 0.22849058E+01</totfact>
</mgrwt>
</event>
<event>
12    2  0.3561489E-008  0.2076727E+04  0.7818608E-02  0.8571565E-01
          2   -1    0    0  501    0  0.00000000000E+00  0.00000000000E+00  0.16995449565E+04  0.16995449565E+04  0.00000000000E+00 0. -1.
         -2   -1    0    0    0  501 -0.00000000000E+00 -0.00000000000E+00 -0.63440428363E+03  0.63440428363E+03  0.00000000000E+00 0.  1.
         23    2    1    2    0    0  0.13947200843E+03  0.81992412472E+03  0.57342085604E+03  0.10142385758E+04  0.90224160554E+02 0.  0.
        254    2    1    2    0    0 -0.13947200843E+03 -0.81992412472E+03  0.49171981688E+03  0.13197106643E+04  0.89895486419E+03 0.  0.
         23    2    4    4    0    0 -0.15485315657E+03 -0.68657608176E+03  0.73856513981E+03  0.10242275601E+04  0.90539565689E+02 0.  0.
         23    2    4    4    0    0  0.15381148138E+02 -0.13334804296E+03 -0.24684532294E+03  0.29548310426E+03  0.91429596769E+02 0.  0.
          1    1    3    3  502    0  0.12542623250E+03  0.55371619114E+03  0.35490050382E+03  0.66954292450E+03  0.00000000000E+00 0. -1.
         -1    1    3    3    0  502  0.14045775939E+02  0.26620793357E+03  0.21852035222E+03  0.34469565134E+03  0.00000000000E+00 0.  1.
         11    1    5    5    0    0 -0.29587770283E+02 -0.25511444188E+03  0.31866247742E+03  0.40927324506E+03  0.00000000000E+00 0.  1.
        -11    1    5    5    0    0 -0.12526538629E+03 -0.43146163987E+03  0.41990266239E+03  0.61495431503E+03  0.00000000000E+00 0. -1.
          1    1    6    6  503    0  0.34298357103E+02 -0.70916524259E+02 -0.20061806198E+03  0.21552989933E+03  0.00000000000E+00 0. -1.
         -1    1    6    6    0  503 -0.18917208965E+02 -0.62431518701E+02 -0.46227260960E+02  0.79953204928E+02  0.00000000000E+00 0.  1.
<mgrwt>
<rscale>  0 0.20767268E+04</rscale>
<asrwt>0</asrwt>
<pdfrwt beam="1">  1        2 0.26146845E+00 0.20767268E+04</pdfrwt>
<pdfrwt beam="2">  1       -2 0.97600660E-01 0.20767268E+04</pdfrwt>
<totfact> 0.79256652E+00</totfact>
</mgrwt>
</event>
<event>
12    2  0.3561489E-008  0.1468807E+04  0.7818608E-02  0.8905465E-01
          1   -1    0    0  501    0  0.00000000000E+00  0.00000000000E+00  0.10767532087E+04  0.10767532087E+04  0.00000000000E+00 0. -1.
         -1   -1    0    0    0  501 -0.00000000000E+00 -0.00000000000E+00 -0.50090270500E+03  0.50090270500E+03  0.00000000000E+00 0.  1.
         23    2    1    2    0    0 -0.44070110161E+02 -0.42998042312E+03  0.17291502693E+03  0.47436968549E+03  0.91113407863E+02 0.  0.
        254    2    1    2    0    0  0.44070110161E+02  0.42998042312E+03  0.40293547676E+03  0.11032862282E+04  0.93169639049E+03 0.  0.
         23    2    4    4    0    0  0.44928026450E+03  0.80719942268E+02  0.29012961930E+03  0.54832702716E+03  0.90104758915E+02 0.  0.
         23    2    4    4    0    0 -0.40521015433E+03  0.34926048085E+03  0.11280585747E+03  0.55495920105E+03  0.95270145836E+02 0.  0.
          2    1    3    3  502    0 -0.10157235401E+02 -0.82190256931E+02  0.74353072870E+02  0.11129594427E+03  0.00000000000E+00 0. -1.
         -2    1    3    3    0  502 -0.33912874760E+02 -0.34779016619E+03  0.98561954057E+02  0.36307374122E+03  0.00000000000E+00 0.  1.
         11    1    5    5    0    0  0.43049160037E+03  0.76566411051E+02  0.24962952132E+03  0.50348816391E+03  0.00000000000E+00 0. -1.
        -11    1    5    5    0    0  0.18788664129E+02  0.41535312178E+01  0.40500097977E+02  0.44838863249E+02  0.00000000000E+00 0.  1.
          4    1    6    6  503    0 -0.40983770029E+03  0.33845232445E+03  0.11184256774E+03  0.54316266115E+03  0.00000000000E+00 0. -1.
         -4    1    6    6    0  503  0.46275459605E+01  0.10808156406E+02  0.96328972640E+00  0.11796539900E+02  0.00000000000E+00 0.  1.
<mgrwt>
<rscale>  0 0.14688071E+04</rscale>
<asrwt>0</asrwt>
<pdfrwt beam="1">  1        1 0.16565434E+00 0.14688071E+04</pdfrwt>
<pdfrwt beam="2">  1       -1 0.77061955E-01 0.14688071E+04</pdfrwt>
<totfact> 0.21626948E+01</totfact>
</mgrwt>
</event>
<event>
12    2  0.3561489E-008  0.1589385E+04  0.7818608E-02  0.8827096E-01
          2   -1    0    0  501    0  0.00000000000E+00  0.00000000000E+00  0.17474608745E+04  0.17474608745E+04  0.00000000000E+00 0.  1.
         -2   -1    0    0    0  501 -0.00000000000E+00 -0.00000000000E+00 -0.36140217639E+03  0.36140217639E+03  0.00000000000E+00 0. -1.
         23    2    1    2    0    0  0.49416475029E+02 -0.25836091603E+03  0.11805500058E+04  0.12126731491E+04  0.87666980500E+02 0.  0.
        254    2    1    2    0    0 -0.49416475029E+02  0.25836091603E+03  0.20550869234E+03  0.89618990180E+03  0.83170317212E+03 0.  0.
         23    2    4    4    0    0  0.30174665093E+03 -0.61876739777E+02  0.25397894081E+03  0.40923158577E+03  0.89918942111E+02 0.  0.
         23    2    4    4    0    0 -0.35116312596E+03  0.32023765581E+03 -0.48470248462E+02  0.48695831602E+03  0.94399890528E+02 0.  0.
          3    1    3    3  502    0  0.43577687231E+02 -0.41415364694E+02  0.24133225643E+03  0.24870767027E+03  0.00000000000E+00 0. -1.
         -3    1    3    3    0  502  0.58387877974E+01 -0.21694555133E+03  0.93921774937E+03  0.96396547885E+03  0.00000000000E+00 0.  1.
         11    1    5    5    0    0  0.21481386562E+03 -0.84127226302E+02  0.19239750657E+03  0.30039838149E+03  0.00000000000E+00 0. -1.
        -11    1    5    5    0    0  0.86932785307E+02  0.22250486525E+02  0.61581434240E+02  0.10883320428E+03  0.00000000000E+00 0.  1.
          1    1    6    6  503    0 -0.30069510210E+03  0.31003700246E+03 -0.32842092432E+02  0.43315019376E+03  0.00000000000E+00 0. -1.
         -1    1    6    6    0  503 -0.50468023852E+02  0.10200653348E+02 -0.15628156030E+02  0.53808122260E+02  0.00000000000E+00 0.  1.
<mgrwt>
<rscale>  0 0.15893850E+04</rscale>
<asrwt>0</asrwt>
<pdfrwt beam="1">  1        2 0.26884013E+00 0.15893850E+04</pdfrwt>
<pdfrwt beam="2">  1       -2 0.55600336E-01 0.15893850E+04</pdfrwt>
<totfact> 0.26916811E+01</totfact>
</mgrwt>
</event>
<event>
12    2  0.3561489E-008  0.1847008E+04  0.7818608E-02  0.8681693E-01
          3   -1    0    0  501    0  0.00000000000E+00  0.00000000000E+00  0.16291420544E+04  0.16291420544E+04  0.00000000000E+00 0. -1.
         -3   -1    0    0    0  501 -0.00000000000E+00 -0.00000000000E+00 -0.52350243662E+03  0.52350243662E+03  0.00000000000E+00 0.  1.
         23    2    1    2    0    0  0.25611673327E+03  0.50454211552E+03  0.90342179840E+03  0.10698969841E+04  0.91378790604E+02 0.  0.
        254    2    1    2    0    0 -0.25611673327E+03 -0.50454211552E+03  0.20221781939E+03  0.10827475069E+04  0.90071726411E+03 0.  0.
         23    2    4    4    0    0 -0.58481039415E+02 -0.38662073541E+03  0.53425471104E+03  0.66843198114E+03  0.92073840570E+02 0.  0.
         23    2    4    4    0    0 -0.19763569386E+03 -0.11792138011E+03 -0.33203689165E+03  0.41431552579E+03  0.91888726823E+02 0.  0.
          4    1    3    3  502    0  0.16661681138E+03  0.29285899944E+03  0.61345369540E+03  0.69989498626E+03  0.00000000000E+00 0. -1.
         -4    1    3    3    0  502  0.89499921896E+02  0.21168311608E+03  0.28996810299E+03  0.37000199784E+03  0.00000000000E+00 0.  1.
         11    1    5    5    0    0 -0.28443756311E+02 -0.15623927312E+03  0.14463145660E+03  0.21479761632E+03  0.00000000000E+00 0. -1.
        -11    1    5    5    0    0 -0.30037283103E+02 -0.23038146229E+03  0.38962325444E+03  0.45363436482E+03  0.00000000000E+00 0.  1.
          1    1    6    6  503    0 -0.18756298228E+03 -0.74352885690E+02 -0.28723204261E+03  0.35101349010E+03  0.00000000000E+00 0. -1.
         -1    1    6    6    0  503 -0.10072711584E+02 -0.43568494417E+02 -0.44804849038E+02  0.63302035684E+02  0.00000000000E+00 0.  1.
<mgrwt>
<rscale>  0 0.18470082E+04</rscale>
<asrwt>0</asrwt>
<pdfrwt beam="1">  1        3 0.25063724E+00 0.18470082E+04</pdfrwt>
<pdfrwt beam="2">  1       -3 0.80538837E-01 0.18470082E+04</pdfrwt>
<totfact> 0.25832505E-01</totfact>
</mgrwt>
</event>
<event>
12    2  0.3561489E-008  0.2413494E+04  0.7818608E-02  0.8434469E-01
          2   -1    0    0  501    0  0.00000000000E+00  0.00000000000E+00  0.73959800863E+03  0.73959800863E+03  0.00000000000E+00 0. -1.
         -2   -1    0    0    0  501 -0.00000000000E+00 -0.00000000000E+00 -0.19689591726E+04  0.19689591726E+04  0.00000000000E+00 0.  1.
         23    2    1    2    0    0  0.62179998533E+03  0.47564814086E+03  0.22743963349E+03  0.82009884039E+03  0.89201712171E+02 0.  0.
        254    2    1    2    0    0 -0.62179998533E+03 -0.47564814086E+03 -0.14568007974E+04  0.18884583408E+04  0.91166329637E+03 0.  0.
         23    2    4    4    0    0 -0.76233623571E+03 -0.43323947313E+03 -0.73955505955E+03  0.11507852822E+04  0.92261055249E+02 0.  0.
         23    2    4    4    0    0  0.14053625038E+03 -0.42408667733E+02 -0.71724573788E+03  0.73767305860E+03  0.90394469453E+02 0.  0.
          3    1    3    3  502    0  0.55031084130E+03  0.45346134309E+03  0.20681780785E+03  0.74245728320E+03  0.00000000000E+00 0. -1.
         -3    1    3    3    0  502  0.71489144028E+02  0.22186797771E+02  0.20621825638E+02  0.77641557184E+02  0.00000000000E+00 0.  1.
         11    1    5    5    0    0 -0.43396275599E+03 -0.19385154117E+03 -0.39457973333E+03  0.61773397150E+03  0.00000000000E+00 0. -1.
        -11    1    5    5    0    0 -0.32837347972E+03 -0.23938793197E+03 -0.34497532622E+03  0.53305131072E+03  0.00000000000E+00 0.  1.
          3    1    6    6  503    0  0.10468598296E+03 -0.58402260292E+02 -0.63883269927E+03  0.64998245876E+03  0.00000000000E+00 0. -1.
         -3    1    6    6    0  503  0.35850267413E+02  0.15993592559E+02 -0.78413038608E+02  0.87690599840E+02  0.00000000000E+00 0.  1.
<mgrwt>
<rscale>  0 0.24134940E+04</rscale>
<asrwt>0</asrwt>
<pdfrwt beam="1">  1        2 0.11378431E+00 0.24134940E+04</pdfrwt>
<pdfrwt beam="2">  1       -2 0.30291679E+00 0.24134940E+04</pdfrwt>
<totfact> 0.10465157E+00</totfact>
</mgrwt>
</event>
<event>
12    2  0.3561489E-008  0.2989831E+04  0.7818608E-02  0.8246641E-01
         -2   -1    0    0    0  501 -0.00000000000E+00  0.00000000000E+00  0.20024672093E+04  0.20024672093E+04  0.00000000000E+00 0.  1.
          2   -1    0    0  501    0  0.00000000000E+00 -0.00000000000E+00 -0.11160093788E+04  0.11160093788E+04  0.00000000000E+00 0. -1.
         23    2    1    2    0    0  0.32198203240E+03 -0.78916198646E+02 -0.96708746771E+03  0.10265172448E+04  0.92624446705E+02 0.  0.
        254    2    1    2    0    0 -0.32198203240E+03  0.78916198646E+02  0.18535452983E+04  0.20919593433E+04  0.91146230074E+03 0.  0.
         23    2    4    4    0    0  0.81974724751E+01 -0.30742933366E+03  0.12797471742E+04  0.13193960413E+04  0.92049390134E+02 0.  0.
         23    2    4    4    0    0 -0.33017950487E+03  0.38634553231E+03  0.57379812408E+03  0.77256330199E+03  0.96583604241E+02 0.  0.
          2    1    3    3  502    0  0.29967776915E+02 -0.26782037119E+02 -0.20156833436E+03  0.20553622207E+03  0.00000000000E+00 0. -1.
         -2    1    3    3    0  502  0.29201425548E+03 -0.52134161527E+02 -0.76551913336E+03  0.82098102276E+03  0.00000000000E+00 0.  1.
         11    1    5    5    0    0  0.40099427539E+02 -0.69619339914E+02  0.28372697244E+03  0.29488270799E+03  0.00000000000E+00 0.  1.
        -11    1    5    5    0    0 -0.31901955064E+02 -0.23780999375E+03  0.99602020175E+03  0.10245133333E+04  0.00000000000E+00 0. -1.
          1    1    6    6  503    0 -0.54495049959E+02  0.21653416777E+02  0.85279131671E+02  0.10349449853E+03  0.00000000000E+00 0. -1.
         -1    1    6    6    0  503 -0.27568445491E+03  0.36469211553E+03  0.48851899241E+03  0.66906880345E+03  0.00000000000E+00 0.  1.
<mgrwt>
<rscale>  0 0.29898309E+04</rscale>
<asrwt>0</asrwt>
<pdfrwt beam="1">  1        2 0.17169375E+00 0.29898309E+04</pdfrwt>
<pdfrwt beam="2">  1       -2 0.30807188E+00 0.29898309E+04</pdfrwt>
<totfact> 0.51737828E-01</totfact>
</mgrwt>
</event>
<event>
12    2  0.3561489E-008  0.3864071E+04  0.7818608E-02  0.8032544E-01
         -2   -1    0    0    0  501 -0.00000000000E+00  0.00000000000E+00  0.78372849030E+03  0.78372849030E+03  0.00000000000E+00 0.  1.
          2   -1    0    0  501    0  0.00000000000E+00 -0.00000000000E+00 -0.47628242545E+04  0.47628242545E+04  0.00000000000E+00 0. -1.
         23    2    1    2    0    0 -0.17228799479E+04 -0.39537869992E+03 -0.25131414453E+04  0.30738239530E+04  0.88736345332E+02 0.  0.
        254    2    1    2    0    0  0.17228799479E+04  0.39537869992E+03 -0.14659543189E+04  0.24727287918E+04  0.91691110881E+03 0.  0.
         23    2    4    4    0    0  0.37057437105E+03  0.33163185413E+03 -0.44712620088E+02  0.50783887931E+03  0.92714927561E+02 0.  0.
         23    2    4    4    0    0  0.13523055768E+04  0.63746845785E+02 -0.14212416988E+04  0.19648899125E+04  0.89835228133E+02 0.  0.
          1    1    3    3  502    0 -0.15409672815E+04 -0.38083412019E+03 -0.22621347433E+04  0.27634884452E+04  0.00000000000E+00 0. -1.
         -1    1    3    3    0  502 -0.18191266635E+03 -0.14544579726E+02 -0.25100670197E+03  0.31033550782E+03  0.00000000000E+00 0.  1.
         11    1    5    5    0    0  0.28718214551E+03  0.25230959332E+03  0.53932894897E+01  0.38231244179E+03  0.00000000000E+00 0. -1.
        -11    1    5    5    0    0  0.83392225536E+02  0.79322260815E+02 -0.50105909578E+02  0.12552643752E+03  0.00000000000E+00 0.  1.
          3    1    6    6  503    0  0.78180260025E+03  0.81168485278E+02 -0.82722249979E+03  0.11410962680E+04  0.00000000000E+00 0. -1.
         -3    1    6    6    0  503  0.57050297657E+03 -0.17421639493E+02 -0.59401919902E+03  0.82379364443E+03  0.00000000000E+00 0.  1.
<mgrwt>
<rscale>  0 0.38640709E+04</rscale>
<asrwt>0</asrwt>
<pdfrwt beam="1">  1        2 0.73274216E+00 0.38640709E+04</pdfrwt>
<pdfrwt beam="2">  1       -2 0.12057362E+00 0.38640709E+04</pdfrwt>
<totfact> 0.27184140E-02</totfact>
</mgrwt>
</event>
<event>
12    2  0.3561489E-008  0.1388607E+04  0.7818608E-02  0.8962107E-01
         -2   -1    0    0    0  501 -0.00000000000E+00  0.00000000000E+00  0.80079303530E+03  0.80079303530E+03  0.00000000000E+00 0.  1.
          2   -1    0    0  501    0  0.00000000000E+00 -0.00000000000E+00 -0.60197504613E+03  0.60197504613E+03  0.00000000000E+00 0. -1.
         23    2    1    2    0    0 -0.18912667106E+03  0.34431873569E+03  0.84302606232E+02  0.41210589923E+03  0.91651804748E+02 0.  0.
        254    2    1    2    0    0  0.18912667106E+03 -0.34431873569E+03  0.11451538294E+03  0.99066218220E+03  0.90220479763E+03 0.  0.
         23    2    4    4    0    0 -0.25182900650E+03  0.11272113227E+03 -0.11023736964E+03  0.31090237670E+03  0.91564774892E+02 0.  0.
         23    2    4    4    0    0  0.44095567755E+03 -0.45703986796E+03  0.22475275258E+03  0.67975980550E+03  0.90731708417E+02 0.  0.
          4    1    3    3  502    0 -0.90039587527E+02  0.16094187688E+03 -0.70027684002E+01  0.18454932625E+03  0.00000000000E+00 0. -1.
         -4    1    3    3    0  502 -0.99087083529E+02  0.18337685881E+03  0.91305374632E+02  0.22755657298E+03  0.00000000000E+00 0.  1.
         11    1    5    5    0    0 -0.24493579559E+03  0.91693007490E+02 -0.80127636735E+02  0.27353535376E+03  0.00000000000E+00 0.  1.
        -11    1    5    5    0    0 -0.68932109033E+01  0.21028124778E+02 -0.30109732906E+02  0.37367022947E+02  0.00000000000E+00 0. -1.
          1    1    6    6  503    0  0.29504836598E+03 -0.31818998350E+03  0.19657655601E+03  0.47638298274E+03  0.00000000000E+00 0. -1.
         -1    1    6    6    0  503  0.14590731157E+03 -0.13884988446E+03  0.28176196566E+02  0.20337682276E+03  0.00000000000E+00 0.  1.
<mgrwt>
<rscale>  0 0.13886071E+04</rscale>
<asrwt>0</asrwt>
<pdfrwt beam="1">  1        2 0.92611545E-01 0.13886071E+04</pdfrwt>
<pdfrwt beam="2">  1       -2 0.12319893E+00 0.13886071E+04</pdfrwt>
<totfact> 0.23921254E+01</totfact>
</mgrwt>
</event>
<event>
12    2  0.3561489E-008  0.1231406E+04  0.7818608E-02  0.9085803E-01
         -2   -1    0    0    0  501 -0.00000000000E+00  0.00000000000E+00  0.20370869857E+03  0.20370869857E+03  0.00000000000E+00 0.  1.
          2   -1    0    0  501    0  0.00000000000E+00 -0.00000000000E+00 -0.18609414515E+04  0.18609414515E+04  0.00000000000E+00 0. -1.
         23    2    1    2    0    0  0.88222663993E+01 -0.29149913953E+03 -0.41955011989E+03  0.52398068584E+03  0.11612009001E+03 0.  0.
        254    2    1    2    0    0 -0.88222663993E+01  0.29149913953E+03 -0.12376826331E+04  0.15406694643E+04  0.86991638517E+03 0.  0.
         23    2    4    4    0    0  0.29269947208E+03 -0.14001647600E+03 -0.25363455565E+03  0.42093982427E+03  0.87076135233E+02 0.  0.
         23    2    4    4    0    0 -0.30152173848E+03  0.43151561554E+03 -0.98404807744E+03  0.11197296400E+04  0.91229177297E+02 0.  0.
          2    1    3    3  502    0  0.24093739183E+02 -0.26208537390E+03 -0.29611335417E+03  0.39617214692E+03  0.00000000000E+00 0.  1.
         -2    1    3    3    0  502 -0.15271472783E+02 -0.29413765638E+02 -0.12343676572E+03  0.12780853892E+03  0.00000000000E+00 0. -1.
         11    1    5    5    0    0  0.13546768692E+03 -0.27765351906E+02 -0.72596121990E+02  0.15618132377E+03  0.00000000000E+00 0. -1.
        -11    1    5    5    0    0  0.15723178516E+03 -0.11225112410E+03 -0.18103843366E+03  0.26475850050E+03  0.00000000000E+00 0.  1.
          2    1    6    6  503    0 -0.15636032282E+03  0.16073681595E+03 -0.47246366734E+03  0.52297876775E+03  0.00000000000E+00 0. -1.
         -2    1    6    6    0  503 -0.14516141566E+03  0.27077879958E+03 -0.51158441009E+03  0.59675087227E+03  0.00000000000E+00 0.  1.
<mgrwt>
<rscale>  0 0.12314056E+04</rscale>
<asrwt>0</asrwt>
<pdfrwt beam="1">  1        2 0.28629868E+00 0.12314056E+04</pdfrwt>
<pdfrwt beam="2">  1       -2 0.31339800E-01 0.12314056E+04</pdfrwt>
<totfact> 0.74295186E+01</totfact>
</mgrwt>
</event>
<event>
12    2  0.3561489E-008  0.1123748E+04  0.7818608E-02  0.9182349E-01
         -1   -1    0    0    0  501 -0.00000000000E+00  0.00000000000E+00  0.33707082627E+03  0.33707082627E+03  0.00000000000E+00 0.  1.
          1   -1    0    0  501    0  0.00000000000E+00 -0.00000000000E+00 -0.93660614922E+03  0.93660614922E+03  0.00000000000E+00 0. -1.
         23    2    1    2    0    0  0.54485278981E+02 -0.87401424659E+02 -0.30387460221E+03  0.33300560562E+03  0.89136439495E+02 0.  0.
        254    2    1    2    0    0 -0.54485278981E+02  0.87401424659E+02 -0.29566072074E+03  0.94067136987E+03  0.88703985798E+03 0.  0.
         23    2    4    4    0    0 -0.38351415427E+03  0.22341604586E+03  0.23697202721E+02  0.45387584459E+03  0.91890635028E+02 0.  0.
         23    2    4    4    0    0  0.32902887529E+03 -0.13601462120E+03 -0.31935792346E+03  0.48679552528E+03  0.90666543991E+02 0.  0.
          4    1    3    3  502    0 -0.35036721988E+01 -0.62284716275E+02 -0.21559036977E+03  0.22443455425E+03  0.00000000000E+00 0. -1.
         -4    1    3    3    0  502  0.57988951180E+02 -0.25116708384E+02 -0.88284232440E+02  0.10857105137E+03  0.00000000000E+00 0.  1.
         11    1    5    5    0    0 -0.35465940732E+03  0.21883088828E+03  0.42859373131E+02  0.41893576922E+03  0.00000000000E+00 0. -1.
        -11    1    5    5    0    0 -0.28854746958E+02  0.45851575788E+01 -0.19162170410E+02  0.34940075370E+02  0.00000000000E+00 0.  1.
          4    1    6    6  503    0  0.31933559775E+03 -0.13745461271E+03 -0.32463559071E+03  0.47566507261E+03  0.00000000000E+00 0. -1.
         -4    1    6    6    0  503  0.96932775462E+01  0.14399915059E+01  0.52776672493E+01  0.11130452674E+02  0.00000000000E+00 0.  1.
<mgrwt>
<rscale>  0 0.11237484E+04</rscale>
<asrwt>0</asrwt>
<pdfrwt beam="1">  1        1 0.14409325E+00 0.11237484E+04</pdfrwt>
<pdfrwt beam="2">  1       -1 0.51857050E-01 0.11237484E+04</pdfrwt>
<totfact> 0.63262166E+01</totfact>
</mgrwt>
</event>
<event>
12    2  0.3561489E-008  0.1203573E+04  0.7818608E-02  0.9109735E-01
          1   -1    0    0  501    0  0.00000000000E+00  0.00000000000E+00  0.18550576599E+03  0.18550576599E+03  0.00000000000E+00 0. -1.
         -1   -1    0    0    0  501 -0.00000000000E+00 -0.00000000000E+00 -0.19522149398E+04  0.19522149398E+04  0.00000000000E+00 0.  1.
         23    2    1    2    0    0 -0.34937654319E+02  0.28266518273E+03 -0.29607740372E+03  0.42090295271E+03  0.91527162050E+02 0.  0.
        254    2    1    2    0    0  0.34937654319E+02 -0.28266518273E+03 -0.14706317701E+04  0.17168177531E+04  0.83879982645E+03 0.  0.
         23    2    4    4    0    0  0.21914466687E+03 -0.43771538142E+03 -0.47106374429E+03  0.68557553843E+03  0.92160878721E+02 0.  0.
         23    2    4    4    0    0 -0.18420701255E+03  0.15505019868E+03 -0.99956802583E+03  0.10312422147E+04  0.79696169693E+02 0.  0.
          2    1    3    3  502    0 -0.21238428943E+02  0.94312538906E+02 -0.44746007177E+02  0.10652760683E+03  0.00000000000E+00 0. -1.
         -2    1    3    3    0  502 -0.13699225376E+02  0.18835264383E+03 -0.25133139654E+03  0.31437534588E+03  0.00000000000E+00 0.  1.
         11    1    5    5    0    0  0.81786079051E+01 -0.93728263381E+01 -0.41439930102E+02  0.43266699755E+02  0.00000000000E+00 0. -1.
        -11    1    5    5    0    0  0.21096605896E+03 -0.42834255508E+03 -0.42962381419E+03  0.64230883868E+03  0.00000000000E+00 0.  1.
          1    1    6    6  503    0  0.47919622541E+01  0.21148339824E+02 -0.10094331781E+03  0.10324615533E+03  0.00000000000E+00 0. -1.
         -1    1    6    6    0  503 -0.18899897480E+03  0.13390185886E+03 -0.89862470802E+03  0.92799605934E+03  0.00000000000E+00 0.  1.
<mgrwt>
<rscale>  0 0.12035732E+04</rscale>
<asrwt>0</asrwt>
<pdfrwt beam="1">  1        1 0.28539349E-01 0.12035732E+04</pdfrwt>
<pdfrwt beam="2">  1       -1 0.30034075E+00 0.12035732E+04</pdfrwt>
<totfact> 0.53718380E+00</totfact>
</mgrwt>
</event>
<event>
12    2  0.3561489E-008  0.1278024E+04  0.7818608E-02  0.9047176E-01
         -4   -1    0    0    0  501 -0.00000000000E+00  0.00000000000E+00  0.67349703020E+03  0.67349703020E+03  0.00000000000E+00 0. -1.
          4   -1    0    0  501    0  0.00000000000E+00 -0.00000000000E+00 -0.60629262434E+03  0.60629262434E+03  0.00000000000E+00 0.  1.
         23    2    1    2    0    0 -0.25100311398E+03  0.15979263690E+03  0.10687177380E+03  0.32939351592E+03  0.92424359702E+02 0.  0.
        254    2    1    2    0    0  0.25100311398E+03 -0.15979263690E+03 -0.39667367935E+02  0.95039613861E+03  0.90174445946E+03 0.  0.
         23    2    4    4    0    0  0.34871665991E+03  0.23297121869E+03 -0.23620706613E+03  0.49014251407E+03  0.92558135120E+02 0.  0.
         23    2    4    4    0    0 -0.97713545928E+02 -0.39276385559E+03  0.19653969819E+03  0.46025362454E+03  0.96923488478E+02 0.  0.
          4    1    3    3  502    0 -0.31075589245E+02  0.90883600677E+01 -0.15671977280E+02  0.35970841073E+02  0.00000000000E+00 0.  1.
         -4    1    3    3    0  502 -0.21992752473E+03  0.15070427683E+03  0.12254375108E+03  0.29342267485E+03  0.00000000000E+00 0. -1.
         11    1    5    5    0    0  0.10463623655E+03  0.11294029854E+03 -0.11598321961E+03  0.19275985128E+03  0.00000000000E+00 0. -1.
        -11    1    5    5    0    0  0.24408042336E+03  0.12003092015E+03 -0.12022384651E+03  0.29738266279E+03  0.00000000000E+00 0.  1.
          4    1    6    6  503    0 -0.83025509633E+02 -0.16273876268E+03  0.59701710106E+02  0.19220154609E+03  0.00000000000E+00 0. -1.
         -4    1    6    6    0  503 -0.14688036295E+02 -0.23002509290E+03  0.13683798809E+03  0.26805207844E+03  0.00000000000E+00 0.  1.
<mgrwt>
<rscale>  0 0.12780239E+04</rscale>
<asrwt>0</asrwt>
<pdfrwt beam="1">  1        4 0.93275788E-01 0.12780239E+04</pdfrwt>
<pdfrwt beam="2">  1       -4 0.10361493E+00 0.12780239E+04</pdfrwt>
<totfact> 0.14461664E+00</totfact>
</mgrwt>
</event>
<event>
12    2  0.3561489E-008  0.1265024E+04  0.7818608E-02  0.9057771E-01
          1   -1    0    0  501    0  0.00000000000E+00  0.00000000000E+00  0.25287795068E+03  0.25287795068E+03  0.00000000000E+00 0. -1.
         -1   -1    0    0    0  501 -0.00000000000E+00 -0.00000000000E+00 -0.15820726350E+04  0.15820726350E+04  0.00000000000E+00 0.  1.
         23    2    1    2    0    0 -0.20560450929E+03  0.15978331784E+03 -0.10583857859E+03  0.29540045702E+03  0.90860895810E+02 0.  0.
        254    2    1    2    0    0  0.20560450929E+03 -0.15978331784E+03 -0.12233561057E+04  0.15395501287E+04  0.89766949059E+03 0.  0.
         23    2    4    4    0    0  0.93455724558E+01 -0.36845624881E+03 -0.12412813895E+03  0.39974323252E+03  0.92409469493E+02 0.  0.
         23    2    4    4    0    0  0.19625893683E+03  0.20867293097E+03 -0.10992279668E+04  0.11398068961E+04  0.93785260733E+02 0.  0.
          1    1    3    3  502    0 -0.17300518868E+03  0.12067905020E+03 -0.44309719539E+02  0.21554020440E+03  0.00000000000E+00 0. -1.
         -1    1    3    3    0  502 -0.32599320613E+02  0.39104267643E+02 -0.61528859053E+02  0.79860252621E+02  0.00000000000E+00 0.  1.
         11    1    5    5    0    0  0.20364977818E+02 -0.36675975981E+03 -0.12620784572E+03  0.38840169163E+03  0.00000000000E+00 0. -1.
        -11    1    5    5    0    0 -0.11019405362E+02 -0.16964889987E+01  0.20797067712E+01  0.11341540888E+02  0.00000000000E+00 0.  1.
          2    1    6    6  503    0  0.92937757348E+02  0.14435879919E+03 -0.76722503446E+03  0.78620044718E+03  0.00000000000E+00 0. -1.
         -2    1    6    6    0  503  0.10332117949E+03  0.64314131783E+02 -0.33200293232E+03  0.35360644896E+03  0.00000000000E+00 0.  1.
<mgrwt>
<rscale>  0 0.12650238E+04</rscale>
<asrwt>0</asrwt>
<pdfrwt beam="1">  1        1 0.38904300E-01 0.12650238E+04</pdfrwt>
<pdfrwt beam="2">  1       -1 0.24339579E+00 0.12650238E+04</pdfrwt>
<totfact> 0.83246206E+00</totfact>
</mgrwt>
</event>
<event>
12    2  0.3561489E-008  0.1416297E+04  0.7818608E-02  0.8942106E-01
          1   -1    0    0  501    0  0.00000000000E+00  0.00000000000E+00  0.65507087438E+03  0.65507087438E+03  0.00000000000E+00 0. -1.
         -1   -1    0    0    0  501 -0.00000000000E+00 -0.00000000000E+00 -0.76552694409E+03  0.76552694409E+03  0.00000000000E+00 0.  1.
         23    2    1    2    0    0 -0.56365995834E+02  0.29680998937E+03 -0.30911114957E+03  0.44184663474E+03  0.91681244364E+02 0.  0.
        254    2    1    2    0    0  0.56365995834E+02 -0.29680998937E+03  0.19865507986E+03  0.97875118373E+03  0.90951456482E+03 0.  0.
         23    2    4    4    0    0 -0.15214765203E+03 -0.55158085936E+03 -0.10166963732E+02  0.57844090400E+03  0.84262446146E+02 0.  0.
         23    2    4    4    0    0  0.20851364787E+03  0.25477086999E+03  0.20882204359E+03  0.40031027974E+03  0.90859983661E+02 0.  0.
          1    1    3    3  502    0 -0.52564136993E+02  0.21801959774E+03 -0.16810673164E+03  0.28027737461E+03  0.00000000000E+00 0. -1.
         -1    1    3    3    0  502 -0.38018588411E+01  0.78790391635E+02 -0.14100441793E+03  0.16156926013E+03  0.00000000000E+00 0.  1.
         11    1    5    5    0    0 -0.63764054644E+02 -0.37879804909E+03 -0.57356798137E+00  0.38412777254E+03  0.00000000000E+00 0. -1.
        -11    1    5    5    0    0 -0.88383597388E+02 -0.17278281027E+03 -0.95933957510E+01  0.19431313145E+03  0.00000000000E+00 0.  1.
          3    1    6    6  503    0  0.15450329332E+03  0.21491973119E+03  0.12442859317E+03  0.29247945791E+03  0.00000000000E+00 0. -1.
         -3    1    6    6    0  503  0.54010354545E+02  0.39851138799E+02  0.84393450416E+02  0.10783082182E+03  0.00000000000E+00 0.  1.
<mgrwt>
<rscale>  0 0.14162972E+04</rscale>
<asrwt>0</asrwt>
<pdfrwt beam="1">  1        1 0.10078013E+00 0.14162972E+04</pdfrwt>
<pdfrwt beam="2">  1       -1 0.11777338E+00 0.14162972E+04</pdfrwt>
<totfact> 0.19006705E+01</totfact>
</mgrwt>
</event>
<event>
12    2  0.3561489E-008  0.1986644E+04  0.7818608E-02  0.8612891E-01
         -2   -1    0    0    0  501 -0.00000000000E+00  0.00000000000E+00  0.30793017605E+03  0.30793017605E+03  0.00000000000E+00 0.  1.
          2   -1    0    0  501    0  0.00000000000E+00 -0.00000000000E+00 -0.32042600608E+04  0.32042600608E+04  0.00000000000E+00 0. -1.
         23    2    1    2    0    0 -0.53977399750E+03 -0.25086265537E+03 -0.21296054820E+04  0.22131378846E+04  0.92042093930E+02 0.  0.
        254    2    1    2    0    0  0.53977399750E+03  0.25086265537E+03 -0.76672440266E+03  0.12990523522E+04  0.86335546779E+03 0.  0.
         23    2    4    4    0    0  0.50711523276E+03  0.50500277387E+03 -0.35345342839E+03  0.80337503895E+03  0.91041014119E+02 0.  0.
         23    2    4    4    0    0  0.32658764743E+02 -0.25414011850E+03 -0.41327097427E+03  0.49567731320E+03  0.96173311804E+02 0.  0.
          3    1    3    3  502    0 -0.27144914053E+03 -0.11390263653E+03 -0.12168631681E+04  0.12519642233E+04  0.00000000000E+00 0. -1.
         -3    1    3    3    0  502 -0.26832485697E+03 -0.13696001884E+03 -0.91274231395E+03  0.96117366136E+03  0.00000000000E+00 0.  1.
         11    1    5    5    0    0  0.44807787746E+03  0.48191236955E+03 -0.32384431061E+03  0.73340879031E+03  0.00000000000E+00 0.  1.
        -11    1    5    5    0    0  0.59037355305E+02  0.23090404325E+02 -0.29609117785E+02  0.69966248644E+02  0.00000000000E+00 0. -1.
          3    1    6    6  503    0 -0.15002932510E+02 -0.60864374024E+02 -0.17091248088E+03  0.18204569792E+03  0.00000000000E+00 0. -1.
         -3    1    6    6    0  503  0.47661697253E+02 -0.19327574448E+03 -0.24235849338E+03  0.31363161528E+03  0.00000000000E+00 0.  1.
<mgrwt>
<rscale>  0 0.19866438E+04</rscale>
<asrwt>0</asrwt>
<pdfrwt beam="1">  1        2 0.49296308E+00 0.19866438E+04</pdfrwt>
<pdfrwt beam="2">  1       -2 0.47373874E-01 0.19866438E+04</pdfrwt>
<totfact> 0.50790712E+00</totfact>
</mgrwt>
</event>
<event>
12    2  0.3561489E-008  0.1470545E+04  0.7818608E-02  0.8904280E-01
         -1   -1    0    0    0  501 -0.00000000000E+00  0.00000000000E+00  0.35319578072E+03  0.35319578072E+03  0.00000000000E+00 0. -1.
          1   -1    0    0  501    0  0.00000000000E+00 -0.00000000000E+00 -0.15306679604E+04  0.15306679604E+04  0.00000000000E+00 0.  1.
         23    2    1    2    0    0  0.94561761832E+02  0.40155773512E+03 -0.60801452437E+03  0.74006258859E+03  0.88433205015E+02 0.  0.
        254    2    1    2    0    0 -0.94561761832E+02 -0.40155773512E+03 -0.56945765527E+03  0.11438011525E+04  0.90211335977E+03 0.  0.
         23    2    4    4    0    0 -0.34369745733E+03  0.14298722185E+03 -0.17258946736E+03  0.41974440704E+03  0.88458776894E+02 0.  0.
         23    2    4    4    0    0  0.24913569550E+03 -0.54454495697E+03 -0.39686818790E+03  0.72405674545E+03  0.90310614724E+02 0.  0.
          1    1    3    3  502    0 -0.16825519608E+02  0.75331644932E+02 -0.10953176656E+03  0.13399687580E+03  0.00000000000E+00 0. -1.
         -1    1    3    3    0  502  0.11138728144E+03  0.32622609019E+03 -0.49848275781E+03  0.60606571279E+03  0.00000000000E+00 0.  1.
         11    1    5    5    0    0 -0.30776954027E+03  0.15515706992E+03 -0.15420591241E+03  0.37759140573E+03  0.00000000000E+00 0. -1.
        -11    1    5    5    0    0 -0.35927917065E+02 -0.12169848068E+02 -0.18383554958E+02  0.42153001310E+02  0.00000000000E+00 0.  1.
          4    1    6    6  503    0  0.96066041163E+02 -0.26139752205E+03 -0.13695660522E+03  0.31034571129E+03  0.00000000000E+00 0. -1.
         -4    1    6    6    0  503  0.15306965434E+03 -0.28314743492E+03 -0.25991158268E+03  0.41371103417E+03  0.00000000000E+00 0.  1.
<mgrwt>
<rscale>  0 0.14705447E+04</rscale>
<asrwt>0</asrwt>
<pdfrwt beam="1">  1        1 0.23548738E+00 0.14705447E+04</pdfrwt>
<pdfrwt beam="2">  1       -1 0.54337812E-01 0.14705447E+04</pdfrwt>
<totfact> 0.20659981E+01</totfact>
</mgrwt>
</event>
<event>
12    2  0.3561489E-008  0.2335882E+04  0.7818608E-02  0.8463906E-01
         -1   -1    0    0    0  501 -0.00000000000E+00  0.00000000000E+00  0.82950533707E+03  0.82950533707E+03  0.00000000000E+00 0.  1.
          1   -1    0    0  501    0  0.00000000000E+00 -0.00000000000E+00 -0.16444569905E+04  0.16444569905E+04  0.00000000000E+00 0. -1.
         23    2    1    2    0    0  0.47328179742E+03  0.71600675154E+02 -0.12619108875E+04  0.13526391312E+04  0.89951180868E+02 0.  0.
        254    2    1    2    0    0 -0.47328179742E+03 -0.71600675154E+02  0.44695923411E+03  0.11213231963E+04  0.91020373387E+03 0.  0.
         23    2    4    4    0    0 -0.55728403574E+03 -0.36937261918E+03  0.16881545986E+03  0.69607802386E+03  0.94996460571E+02 0.  0.
         23    2    4    4    0    0  0.84002238324E+02  0.29777194403E+03  0.27814377425E+03  0.42524517243E+03  0.88005629533E+02 0.  0.
          4    1    3    3  502    0  0.45187448709E+03  0.57528878839E+02 -0.11317823811E+04  0.12200129025E+04  0.00000000000E+00 0. -1.
         -4    1    3    3    0  502  0.21407310329E+02  0.14071796315E+02 -0.13012850635E+03  0.13262622874E+03  0.00000000000E+00 0.  1.
         11    1    5    5    0    0 -0.41601071243E+03 -0.24304675134E+03  0.15471977544E+03  0.50603838303E+03  0.00000000000E+00 0. -1.
        -11    1    5    5    0    0 -0.14127332332E+03 -0.12632586785E+03  0.14095684420E+02  0.19003964083E+03  0.00000000000E+00 0.  1.
          4    1    6    6  503    0  0.10050130711E+03  0.27781548630E+03  0.25016762804E+03  0.38712504346E+03  0.00000000000E+00 0. -1.
         -4    1    6    6    0  503 -0.16499068784E+02  0.19956457730E+02  0.27976146206E+02  0.38120128966E+02  0.00000000000E+00 0.  1.
<mgrwt>
<rscale>  0 0.23358817E+04</rscale>
<asrwt>0</asrwt>
<pdfrwt beam="1">  1        1 0.25299338E+00 0.23358817E+04</pdfrwt>
<pdfrwt beam="2">  1       -1 0.12761620E+00 0.23358817E+04</pdfrwt>
<totfact> 0.24904897E+00</totfact>
</mgrwt>
</event>
<event>
12    2  0.3561489E-008  0.1852365E+04  0.7818608E-02  0.8678937E-01
          1   -1    0    0  501    0  0.00000000000E+00  0.00000000000E+00  0.13521966493E+04  0.13521966493E+04  0.00000000000E+00 0. -1.
         -1   -1    0    0    0  501 -0.00000000000E+00 -0.00000000000E+00 -0.63438570457E+03  0.63438570457E+03  0.00000000000E+00 0.  1.
         23    2    1    2    0    0  0.37503747155E+03  0.48375232465E+03  0.64283055017E+03  0.89225315572E+03  0.90637525247E+02 0.  0.
        254    2    1    2    0    0 -0.37503747155E+03 -0.48375232465E+03  0.74980394590E+02  0.10943291982E+04  0.90402705588E+03 0.  0.
         23    2    4    4    0    0 -0.17135477652E+03 -0.68563652341E+03 -0.13922308853E+03  0.72604885392E+03  0.91126111661E+02 0.  0.
         23    2    4    4    0    0 -0.20368269504E+03  0.20188419876E+03  0.21420348312E+03  0.36828034427E+03  0.86622224763E+02 0.  0.
          4    1    3    3  502    0  0.30962957996E+03  0.44661105220E+03  0.57020074530E+03  0.78769334051E+03  0.00000000000E+00 0. -1.
         -4    1    3    3    0  502  0.65407891596E+02  0.37141272449E+02  0.72629804870E+02  0.10455981521E+03  0.00000000000E+00 0.  1.
         11    1    5    5    0    0 -0.82299177035E+02 -0.18395826375E+03 -0.60997781433E+02  0.21055765643E+03  0.00000000000E+00 0. -1.
        -11    1    5    5    0    0 -0.89055599482E+02 -0.50167825966E+03 -0.78225307099E+02  0.51549119749E+03  0.00000000000E+00 0.  1.
          2    1    6    6  503    0 -0.21026610352E+03  0.19219700461E+03  0.21444648927E+03  0.35656530906E+03  0.00000000000E+00 0.  1.
         -2    1    6    6    0  503  0.65834084780E+01  0.96871941542E+01 -0.24300614798E+00  0.11715035201E+02  0.00000000000E+00 0. -1.
<mgrwt>
<rscale>  0 0.18523652E+04</rscale>
<asrwt>0</asrwt>
<pdfrwt beam="1">  1        1 0.20803025E+00 0.18523652E+04</pdfrwt>
<pdfrwt beam="2">  1       -1 0.97597801E-01 0.18523652E+04</pdfrwt>
<totfact> 0.78587122E+00</totfact>
</mgrwt>
</event>
<event>
12    2  0.3561489E-008  0.1324796E+04  0.7818608E-02  0.9010130E-01
          2   -1    0    0  501    0  0.00000000000E+00  0.00000000000E+00  0.45297102441E+04  0.45297102441E+04  0.00000000000E+00 0. -1.
         -2   -1    0    0    0  501 -0.00000000000E+00 -0.00000000000E+00 -0.96865141543E+02  0.96865141543E+02  0.00000000000E+00 0.  1.
         23    2    1    2    0    0 -0.21948394827E+03 -0.16262537581E+03  0.44935050169E+03  0.53372342627E+03  0.91239278663E+02 0.  0.
        254    2    1    2    0    0  0.21948394827E+03  0.16262537581E+03  0.39834946008E+04  0.40928519594E+04  0.89921505204E+03 0.  0.
         23    2    4    4    0    0  0.58161284725E+02 -0.36424993187E+03  0.16671971522E+04  0.17098427348E+04  0.89191285521E+02 0.  0.
         23    2    4    4    0    0  0.16132266355E+03  0.52687530768E+03  0.23162974486E+04  0.23830092246E+04  0.99380592972E+02 0.  0.
          3    1    3    3  502    0 -0.57184620824E+02 -0.52768442280E+02  0.21252451036E+03  0.22632113658E+03  0.00000000000E+00 0. -1.
         -3    1    3    3    0  502 -0.16229932745E+03 -0.10985693353E+03  0.23682599133E+03  0.30740228969E+03  0.00000000000E+00 0.  1.
         11    1    5    5    0    0  0.34748260080E+02 -0.29671555403E+03  0.11701825021E+04  0.12077146392E+04  0.00000000000E+00 0.  1.
        -11    1    5    5    0    0  0.23413024645E+02 -0.67534377843E+02  0.49701465012E+03  0.50212809556E+03  0.00000000000E+00 0. -1.
          2    1    6    6  503    0  0.10666482064E+03  0.45465462432E+03  0.18529860712E+04  0.19109279399E+04  0.00000000000E+00 0. -1.
         -2    1    6    6    0  503  0.54657842907E+02  0.72220683364E+02  0.46331137747E+03  0.47208128473E+03  0.00000000000E+00 0.  1.
<mgrwt>
<rscale>  0 0.13247959E+04</rscale>
<asrwt>0</asrwt>
<pdfrwt beam="1">  1        2 0.69687834E+00 0.13247959E+04</pdfrwt>
<pdfrwt beam="2">  1       -2 0.14902333E-01 0.13247959E+04</pdfrwt>
<totfact> 0.41943252E+00</totfact>
</mgrwt>
</event>
<event>
12    2  0.3561489E-008  0.2040824E+04  0.7818608E-02  0.8587768E-01
          2   -1    0    0  501    0  0.00000000000E+00  0.00000000000E+00  0.23811929643E+04  0.23811929643E+04  0.00000000000E+00 0. -1.
         -2   -1    0    0    0  501 -0.00000000000E+00 -0.00000000000E+00 -0.43727694708E+03  0.43727694708E+03  0.00000000000E+00 0.  1.
         23    2    1    2    0    0 -0.22061234993E+03  0.17060667262E+03 -0.28126329583E+03  0.40667327028E+03  0.92182761372E+02 0.  0.
        254    2    1    2    0    0  0.22061234993E+03 -0.17060667262E+03  0.22251793131E+04  0.24117966411E+04  0.88744781091E+03 0.  0.
         23    2    4    4    0    0 -0.98338634188E+02  0.11418040995E+03  0.17780162922E+04  0.17867691427E+04  0.92164967456E+02 0.  0.
         23    2    4    4    0    0  0.31895098412E+03 -0.28478708257E+03  0.44716302088E+03  0.62502749835E+03  0.88719748592E+02 0.  0.
          2    1    3    3  502    0  0.62059962441E+01 -0.27178485379E+01 -0.14334713776E+02  0.15855128795E+02  0.00000000000E+00 0. -1.
         -2    1    3    3    0  502 -0.22681834618E+03  0.17332452116E+03 -0.26692858206E+03  0.39081814149E+03  0.00000000000E+00 0.  1.
         11    1    5    5    0    0 -0.11455454739E+03  0.10941037868E+03  0.16613022048E+04  0.16688374370E+04  0.00000000000E+00 0. -1.
        -11    1    5    5    0    0  0.16215913204E+02  0.47700312690E+01  0.11671408735E+03  0.11793170577E+03  0.00000000000E+00 0.  1.
          4    1    6    6  503    0  0.31042633428E+03 -0.24856464335E+03  0.39134415563E+03  0.55794187787E+03  0.00000000000E+00 0. -1.
         -4    1    6    6    0  503  0.85246498383E+01 -0.36222439218E+02  0.55818865249E+02  0.67085620482E+02  0.00000000000E+00 0.  1.
<mgrwt>
<rscale>  0 0.20408241E+04</rscale>
<asrwt>0</asrwt>
<pdfrwt beam="1">  1        2 0.36633737E+00 0.20408241E+04</pdfrwt>
<pdfrwt beam="2">  1       -2 0.67273378E-01 0.20408241E+04</pdfrwt>
<totfact> 0.76506493E+00</totfact>
</mgrwt>
</event>
<event>
12    2  0.3561489E-008  0.2608605E+04  0.7818608E-02  0.8365284E-01
          1   -1    0    0  501    0  0.00000000000E+00  0.00000000000E+00  0.16490144688E+04  0.16490144688E+04  0.00000000000E+00 0. -1.
         -1   -1    0    0    0  501 -0.00000000000E+00 -0.00000000000E+00 -0.10316496225E+04  0.10316496225E+04  0.00000000000E+00 0.  1.
         23    2    1    2    0    0  0.21068455629E+03  0.37765669965E+03  0.13639974322E+04  0.14337678657E+04  0.90491615327E+02 0.  0.
        254    2    1    2    0    0 -0.21068455629E+03 -0.37765669965E+03 -0.74663258594E+03  0.12468962256E+04  0.90015410569E+03 0.  0.
         23    2    4    4    0    0 -0.74319513276E+01  0.26895981448E+03 -0.36803837759E+03  0.46519132182E+03  0.92499204409E+02 0.  0.
         23    2    4    4    0    0 -0.20325260497E+03 -0.64661651413E+03 -0.37859420835E+03  0.78170490378E+03  0.91128723442E+02 0.  0.
          3    1    3    3  502    0  0.19658824571E+03  0.27460117545E+03  0.10308283050E+04  0.10847394794E+04  0.00000000000E+00 0. -1.
         -3    1    3    3    0  502  0.14096310579E+02  0.10305552420E+03  0.33316912726E+03  0.34902838624E+03  0.00000000000E+00 0.  1.
         11    1    5    5    0    0 -0.41236384068E+02  0.60723648486E+02 -0.10180749210E+03  0.12550922797E+03  0.00000000000E+00 0.  1.
        -11    1    5    5    0    0  0.33804432740E+02  0.20823616599E+03 -0.26623088548E+03  0.33968209385E+03  0.00000000000E+00 0. -1.
          4    1    6    6  503    0 -0.19336578781E+03 -0.63507907698E+03 -0.38228857640E+03  0.76606808938E+03  0.00000000000E+00 0. -1.
         -4    1    6    6    0  503 -0.98868171599E+01 -0.11537437144E+02  0.36943680545E+01  0.15636814405E+02  0.00000000000E+00 0.  1.
<mgrwt>
<rscale>  0 0.26086051E+04</rscale>
<asrwt>0</asrwt>
<pdfrwt beam="1">  1        1 0.25369453E+00 0.26086051E+04</pdfrwt>
<pdfrwt beam="2">  1       -1 0.15871533E+00 0.26086051E+04</pdfrwt>
<totfact> 0.13584808E+00</totfact>
</mgrwt>
</event>
<event>
12    2  0.3561489E-008  0.2410518E+04  0.7818608E-02  0.8435576E-01
          2   -1    0    0  501    0  0.00000000000E+00  0.00000000000E+00  0.31592457746E+04  0.31592457746E+04  0.00000000000E+00 0. -1.
         -2   -1    0    0    0  501 -0.00000000000E+00 -0.00000000000E+00 -0.45980869798E+03  0.45980869798E+03  0.00000000000E+00 0.  1.
         23    2    1    2    0    0 -0.85843663955E+03 -0.11278911946E+03  0.20180103843E+04  0.21978636790E+04  0.92757699153E+02 0.  0.
        254    2    1    2    0    0  0.85843663955E+03  0.11278911946E+03  0.68142669232E+03  0.14211907936E+04  0.89766702352E+03 0.  0.
         23    2    4    4    0    0  0.60490435382E+03  0.17709456040E+03 -0.50577687982E+02  0.63870740972E+03  0.90096016087E+02 0.  0.
         23    2    4    4    0    0  0.25353228574E+03 -0.64305440937E+02  0.73200438030E+03  0.78248338385E+03  0.89643870791E+02 0.  0.
          3    1    3    3  502    0 -0.73745668372E+03 -0.12850867493E+03  0.17513278363E+04  0.19046012785E+04  0.00000000000E+00 0. -1.
         -3    1    3    3    0  502 -0.12097995584E+03  0.15719555463E+02  0.26668254792E+03  0.29326240042E+03  0.00000000000E+00 0.  1.
         11    1    5    5    0    0  0.32077469387E+03  0.79548019946E+02 -0.69441866966E+02  0.33770766144E+03  0.00000000000E+00 0. -1.
        -11    1    5    5    0    0  0.28412965995E+03  0.97546540454E+02  0.18864178984E+02  0.30099974828E+03  0.00000000000E+00 0.  1.
          4    1    6    6  503    0  0.24635033350E+03 -0.51282222546E+02  0.72191255504E+03  0.76451035983E+03  0.00000000000E+00 0. -1.
         -4    1    6    6    0  503  0.71819522379E+01 -0.13023218391E+02  0.10091825264E+02  0.17973024018E+02  0.00000000000E+00 0.  1.
<mgrwt>
<rscale>  0 0.24105175E+04</rscale>
<asrwt>0</asrwt>
<pdfrwt beam="1">  1        2 0.48603780E+00 0.24105175E+04</pdfrwt>
<pdfrwt beam="2">  1       -2 0.70739801E-01 0.24105175E+04</pdfrwt>
<totfact> 0.22514784E+00</totfact>
</mgrwt>
</event>
<event>
12    2  0.3561489E-008  0.1485604E+04  0.7818608E-02  0.8894083E-01
         -2   -1    0    0    0  501 -0.00000000000E+00  0.00000000000E+00  0.34112790035E+03  0.34112790035E+03  0.00000000000E+00 0.  1.
          2   -1    0    0  501    0  0.00000000000E+00 -0.00000000000E+00 -0.16174429899E+04  0.16174429899E+04  0.00000000000E+00 0. -1.
         23    2    1    2    0    0 -0.32587462618E+03  0.35689102926E+03 -0.43553849059E+03  0.65706561738E+03  0.92065031373E+02 0.  0.
        254    2    1    2    0    0  0.32587462618E+03 -0.35689102926E+03 -0.84077659900E+03  0.13015052729E+04  0.86801221606E+03 0.  0.
         23    2    4    4    0    0 -0.18292062801E+03 -0.17425120122E+03  0.31599894598E+02  0.27101259644E+03  0.92875383239E+02 0.  0.
         23    2    4    4    0    0  0.50879525419E+03 -0.18263982804E+03 -0.87237649359E+03  0.10304926765E+04  0.92975761335E+02 0.  0.
          1    1    3    3  502    0 -0.10796717086E+03  0.13980430944E+03 -0.21670075725E+03  0.27957355582E+03  0.00000000000E+00 0. -1.
         -1    1    3    3    0  502 -0.21790745532E+03  0.21708671981E+03 -0.21883773334E+03  0.37749206155E+03  0.00000000000E+00 0.  1.
         11    1    5    5    0    0 -0.72125686922E+02 -0.37422284027E+02  0.47690256091E+02  0.94217315721E+02  0.00000000000E+00 0. -1.
        -11    1    5    5    0    0 -0.11079494109E+03 -0.13682891719E+03 -0.16090361493E+02  0.17679528072E+03  0.00000000000E+00 0.  1.
          4    1    6    6  503    0  0.48874100491E+03 -0.19088618786E+03 -0.85276508281E+03  0.10012560077E+04  0.00000000000E+00 0. -1.
         -4    1    6    6    0  503  0.20054249285E+02  0.82463598175E+01 -0.19611410782E+02  0.29236668714E+02  0.00000000000E+00 0.  1.
<mgrwt>
<rscale>  0 0.14856042E+04</rscale>
<asrwt>0</asrwt>
<pdfrwt beam="1">  1        2 0.24883738E+00 0.14856042E+04</pdfrwt>
<pdfrwt beam="2">  1       -2 0.52481215E-01 0.14856042E+04</pdfrwt>
<totfact> 0.36128356E+01</totfact>
</mgrwt>
</event>
<event>
12    2  0.3561489E-008  0.2124759E+04  0.7818608E-02  0.8550414E-01
         -2   -1    0    0    0  501 -0.00000000000E+00  0.00000000000E+00  0.69751567545E+03  0.69751567545E+03  0.00000000000E+00 0.  1.
          2   -1    0    0  501    0  0.00000000000E+00 -0.00000000000E+00 -0.16181007409E+04  0.16181007409E+04  0.00000000000E+00 0. -1.
         23    2    1    2    0    0  0.68459712310E+03 -0.43741027359E+03 -0.63492051454E+03  0.10350150177E+04  0.90172383080E+02 0.  0.
        254    2    1    2    0    0 -0.68459712310E+03  0.43741027359E+03 -0.28566455090E+03  0.12806013986E+04  0.94780522162E+03 0.  0.
         23    2    4    4    0    0  0.12277071572E+03 -0.16857145715E+03  0.47093375200E-01  0.22752735994E+03  0.90992925559E+02 0.  0.
         23    2    4    4    0    0 -0.80736783882E+03  0.60598173074E+03 -0.28571164428E+03  0.10530740387E+04  0.90978580677E+02 0.  0.
          4    1    3    3  502    0  0.31712700402E+03 -0.17963457018E+03 -0.23363110119E+03  0.43292217191E+03  0.00000000000E+00 0. -1.
         -4    1    3    3    0  502  0.36747011908E+03 -0.25777570342E+03 -0.40128941335E+03  0.60209284580E+03  0.00000000000E+00 0.  1.
         11    1    5    5    0    0 -0.12894980369E+02 -0.29124804997E+02  0.78997235787E+01  0.32816770369E+02  0.00000000000E+00 0. -1.
        -11    1    5    5    0    0  0.13566569608E+03 -0.13944665215E+03 -0.78526302035E+01  0.19471058957E+03  0.00000000000E+00 0.  1.
          1    1    6    6  503    0 -0.16723479668E+03  0.13005213460E+03 -0.22235577969E+02  0.21301515407E+03  0.00000000000E+00 0. -1.
         -1    1    6    6    0  503 -0.64013304214E+03  0.47592959614E+03 -0.26347606631E+03  0.84005888462E+03  0.00000000000E+00 0.  1.
<mgrwt>
<rscale>  0 0.21247594E+04</rscale>
<asrwt>0</asrwt>
<pdfrwt beam="1">  1        2 0.24893858E+00 0.21247594E+04</pdfrwt>
<pdfrwt beam="2">  1       -2 0.10731010E+00 0.21247594E+04</pdfrwt>
<totfact> 0.69901200E+00</totfact>
</mgrwt>
</event>
<event>
12    2  0.3561489E-008  0.2611976E+04  0.7818608E-02  0.8364144E-01
         -2   -1    0    0    0  501 -0.00000000000E+00  0.00000000000E+00  0.32924168510E+04  0.32924168510E+04  0.00000000000E+00 0.  1.
          2   -1    0    0  501    0  0.00000000000E+00 -0.00000000000E+00 -0.51804046310E+03  0.51804046310E+03  0.00000000000E+00 0. -1.
         23    2    1    2    0    0 -0.22648120138E+03 -0.99430378684E+03  0.20525009825E+04  0.22937563632E+04  0.92866652712E+02 0.  0.
        254    2    1    2    0    0  0.22648120138E+03  0.99430378684E+03  0.72187540538E+03  0.15167009509E+04  0.85985110256E+03 0.  0.
         23    2    4    4    0    0  0.52735229576E+03  0.50227620341E+03  0.51762097230E+03  0.89805900248E+03  0.90535477073E+02 0.  0.
         23    2    4    4    0    0 -0.30087109438E+03  0.49202758343E+03  0.20425443307E+03  0.61864194845E+03  0.91561065263E+02 0.  0.
          3    1    3    3  502    0 -0.41292021183E+02 -0.71436490685E+02  0.17857657552E+03  0.19671755524E+03  0.00000000000E+00 0. -1.
         -3    1    3    3    0  502 -0.18518918020E+03 -0.92286729615E+03  0.18739244070E+04  0.20970388079E+04  0.00000000000E+00 0.  1.
         11    1    5    5    0    0  0.40897310050E+03  0.35086885244E+03  0.41531170219E+03  0.68033209429E+03  0.00000000000E+00 0.  1.
        -11    1    5    5    0    0  0.11837919526E+03  0.15140735097E+03  0.10230927011E+03  0.21772690819E+03  0.00000000000E+00 0. -1.
          1    1    6    6  503    0 -0.10493262467E+03  0.96561296539E+02  0.50938767043E+02  0.15142555167E+03  0.00000000000E+00 0. -1.
         -1    1    6    6    0  503 -0.19593846970E+03  0.39546628689E+03  0.15331566603E+03  0.46721639679E+03  0.00000000000E+00 0.  1.
<mgrwt>
<rscale>  0 0.26119764E+04</rscale>
<asrwt>0</asrwt>
<pdfrwt beam="1">  1        2 0.79698535E-01 0.26119764E+04</pdfrwt>
<pdfrwt beam="2">  1       -2 0.50652566E+00 0.26119764E+04</pdfrwt>
<totfact> 0.78151201E-02</totfact>
</mgrwt>
</event>
<event>
12    2  0.3561489E-008  0.1171398E+04  0.7818608E-02  0.9138267E-01
         -2   -1    0    0    0  501 -0.00000000000E+00  0.00000000000E+00  0.47411810501E+03  0.47411810501E+03  0.00000000000E+00 0.  1.
          2   -1    0    0  501    0  0.00000000000E+00 -0.00000000000E+00 -0.72353944817E+03  0.72353944817E+03  0.00000000000E+00 0. -1.
         23    2    1    2    0    0 -0.28308310473E+02 -0.81695916926E+02  0.15576409883E+03  0.20025962163E+03  0.91465175259E+02 0.  0.
        254    2    1    2    0    0  0.28308310473E+02  0.81695916926E+02 -0.40518544200E+03  0.99739793156E+03  0.90727713968E+03 0.  0.
         23    2    4    4    0    0 -0.30100186483E+03 -0.52900060784E+02  0.13352870495E+03  0.34439616952E+03  0.85896842036E+02 0.  0.
         23    2    4    4    0    0  0.32931017530E+03  0.13459597771E+03 -0.53871414695E+03  0.65300176204E+03  0.98168733981E+02 0.  0.
          3    1    3    3  502    0 -0.40123731186E+01 -0.13511256356E+02 -0.11380051589E+02  0.18115152788E+02  0.00000000000E+00 0. -1.
         -3    1    3    3    0  502 -0.24295937354E+02 -0.68184660571E+02  0.16714415042E+03  0.18214446884E+03  0.00000000000E+00 0.  1.
         11    1    5    5    0    0 -0.29062090921E+03 -0.67573169917E+02  0.13227321229E+03  0.32637838295E+03  0.00000000000E+00 0.  1.
        -11    1    5    5    0    0 -0.10380955614E+02  0.14673109134E+02  0.12554926598E+01  0.18017786571E+02  0.00000000000E+00 0. -1.
          1    1    6    6  503    0  0.29070577185E+02 -0.15970332087E+02 -0.47539500005E+02  0.57966835566E+02  0.00000000000E+00 0. -1.
         -1    1    6    6    0  503  0.30023959812E+03  0.15056630980E+03 -0.49117464694E+03  0.59503492647E+03  0.00000000000E+00 0.  1.
<mgrwt>
<rscale>  0 0.11713977E+04</rscale>
<asrwt>0</asrwt>
<pdfrwt beam="1">  1        2 0.11131376E+00 0.11713977E+04</pdfrwt>
<pdfrwt beam="2">  1       -2 0.72941247E-01 0.11713977E+04</pdfrwt>
<totfact> 0.65978360E+01</totfact>
</mgrwt>
</event>
<event>
12    2  0.3561489E-008  0.1731676E+04  0.7818608E-02  0.8743502E-01
          2   -1    0    0  501    0  0.00000000000E+00  0.00000000000E+00  0.70552137967E+03  0.70552137967E+03  0.00000000000E+00 0. -1.
         -2   -1    0    0    0  501 -0.00000000000E+00 -0.00000000000E+00 -0.10625836230E+04  0.10625836230E+04  0.00000000000E+00 0.  1.
         23    2    1    2    0    0 -0.61442792720E+03  0.91986601368E+02 -0.14055719895E+03  0.64339459313E+03  0.90648021118E+02 0.  0.
        254    2    1    2    0    0  0.61442792720E+03 -0.91986601368E+02 -0.21650504440E+03  0.11247104096E+04  0.91220384705E+03 0.  0.
         23    2    4    4    0    0 -0.49792276872E+02 -0.36915669889E+02  0.27164460712E+03  0.29350495046E+03  0.92262266632E+02 0.  0.
         23    2    4    4    0    0  0.66422020407E+03 -0.55070931480E+02 -0.48814965152E+03  0.83120545910E+03  0.91603198446E+02 0.  0.
          1    1    3    3  502    0 -0.76410639153E+02  0.37855018943E+02 -0.24773507629E+01  0.85309586224E+02  0.00000000000E+00 0. -1.
         -1    1    3    3    0  502 -0.53801728805E+03  0.54131582425E+02 -0.13807984818E+03  0.55808500690E+03  0.00000000000E+00 0.  1.
         11    1    5    5    0    0  0.63474755357E+01  0.25645040178E+02  0.52013801716E+02  0.58338615859E+02  0.00000000000E+00 0. -1.
        -11    1    5    5    0    0 -0.56139752408E+02 -0.62560710066E+02  0.21963080541E+03  0.23516633460E+03  0.00000000000E+00 0.  1.
          3    1    6    6  503    0  0.34009389795E+03 -0.67725861849E+02 -0.22337523453E+03  0.41248896614E+03  0.00000000000E+00 0. -1.
         -3    1    6    6    0  503  0.32412630612E+03  0.12654930369E+02 -0.26477441700E+03  0.41871649296E+03  0.00000000000E+00 0.  1.
<mgrwt>
<rscale>  0 0.17316760E+04</rscale>
<asrwt>0</asrwt>
<pdfrwt beam="1">  1        2 0.10854175E+00 0.17316760E+04</pdfrwt>
<pdfrwt beam="2">  1       -2 0.16347440E+00 0.17316760E+04</pdfrwt>
<totfact> 0.91393932E+00</totfact>
</mgrwt>
</event>
<event>
12    2  0.3561489E-008  0.2854958E+04  0.7818608E-02  0.8286406E-01
          2   -1    0    0  501    0  0.00000000000E+00  0.00000000000E+00  0.22608713484E+04  0.22608713484E+04  0.00000000000E+00 0. -1.
         -2   -1    0    0    0  501 -0.00000000000E+00 -0.00000000000E+00 -0.90128822332E+03  0.90128822332E+03  0.00000000000E+00 0.  1.
         23    2    1    2    0    0  0.84100796359E+02 -0.66823950717E+03  0.18220727104E+04  0.19446161633E+04  0.89252886197E+02 0.  0.
        254    2    1    2    0    0 -0.84100796359E+02  0.66823950717E+03 -0.46248958523E+03  0.12175434085E+04  0.90271720501E+03 0.  0.
         23    2    4    4    0    0 -0.14460872142E+03  0.84095100104E+03 -0.19229543201E+03  0.87929749302E+03  0.89868123392E+02 0.  0.
         23    2    4    4    0    0  0.60507925064E+02 -0.17271149387E+03 -0.27019415322E+03  0.33824591547E+03  0.88966003546E+02 0.  0.
          4    1    3    3  502    0  0.84564959652E+02 -0.41579778750E+03  0.12235574621E+04  0.12950412717E+04  0.00000000000E+00 0. -1.
         -4    1    3    3    0  502 -0.46416329271E+00 -0.25244171967E+03  0.59851524829E+03  0.64957489153E+03  0.00000000000E+00 0.  1.
         11    1    5    5    0    0 -0.15192371265E+03  0.69942436584E+03 -0.17227031671E+03  0.73617410985E+03  0.00000000000E+00 0. -1.
        -11    1    5    5    0    0  0.73149912246E+01  0.14152663520E+03 -0.20025115297E+02  0.14312338317E+03  0.00000000000E+00 0.  1.
          2    1    6    6  503    0  0.77291340037E+02 -0.93760358475E+02 -0.18040146473E+03  0.21750780340E+03  0.00000000000E+00 0. -1.
         -2    1    6    6    0  503 -0.16783414973E+02 -0.78951135393E+02 -0.89792688498E+02  0.12073811207E+03  0.00000000000E+00 0.  1.
<mgrwt>
<rscale>  0 0.28549583E+04</rscale>
<asrwt>0</asrwt>
<pdfrwt beam="1">  1        2 0.34782636E+00 0.28549583E+04</pdfrwt>
<pdfrwt beam="2">  1       -2 0.13865973E+00 0.28549583E+04</pdfrwt>
<totfact> 0.15218497E+00</totfact>
</mgrwt>
</event>
<event>
12    2  0.3561489E-008  0.1725288E+04  0.7818608E-02  0.8747071E-01
         -2   -1    0    0    0  501 -0.00000000000E+00  0.00000000000E+00  0.93347397787E+03  0.93347397787E+03  0.00000000000E+00 0.  1.
          2   -1    0    0  501    0  0.00000000000E+00 -0.00000000000E+00 -0.79718883505E+03  0.79718883505E+03  0.00000000000E+00 0. -1.
         23    2    1    2    0    0  0.53821965439E+03 -0.12943983580E+03 -0.18952736995E+03  0.59303525432E+03  0.96618432215E+02 0.  0.
        254    2    1    2    0    0 -0.53821965439E+03  0.12943983580E+03  0.32581251278E+03  0.11376275586E+04  0.93893961527E+03 0.  0.
         23    2    4    4    0    0 -0.23922658046E+03 -0.20449913951E+03  0.54069093654E+03  0.63239557859E+03  0.92348384423E+02 0.  0.
         23    2    4    4    0    0 -0.29899307393E+03  0.33393897532E+03 -0.21487842377E+03  0.50523198000E+03  0.90413047294E+02 0.  0.
          4    1    3    3  502    0  0.86286621943E+02 -0.16726961665E+02 -0.69476562361E+02  0.11203644537E+03  0.00000000000E+00 0. -1.
         -4    1    3    3    0  502  0.45193303245E+03 -0.11271287414E+03 -0.12005080759E+03  0.48099880896E+03  0.00000000000E+00 0.  1.
         11    1    5    5    0    0 -0.21031385104E+03 -0.15439906286E+03  0.49153112912E+03  0.55648345658E+03  0.00000000000E+00 0.  1.
        -11    1    5    5    0    0 -0.28912729418E+02 -0.50100076649E+02  0.49159807418E+02  0.75912122010E+02  0.00000000000E+00 0. -1.
          4    1    6    6  503    0 -0.14615866178E+03  0.21214726242E+03 -0.88028212318E+02  0.27224581085E+03  0.00000000000E+00 0. -1.
         -4    1    6    6    0  503 -0.15283441215E+03  0.12179171290E+03 -0.12685021145E+03  0.23298616915E+03  0.00000000000E+00 0.  1.
<mgrwt>
<rscale>  0 0.17252884E+04</rscale>
<asrwt>0</asrwt>
<pdfrwt beam="1">  1        2 0.12264444E+00 0.17252884E+04</pdfrwt>
<pdfrwt beam="2">  1       -2 0.14361138E+00 0.17252884E+04</pdfrwt>
<totfact> 0.11041117E+01</totfact>
</mgrwt>
</event>
<event>
12    2  0.3561489E-008  0.1598920E+04  0.7818608E-02  0.8821212E-01
         -1   -1    0    0    0  501 -0.00000000000E+00  0.00000000000E+00  0.32788277865E+03  0.32788277865E+03  0.00000000000E+00 0.  1.
          1   -1    0    0  501    0  0.00000000000E+00 -0.00000000000E+00 -0.19492837682E+04  0.19492837682E+04  0.00000000000E+00 0. -1.
         23    2    1    2    0    0  0.39434305670E+03  0.11128377326E+03 -0.10790946872E+04  0.11580265363E+04  0.93217972157E+02 0.  0.
        254    2    1    2    0    0 -0.39434305670E+03 -0.11128377326E+03 -0.54230630236E+03  0.11191400105E+04  0.88909375941E+03 0.  0.
         23    2    4    4    0    0 -0.29533703428E+03 -0.34004688621E+03 -0.67982213941E+03  0.82048447926E+03  0.90447724344E+02 0.  0.
         23    2    4    4    0    0 -0.99006022423E+02  0.22876311295E+03  0.13751583705E+03  0.29865553127E+03  0.90276057710E+02 0.  0.
          1    1    3    3  502    0  0.18753583322E+03  0.95861656135E+01 -0.54077424554E+03  0.57244944577E+03  0.00000000000E+00 0. -1.
         -1    1    3    3    0  502  0.20680722348E+03  0.10169760765E+03 -0.53832044161E+03  0.58557709052E+03  0.00000000000E+00 0.  1.
         11    1    5    5    0    0 -0.77786139937E+02 -0.15513735594E+03 -0.27206253415E+03  0.32270157307E+03  0.00000000000E+00 0.  1.
        -11    1    5    5    0    0 -0.21755089434E+03 -0.18490953027E+03 -0.40775960525E+03  0.49778290619E+03  0.00000000000E+00 0. -1.
          2    1    6    6  503    0 -0.42041305304E+02  0.16231537570E+02  0.22266364789E+02  0.50266541202E+02  0.00000000000E+00 0.  1.
         -2    1    6    6    0  503 -0.56964717119E+02  0.21253157538E+03  0.11524947226E+03  0.24838899006E+03  0.00000000000E+00 0. -1.
<mgrwt>
<rscale>  0 0.15989204E+04</rscale>
<asrwt>0</asrwt>
<pdfrwt beam="1">  1        1 0.29988980E+00 0.15989204E+04</pdfrwt>
<pdfrwt beam="2">  1       -1 0.50443506E-01 0.15989204E+04</pdfrwt>
<totfact> 0.12221596E+01</totfact>
</mgrwt>
</event>
<event>
12    2  0.3561489E-008  0.2385311E+04  0.7818608E-02  0.8445023E-01
         -2   -1    0    0    0  501 -0.00000000000E+00  0.00000000000E+00  0.73776730183E+03  0.73776730183E+03  0.00000000000E+00 0.  1.
          2   -1    0    0  501    0  0.00000000000E+00 -0.00000000000E+00 -0.19280162470E+04  0.19280162470E+04  0.00000000000E+00 0. -1.
         23    2    1    2    0    0 -0.43378979984E+03  0.51153651061E+03  0.35181333822E+03  0.76289302922E+03  0.91596708158E+02 0.  0.
        254    2    1    2    0    0  0.43378979984E+03 -0.51153651061E+03 -0.15420622834E+04  0.19028905197E+04  0.89061386229E+03 0.  0.
         23    2    4    4    0    0 -0.18151036902E+03 -0.38065523116E+03 -0.90665100754E+03  0.10042754748E+04  0.93320740792E+02 0.  0.
         23    2    4    4    0    0  0.61530016886E+03 -0.13088127945E+03 -0.63541127589E+03  0.89861504490E+03  0.89651002680E+02 0.  0.
          2    1    3    3  502    0 -0.93907664573E+02  0.58759784714E+02  0.58311528942E+02  0.12518624594E+03  0.00000000000E+00 0. -1.
         -2    1    3    3    0  502 -0.33988213527E+03  0.45277672590E+03  0.29350180928E+03  0.63770678328E+03  0.00000000000E+00 0.  1.
         11    1    5    5    0    0 -0.13127930607E+02 -0.31218004970E+02 -0.28467393090E+02  0.44241370522E+02  0.00000000000E+00 0. -1.
        -11    1    5    5    0    0 -0.16838243841E+03 -0.34943722619E+03 -0.87818361445E+03  0.96003410424E+03  0.00000000000E+00 0.  1.
          2    1    6    6  503    0  0.20787651559E+03 -0.21653745526E+02 -0.26297791218E+03  0.33591503796E+03  0.00000000000E+00 0. -1.
         -2    1    6    6    0  503  0.40742365327E+03 -0.10922753392E+03 -0.37243336370E+03  0.56270000694E+03  0.00000000000E+00 0.  1.
<mgrwt>
<rscale>  0 0.23853112E+04</rscale>
<asrwt>0</asrwt>
<pdfrwt beam="1">  1        2 0.29661788E+00 0.23853112E+04</pdfrwt>
<pdfrwt beam="2">  1       -2 0.11350266E+00 0.23853112E+04</pdfrwt>
<totfact> 0.40157151E+00</totfact>
</mgrwt>
</event>
<event>
12    2  0.3561489E-008  0.2302648E+04  0.7818608E-02  0.8476878E-01
         -2   -1    0    0    0  501 -0.00000000000E+00  0.00000000000E+00  0.30115465960E+03  0.30115465960E+03  0.00000000000E+00 0.  1.
          2   -1    0    0  501    0  0.00000000000E+00 -0.00000000000E+00 -0.44015495017E+04  0.44015495017E+04  0.00000000000E+00 0. -1.
         23    2    1    2    0    0  0.46064716897E+03  0.18206742437E+02  0.88944384656E+01  0.47018520892E+03  0.92020214619E+02 0.  0.
        254    2    1    2    0    0 -0.46064716897E+03 -0.18206742437E+02 -0.41092892806E+04  0.42325189524E+04  0.90301217662E+03 0.  0.
         23    2    4    4    0    0 -0.50873265566E+03 -0.37793751007E+03 -0.26389657390E+04  0.27153172073E+04  0.84626758663E+02 0.  0.
         23    2    4    4    0    0  0.48085486686E+02  0.35973076764E+03 -0.14703235416E+04  0.15172017451E+04  0.91276388639E+02 0.  0.
          4    1    3    3  502    0  0.54486058861E+02 -0.10984988374E+02 -0.26237207696E+02  0.61463742543E+02  0.00000000000E+00 0. -1.
         -4    1    3    3    0  502  0.40616111011E+03  0.29191730811E+02  0.35131646161E+02  0.40872146637E+03  0.00000000000E+00 0.  1.
         11    1    5    5    0    0 -0.50049131188E+03 -0.37131149325E+03 -0.26240336672E+04  0.26970199230E+04  0.00000000000E+00 0. -1.
        -11    1    5    5    0    0 -0.82413437780E+01 -0.66260168199E+01 -0.14932071779E+02  0.18297284328E+02  0.00000000000E+00 0.  1.
          4    1    6    6  503    0  0.60160775305E+02  0.23956171742E+03 -0.11109448683E+04  0.11380718939E+04  0.00000000000E+00 0. -1.
         -4    1    6    6    0  503 -0.12075288619E+02  0.12016905021E+03 -0.35937867324E+03  0.37912985112E+03  0.00000000000E+00 0.  1.
<mgrwt>
<rscale>  0 0.23026482E+04</rscale>
<asrwt>0</asrwt>
<pdfrwt beam="1">  1        2 0.67716146E+00 0.23026482E+04</pdfrwt>
<pdfrwt beam="2">  1       -2 0.46331486E-01 0.23026482E+04</pdfrwt>
<totfact> 0.61773378E-01</totfact>
</mgrwt>
</event>
<event>
12    2  0.3561489E-008  0.1158787E+04  0.7818608E-02  0.9149716E-01
         -2   -1    0    0    0  501 -0.00000000000E+00  0.00000000000E+00  0.18515202546E+03  0.18515202546E+03  0.00000000000E+00 0.  1.
          2   -1    0    0  501    0  0.00000000000E+00 -0.00000000000E+00 -0.18130865018E+04  0.18130865018E+04  0.00000000000E+00 0. -1.
         23    2    1    2    0    0  0.18830954550E+03  0.36528427113E+02 -0.14979954025E+03  0.26002011854E+03  0.91519117538E+02 0.  0.
        254    2    1    2    0    0 -0.18830954550E+03 -0.36528427113E+02 -0.14781349361E+04  0.17382184088E+04  0.89427374791E+03 0.  0.
         23    2    4    4    0    0  0.31464617432E+03 -0.10247283044E+02 -0.26418953724E+03  0.42084660088E+03  0.90600927514E+02 0.  0.
         23    2    4    4    0    0 -0.50295571982E+03 -0.26281144069E+02 -0.12139453989E+04  0.13173718079E+04  0.90276763577E+02 0.  0.
          1    1    3    3  502    0  0.38320595718E+02 -0.15651956477E+02 -0.72302741318E+02  0.83313493504E+02  0.00000000000E+00 0. -1.
         -1    1    3    3    0  502  0.14998894978E+03  0.52180383590E+02 -0.77496798928E+02  0.17670662504E+03  0.00000000000E+00 0.  1.
         11    1    5    5    0    0  0.26127788019E+03  0.11127507920E+02 -0.17476193439E+03  0.31453407735E+03  0.00000000000E+00 0. -1.
        -11    1    5    5    0    0  0.53368294132E+02 -0.21374790964E+02 -0.89427602851E+02  0.10631252353E+03  0.00000000000E+00 0.  1.
          3    1    6    6  503    0 -0.26370060046E+03 -0.45648071882E+01 -0.74808241826E+03  0.79321254948E+03  0.00000000000E+00 0. -1.
         -3    1    6    6    0  503 -0.23925511936E+03 -0.21716336881E+02 -0.46586298063E+03  0.52415925839E+03  0.00000000000E+00 0.  1.
<mgrwt>
<rscale>  0 0.11587867E+04</rscale>
<asrwt>0</asrwt>
<pdfrwt beam="1">  1        2 0.27893638E+00 0.11587867E+04</pdfrwt>
<pdfrwt beam="2">  1       -2 0.28484928E-01 0.11587867E+04</pdfrwt>
<totfact> 0.94839787E+01</totfact>
</mgrwt>
</event>
<event>
12    2  0.3561489E-008  0.1507308E+04  0.7818608E-02  0.8879608E-01
         -2   -1    0    0    0  501 -0.00000000000E+00  0.00000000000E+00  0.23150878973E+03  0.23150878973E+03  0.00000000000E+00 0.  1.
          2   -1    0    0  501    0  0.00000000000E+00 -0.00000000000E+00 -0.24534448610E+04  0.24534448610E+04  0.00000000000E+00 0. -1.
         23    2    1    2    0    0 -0.21035536576E+03 -0.28922568082E+03 -0.18597966157E+03  0.41359695580E+03  0.92591214369E+02 0.  0.
        254    2    1    2    0    0  0.21035536576E+03  0.28922568082E+03 -0.20359564097E+04  0.22713566949E+04  0.94129796508E+03 0.  0.
         23    2    4    4    0    0  0.33517839093E+03 -0.89776297424E+01 -0.18607890414E+04  0.18929919323E+04  0.91964381000E+02 0.  0.
         23    2    4    4    0    0 -0.12482302517E+03  0.29820331057E+03 -0.17516736821E+03  0.37836476260E+03  0.89276450686E+02 0.  0.
          2    1    3    3  502    0 -0.65182660336E+01 -0.24048963254E+02  0.89458988690E+01  0.26473940626E+02  0.00000000000E+00 0. -1.
         -2    1    3    3    0  502 -0.20383709972E+03 -0.26517671757E+03 -0.19492556044E+03  0.38712301518E+03  0.00000000000E+00 0.  1.
         11    1    5    5    0    0  0.19021620052E+03 -0.42212606190E+02 -0.11962549617E+04  0.12120189934E+04  0.00000000000E+00 0.  1.
        -11    1    5    5    0    0  0.14496219041E+03  0.33234976448E+02 -0.66453407977E+03  0.68097293888E+03  0.00000000000E+00 0. -1.
          4    1    6    6  503    0 -0.51784366604E+02  0.58037898981E+02 -0.11327804414E+02  0.78602401334E+02  0.00000000000E+00 0. -1.
         -4    1    6    6    0  503 -0.73038658567E+02  0.24016541159E+03 -0.16383956380E+03  0.29976236127E+03  0.00000000000E+00 0.  1.
<mgrwt>
<rscale>  0 0.15073076E+04</rscale>
<asrwt>0</asrwt>
<pdfrwt beam="1">  1        2 0.37745306E+00 0.15073076E+04</pdfrwt>
<pdfrwt beam="2">  1       -2 0.35616736E-01 0.15073076E+04</pdfrwt>
<totfact> 0.26561456E+01</totfact>
</mgrwt>
</event>
<event>
12    2  0.3561489E-008  0.2682925E+04  0.7818608E-02  0.8340567E-01
         -1   -1    0    0    0  501 -0.00000000000E+00  0.00000000000E+00  0.64965352799E+03  0.64965352799E+03  0.00000000000E+00 0.  1.
          1   -1    0    0  501    0  0.00000000000E+00 -0.00000000000E+00 -0.27699706319E+04  0.27699706319E+04  0.00000000000E+00 0. -1.
         23    2    1    2    0    0 -0.40841210948E+03 -0.99938295182E+03 -0.31271818295E+03  0.11278346538E+04  0.93014024380E+02 0.  0.
        254    2    1    2    0    0  0.40841210948E+03  0.99938295182E+03 -0.18075989210E+04  0.22917895062E+04  0.90516216546E+03 0.  0.
         23    2    4    4    0    0  0.37959567595E+02 -0.82274404733E+02 -0.64944903601E+03  0.66183773014E+03  0.89638854402E+02 0.  0.
         23    2    4    4    0    0  0.37045254189E+03  0.10816573566E+04 -0.11581498850E+04  0.16299517760E+04  0.90630641986E+02 0.  0.
          1    1    3    3  502    0 -0.40352091391E+01 -0.59743093295E+02 -0.77114861409E+01  0.60373728788E+02  0.00000000000E+00 0. -1.
         -1    1    3    3    0  502 -0.40437690034E+03 -0.93963985853E+03 -0.30500669681E+03  0.10674609250E+04  0.00000000000E+00 0.  1.
         11    1    5    5    0    0  0.63546729111E+02 -0.78278893533E+02 -0.48584040367E+03  0.49619217022E+03  0.00000000000E+00 0. -1.
        -11    1    5    5    0    0 -0.25587161516E+02 -0.39955112003E+01 -0.16360863234E+03  0.16564555992E+03  0.00000000000E+00 0.  1.
          3    1    6    6  503    0  0.20274343653E+03  0.69763022163E+03 -0.69562671100E+03  0.10058276931E+04  0.00000000000E+00 0. -1.
         -3    1    6    6    0  503  0.16770910536E+03  0.38402713492E+03 -0.46252317400E+03  0.62412408290E+03  0.00000000000E+00 0.  1.
<mgrwt>
<rscale>  0 0.26829247E+04</rscale>
<asrwt>0</asrwt>
<pdfrwt beam="1">  1        1 0.42614933E+00 0.26829247E+04</pdfrwt>
<pdfrwt beam="2">  1       -1 0.99946696E-01 0.26829247E+04</pdfrwt>
<totfact> 0.73019586E-01</totfact>
</mgrwt>
</event>
<event>
12    2  0.3561489E-008  0.1382247E+04  0.7818608E-02  0.8966770E-01
         -1   -1    0    0    0  501 -0.00000000000E+00  0.00000000000E+00  0.43519839001E+03  0.43519839001E+03  0.00000000000E+00 0.  1.
          1   -1    0    0  501    0  0.00000000000E+00 -0.00000000000E+00 -0.10975488129E+04  0.10975488129E+04  0.00000000000E+00 0. -1.
         23    2    1    2    0    0  0.26259384870E+03 -0.23844979704E+03 -0.37656619443E+03  0.52521413676E+03  0.90741145991E+02 0.  0.
        254    2    1    2    0    0 -0.26259384870E+03  0.23844979704E+03 -0.28578422844E+03  0.10075330661E+04  0.89868594016E+03 0.  0.
         23    2    4    4    0    0  0.31098414734E+03 -0.10716099815E+02 -0.27699943603E+02  0.32515065010E+03  0.90164758587E+02 0.  0.
         23    2    4    4    0    0 -0.57357799604E+03  0.24916589686E+03 -0.25808428484E+03  0.68238241603E+03  0.89235093568E+02 0.  0.
          2    1    3    3  502    0  0.17222703213E+03 -0.17802914860E+03 -0.31346850377E+03  0.39952350520E+03  0.00000000000E+00 0. -1.
         -2    1    3    3    0  502  0.90366816569E+02 -0.60420648445E+02 -0.63097690655E+02  0.12569063156E+03  0.00000000000E+00 0.  1.
         11    1    5    5    0    0  0.63589488651E+02 -0.39254706280E+02 -0.11258797607E+02  0.75573246295E+02  0.00000000000E+00 0.  1.
        -11    1    5    5    0    0  0.24739465869E+03  0.28538606465E+02 -0.16441145996E+02  0.24957740380E+03  0.00000000000E+00 0. -1.
          1    1    6    6  503    0 -0.31697409040E+03  0.13575272356E+03 -0.94131043275E+02  0.35743814744E+03  0.00000000000E+00 0. -1.
         -1    1    6    6    0  503 -0.25660390564E+03  0.11341317330E+03 -0.16395324156E+03  0.32494426859E+03  0.00000000000E+00 0.  1.
<mgrwt>
<rscale>  0 0.13822467E+04</rscale>
<asrwt>0</asrwt>
<pdfrwt beam="1">  1        1 0.16885366E+00 0.13822467E+04</pdfrwt>
<pdfrwt beam="2">  1       -1 0.66953599E-01 0.13822467E+04</pdfrwt>
<totfact> 0.28097829E+01</totfact>
</mgrwt>
</event>
<event>
12    2  0.3561489E-008  0.1397174E+04  0.7818608E-02  0.8955867E-01
         -2   -1    0    0    0  501 -0.00000000000E+00  0.00000000000E+00  0.86717892937E+03  0.86717892937E+03  0.00000000000E+00 0.  1.
          2   -1    0    0  501    0  0.00000000000E+00 -0.00000000000E+00 -0.56277162831E+03  0.56277162831E+03  0.00000000000E+00 0. -1.
         23    2    1    2    0    0 -0.24732156147E+03 -0.18071839344E+03 -0.21278772942E+03  0.38444467774E+03  0.93230895938E+02 0.  0.
        254    2    1    2    0    0  0.24732156147E+03  0.18071839344E+03  0.51719503047E+03  0.10455058799E+04  0.85543249468E+03 0.  0.
         23    2    4    4    0    0  0.19833019339E+03 -0.23946178487E+02 -0.19580434875E+03  0.29684057706E+03  0.99331264581E+02 0.  0.
         23    2    4    4    0    0  0.48991368076E+02  0.20466457193E+03  0.71299937922E+03  0.74866530288E+03  0.88565680830E+02 0.  0.
          2    1    3    3  502    0 -0.11916967462E+03 -0.99475409046E+02 -0.16216947875E+03  0.22448988439E+03  0.00000000000E+00 0. -1.
         -2    1    3    3    0  502 -0.12815188685E+03 -0.81242984398E+02 -0.50618250666E+02  0.15995479335E+03  0.00000000000E+00 0.  1.
         11    1    5    5    0    0  0.17603299849E+03 -0.53442572490E+02 -0.14627834751E+03  0.23503421041E+03  0.00000000000E+00 0.  1.
        -11    1    5    5    0    0  0.22297194903E+02  0.29496394003E+02 -0.49526001240E+02  0.61806366651E+02  0.00000000000E+00 0. -1.
          3    1    6    6  503    0  0.47386564823E+01  0.31543098873E+02  0.25591274087E+03  0.25789290973E+03  0.00000000000E+00 0. -1.
         -3    1    6    6    0  503  0.44252711594E+02  0.17312147306E+03  0.45708663835E+03  0.49077239315E+03  0.00000000000E+00 0.  1.
<mgrwt>
<rscale>  0 0.13971739E+04</rscale>
<asrwt>0</asrwt>
<pdfrwt beam="1">  1        2 0.86580250E-01 0.13971739E+04</pdfrwt>
<pdfrwt beam="2">  1       -2 0.13341214E+00 0.13971739E+04</pdfrwt>
<totfact> 0.21193366E+01</totfact>
</mgrwt>
</event>
<event>
12    2  0.3561489E-008  0.2619616E+04  0.7818608E-02  0.8361569E-01
         -1   -1    0    0    0  501 -0.00000000000E+00  0.00000000000E+00  0.11802494632E+04  0.11802494632E+04  0.00000000000E+00 0.  1.
          1   -1    0    0  501    0  0.00000000000E+00 -0.00000000000E+00 -0.14535880360E+04  0.14535880360E+04  0.00000000000E+00 0. -1.
         23    2    1    2    0    0  0.23625096264E+03 -0.10987513440E+04 -0.37192870410E+03  0.11875752003E+04  0.94524400528E+02 0.  0.
        254    2    1    2    0    0 -0.23625096264E+03  0.10987513440E+04  0.98590131348E+02  0.14462622989E+04  0.90492297462E+03 0.  0.
         23    2    4    4    0    0 -0.41064946893E+02  0.12005532611E+04  0.84705516027E+02  0.12077112968E+04  0.91526439849E+02 0.  0.
         23    2    4    4    0    0 -0.19518601575E+03 -0.10180191719E+03  0.13884615321E+02  0.23855100212E+03  0.90843750378E+02 0.  0.
          4    1    3    3  502    0  0.24263524222E+03 -0.10876351033E+04 -0.36319386875E+03  0.11720630380E+04  0.00000000000E+00 0. -1.
         -4    1    3    3    0  502 -0.63842795834E+01 -0.11116240674E+02 -0.87348353485E+01  0.15512162360E+02  0.00000000000E+00 0.  1.
         11    1    5    5    0    0 -0.48513276529E+02  0.44543199220E+03  0.60825810712E+02  0.45217582523E+03  0.00000000000E+00 0. -1.
        -11    1    5    5    0    0  0.74483296354E+01  0.75512126895E+03  0.23879705315E+02  0.75553547154E+03  0.00000000000E+00 0.  1.
          1    1    6    6  503    0 -0.67188637899E+02 -0.84483034822E+02 -0.47632657124E+01  0.10804806771E+03  0.00000000000E+00 0. -1.
         -1    1    6    6    0  503 -0.12799737785E+03 -0.17318882365E+02  0.18647881033E+02  0.13050293441E+03  0.00000000000E+00 0.  1.
<mgrwt>
<rscale>  0 0.26196156E+04</rscale>
<asrwt>0</asrwt>
<pdfrwt beam="1">  1        1 0.22362893E+00 0.26196156E+04</pdfrwt>
<pdfrwt beam="2">  1       -1 0.18157684E+00 0.26196156E+04</pdfrwt>
<totfact> 0.12563132E+00</totfact>
</mgrwt>
</event>
<event>
12    2  0.3561489E-008  0.2181008E+04  0.7818608E-02  0.8526375E-01
         -3   -1    0    0    0  501 -0.00000000000E+00  0.00000000000E+00  0.22569642416E+04  0.22569642416E+04  0.00000000000E+00 0.  1.
          3   -1    0    0  501    0  0.00000000000E+00 -0.00000000000E+00 -0.52690189478E+03  0.52690189478E+03  0.00000000000E+00 0. -1.
         23    2    1    2    0    0 -0.13556556729E+02 -0.30956362043E+02  0.18927365805E+04  0.18952294862E+04  0.91109635693E+02 0.  0.
        254    2    1    2    0    0  0.13556556729E+02  0.30956362043E+02 -0.16267423368E+03  0.88863665015E+03  0.87296627261E+03 0.  0.
         23    2    4    4    0    0  0.25729725637E+03 -0.55847290522E+02 -0.42605674568E+03  0.50894349201E+03  0.90434117060E+02 0.  0.
         23    2    4    4    0    0 -0.24374069964E+03  0.86803652565E+02  0.26338251200E+03  0.37969315814E+03  0.88612323909E+02 0.  0.
          3    1    3    3  502    0 -0.94455943521E+01  0.26925373444E+02  0.11008295777E+04  0.11011993253E+04  0.00000000000E+00 0. -1.
         -3    1    3    3    0  502 -0.41109623772E+01 -0.57881735487E+02  0.79190700281E+03  0.79403016090E+03  0.00000000000E+00 0.  1.
         11    1    5    5    0    0  0.26061794707E+03 -0.57547658812E+02 -0.38933685413E+03  0.47203456796E+03  0.00000000000E+00 0.  1.
        -11    1    5    5    0    0 -0.33206906971E+01  0.17003682903E+01 -0.36719891552E+02  0.36908924051E+02  0.00000000000E+00 0. -1.
          1    1    6    6  503    0 -0.10007028888E+03 -0.91478527942E+01  0.10453320528E+03  0.14499978253E+03  0.00000000000E+00 0. -1.
         -1    1    6    6    0  503 -0.14367041076E+03  0.95951505359E+02  0.15884930672E+03  0.23469337561E+03  0.00000000000E+00 0.  1.
<mgrwt>
<rscale>  0 0.21810078E+04</rscale>
<asrwt>0</asrwt>
<pdfrwt beam="1">  1        3 0.81061831E-01 0.21810078E+04</pdfrwt>
<pdfrwt beam="2">  1       -3 0.34722526E+00 0.21810078E+04</pdfrwt>
<totfact> 0.70090811E-02</totfact>
</mgrwt>
</event>
<event>
12    2  0.3561489E-008  0.1531612E+04  0.7818608E-02  0.8863699E-01
         -1   -1    0    0    0  501 -0.00000000000E+00  0.00000000000E+00  0.32648694831E+03  0.32648694831E+03  0.00000000000E+00 0.  1.
          1   -1    0    0  501    0  0.00000000000E+00 -0.00000000000E+00 -0.17962696578E+04  0.17962696578E+04  0.00000000000E+00 0. -1.
         23    2    1    2    0    0 -0.20577985639E+03  0.38844106274E+03 -0.75951406713E+03  0.88223715036E+03  0.90823800736E+02 0.  0.
        254    2    1    2    0    0  0.20577985639E+03 -0.38844106274E+03 -0.71026864235E+03  0.12405194557E+04  0.91715602121E+03 0.  0.
         23    2    4    4    0    0  0.37102111906E+03 -0.52684305290E+03 -0.20256984359E+03  0.68161326804E+03  0.91333632642E+02 0.  0.
         23    2    4    4    0    0 -0.16524126267E+03  0.13840199016E+03 -0.50769879876E+03  0.55890618770E+03  0.90323145535E+02 0.  0.
          3    1    3    3  502    0 -0.17708101736E+03  0.27544435744E+03 -0.49929402513E+03  0.59709446847E+03  0.00000000000E+00 0. -1.
         -3    1    3    3    0  502 -0.28698839028E+02  0.11299670531E+03 -0.26022004201E+03  0.28514268189E+03  0.00000000000E+00 0.  1.
         11    1    5    5    0    0  0.27725258967E+02 -0.93075606359E+02 -0.40092142799E+02  0.10506730413E+03  0.00000000000E+00 0.  1.
        -11    1    5    5    0    0  0.34329586009E+03 -0.43376744654E+03 -0.16247770079E+03  0.57654596390E+03  0.00000000000E+00 0. -1.
          2    1    6    6  503    0 -0.14844966154E+03  0.12078506305E+03 -0.49651567682E+03  0.53212230811E+03  0.00000000000E+00 0. -1.
         -2    1    6    6    0  503 -0.16791601133E+02  0.17616927108E+02 -0.11183121942E+02  0.26783879587E+02  0.00000000000E+00 0.  1.
<mgrwt>
<rscale>  0 0.15316117E+04</rscale>
<asrwt>0</asrwt>
<pdfrwt beam="1">  1        1 0.27634918E+00 0.15316117E+04</pdfrwt>
<pdfrwt beam="2">  1       -1 0.50228761E-01 0.15316117E+04</pdfrwt>
<totfact> 0.15735644E+01</totfact>
</mgrwt>
</event>
<event>
12    2  0.3561489E-008  0.1289502E+04  0.7818608E-02  0.9037932E-01
          1   -1    0    0  501    0  0.00000000000E+00  0.00000000000E+00  0.82506611769E+03  0.82506611769E+03  0.00000000000E+00 0. -1.
         -1   -1    0    0    0  501 -0.00000000000E+00 -0.00000000000E+00 -0.50384323254E+03  0.50384323254E+03  0.00000000000E+00 0.  1.
         23    2    1    2    0    0  0.22749862197E+02  0.31354979398E+03  0.14073776052E+02  0.32728361354E+03  0.89919202544E+02 0.  0.
        254    2    1    2    0    0 -0.22749862197E+02 -0.31354979398E+03  0.30714910910E+03  0.10016257367E+04  0.90004583863E+03 0.  0.
         23    2    4    4    0    0  0.25124662312E+03  0.21821029797E+03  0.66433453451E+02  0.35077662397E+03  0.88827002731E+02 0.  0.
         23    2    4    4    0    0 -0.27399648532E+03 -0.53176009195E+03  0.24071565565E+03  0.65084911272E+03  0.88417596061E+02 0.  0.
          4    1    3    3  502    0  0.47092025301E+02  0.98074764794E+02 -0.92493501154E+01  0.10918731068E+03  0.00000000000E+00 0. -1.
         -4    1    3    3    0  502 -0.24342163104E+02  0.21547502919E+03  0.23323126167E+02  0.21809630286E+03  0.00000000000E+00 0.  1.
         11    1    5    5    0    0  0.10058841477E+03  0.92858401770E+02  0.72069213722E+02  0.15470838223E+03  0.00000000000E+00 0. -1.
        -11    1    5    5    0    0  0.15065820835E+03  0.12535189620E+03 -0.56357602709E+01  0.19606824174E+03  0.00000000000E+00 0.  1.
          3    1    6    6  503    0 -0.25034928396E+03 -0.48819533361E+03  0.19178477147E+03  0.58119776867E+03  0.00000000000E+00 0. -1.
         -3    1    6    6    0  503 -0.23647201352E+02 -0.43564758346E+02  0.48930884180E+02  0.69651344051E+02  0.00000000000E+00 0.  1.
<mgrwt>
<rscale>  0 0.12895022E+04</rscale>
<asrwt>0</asrwt>
<pdfrwt beam="1">  1        1 0.12693325E+00 0.12895022E+04</pdfrwt>
<pdfrwt beam="2">  1       -1 0.77514344E-01 0.12895022E+04</pdfrwt>
<totfact> 0.34508171E+01</totfact>
</mgrwt>
</event>
<event>
12    2  0.3561489E-008  0.1486261E+04  0.7818608E-02  0.8893641E-01
         -1   -1    0    0    0  501 -0.00000000000E+00  0.00000000000E+00  0.29492016134E+03  0.29492016134E+03  0.00000000000E+00 0.  1.
          1   -1    0    0  501    0  0.00000000000E+00 -0.00000000000E+00 -0.18725159680E+04  0.18725159680E+04  0.00000000000E+00 0. -1.
         23    2    1    2    0    0  0.30869959569E+03 -0.79664799720E+02 -0.14353839731E+02  0.33326873290E+03  0.96021325350E+02 0.  0.
        254    2    1    2    0    0 -0.30869959569E+03  0.79664799720E+02 -0.15632419669E+04  0.18341673964E+04  0.90487715755E+03 0.  0.
         23    2    4    4    0    0 -0.13184577139E+03 -0.33415624162E+03 -0.26113550995E+03  0.45355265847E+03  0.92057363668E+02 0.  0.
         23    2    4    4    0    0 -0.17685382431E+03  0.41382104134E+03 -0.13021064569E+04  0.13806147379E+04  0.89948318197E+02 0.  0.
          3    1    3    3  502    0  0.75420925959E+02 -0.26949236826E+02  0.37681629197E+02  0.88512612756E+02  0.00000000000E+00 0. -1.
         -3    1    3    3    0  502  0.23327866973E+03 -0.52715562894E+02 -0.52035468928E+02  0.24475612015E+03  0.00000000000E+00 0.  1.
         11    1    5    5    0    0 -0.97076053050E+02 -0.12399703743E+03 -0.10141111453E+03  0.18730520419E+03  0.00000000000E+00 0. -1.
        -11    1    5    5    0    0 -0.34769718335E+02 -0.21015920419E+03 -0.15972439542E+03  0.26624745428E+03  0.00000000000E+00 0.  1.
          1    1    6    6  503    0 -0.28753494476E+02  0.82013300976E+02 -0.15972254944E+03  0.18183574396E+03  0.00000000000E+00 0. -1.
         -1    1    6    6    0  503 -0.14810032983E+03  0.33180774036E+03 -0.11423839075E+04  0.11987789940E+04  0.00000000000E+00 0.  1.
<mgrwt>
<rscale>  0 0.14862607E+04</rscale>
<asrwt>0</asrwt>
<pdfrwt beam="1">  1        1 0.28807937E+00 0.14862607E+04</pdfrwt>
<pdfrwt beam="2">  1       -1 0.45372334E-01 0.14862607E+04</pdfrwt>
<totfact> 0.16991834E+01</totfact>
</mgrwt>
</event>
<event>
12    2  0.3561489E-008  0.1639399E+04  0.7818608E-02  0.8796703E-01
          1   -1    0    0  501    0  0.00000000000E+00  0.00000000000E+00  0.33444214627E+04  0.33444214627E+04  0.00000000000E+00 0.  1.
         -1   -1    0    0    0  501 -0.00000000000E+00 -0.00000000000E+00 -0.20090381428E+03  0.20090381428E+03  0.00000000000E+00 0. -1.
         23    2    1    2    0    0  0.23682450352E+03 -0.39940835435E+03  0.39704342090E+03  0.61717269386E+03  0.87440133671E+02 0.  0.
        254    2    1    2    0    0 -0.23682450352E+03  0.39940835435E+03  0.27464742275E+04  0.29281525831E+04  0.90296400187E+03 0.  0.
         23    2    4    4    0    0  0.14799852452E+01  0.29116881752E+02  0.22753036172E+04  0.22773460227E+04  0.91915032346E+02 0.  0.
         23    2    4    4    0    0 -0.23830448876E+03  0.37029147259E+03  0.47117061028E+03  0.65080656046E+03  0.87422143141E+02 0.  0.
          2    1    3    3  502    0  0.23012759774E+03 -0.40356792911E+03  0.39151250048E+03  0.60754244517E+03  0.00000000000E+00 0. -1.
         -2    1    3    3    0  502  0.66969057803E+01  0.41595747605E+01  0.55309204192E+01  0.96302486936E+01  0.00000000000E+00 0.  1.
         11    1    5    5    0    0  0.13880207580E+01  0.42541265447E+02  0.45352886857E+03  0.45552181121E+03  0.00000000000E+00 0.  1.
        -11    1    5    5    0    0  0.91964487228E-01 -0.13424383695E+02  0.18217747487E+04  0.18218242114E+04  0.00000000000E+00 0. -1.
          2    1    6    6  503    0 -0.19109629609E+03  0.32723610776E+03  0.43674909475E+03  0.57823095418E+03  0.00000000000E+00 0. -1.
         -2    1    6    6    0  503 -0.47208192677E+02  0.43055364837E+02  0.34421515524E+02  0.72575606288E+02  0.00000000000E+00 0.  1.
<mgrwt>
<rscale>  0 0.16393987E+04</rscale>
<asrwt>0</asrwt>
<pdfrwt beam="1">  1        1 0.51452634E+00 0.16393987E+04</pdfrwt>
<pdfrwt beam="2">  1       -1 0.30908282E-01 0.16393987E+04</pdfrwt>
<totfact> 0.30807484E+00</totfact>
</mgrwt>
</event>
<event>
12    2  0.3561489E-008  0.1665140E+04  0.7818608E-02  0.8781500E-01
          3   -1    0    0  501    0  0.00000000000E+00  0.00000000000E+00  0.64828728860E+03  0.64828728860E+03  0.00000000000E+00 0. -1.
         -3   -1    0    0    0  501 -0.00000000000E+00 -0.00000000000E+00 -0.10692375046E+04  0.10692375046E+04  0.00000000000E+00 0.  1.
         23    2    1    2    0    0  0.31418957227E+03  0.16707992125E+03 -0.65508864517E+03  0.75107246906E+03  0.91312284755E+02 0.  0.
        254    2    1    2    0    0 -0.31418957227E+03 -0.16707992125E+03  0.23413842916E+03  0.96645232416E+03  0.86751282610E+03 0.  0.
         23    2    4    4    0    0 -0.56082162628E+03 -0.15686861391E+03 -0.33572293858E+02  0.59081190802E+03  0.93824054545E+02 0.  0.
         23    2    4    4    0    0  0.24663205401E+03 -0.10211307340E+02  0.26771072301E+03  0.37564041614E+03  0.92222828844E+02 0.  0.
          3    1    3    3  502    0  0.94650534704E+02  0.59760775861E+02 -0.12766740664E+03  0.16979116812E+03  0.00000000000E+00 0. -1.
         -3    1    3    3    0  502  0.21953903757E+03  0.10731914539E+03 -0.52742123853E+03  0.58128130095E+03  0.00000000000E+00 0.  1.
         11    1    5    5    0    0 -0.71738347405E+02 -0.52583581972E+02  0.61527901279E+01  0.89158737136E+02  0.00000000000E+00 0. -1.
        -11    1    5    5    0    0 -0.48908327887E+03 -0.10428503194E+03 -0.39725083986E+02  0.50165317088E+03  0.00000000000E+00 0.  1.
          3    1    6    6  503    0  0.16226498468E+03 -0.18059938148E+02  0.11079989595E+03  0.19731371863E+03  0.00000000000E+00 0. -1.
         -3    1    6    6    0  503  0.84367069325E+02  0.78486308080E+01  0.15691082707E+03  0.17832669751E+03  0.00000000000E+00 0.  1.
<mgrwt>
<rscale>  0 0.16651403E+04</rscale>
<asrwt>0</asrwt>
<pdfrwt beam="1">  1        3 0.99736507E-01 0.16651403E+04</pdfrwt>
<pdfrwt beam="2">  1       -3 0.16449808E+00 0.16651403E+04</pdfrwt>
<totfact> 0.55569780E-01</totfact>
</mgrwt>
</event>
<event>
12    2  0.3561489E-008  0.1398884E+04  0.7818608E-02  0.8954627E-01
          2   -1    0    0  501    0  0.00000000000E+00  0.00000000000E+00  0.30500885667E+04  0.30500885667E+04  0.00000000000E+00 0. -1.
         -2   -1    0    0    0  501 -0.00000000000E+00 -0.00000000000E+00 -0.16039499094E+03  0.16039499094E+03  0.00000000000E+00 0.  1.
         23    2    1    2    0    0 -0.26013496434E+03 -0.28968477514E+03  0.10880299059E+04  0.11589566487E+04  0.88226802575E+02 0.  0.
        254    2    1    2    0    0  0.26013496434E+03  0.28968477514E+03  0.18016636698E+04  0.20515269089E+04  0.90065709924E+03 0.  0.
         23    2    4    4    0    0  0.42978732024E+03 -0.14114405708E+03  0.57720318083E+03  0.73917228049E+03  0.92592455382E+02 0.  0.
         23    2    4    4    0    0 -0.16965235590E+03  0.43082883222E+03  0.12244604890E+04  0.13123546285E+04  0.92605492442E+02 0.  0.
          2    1    3    3  502    0 -0.16342297526E+03 -0.23644807827E+03  0.82771310025E+03  0.87619845862E+03  0.00000000000E+00 0. -1.
         -2    1    3    3    0  502 -0.96711989075E+02 -0.53236696864E+02  0.26031680570E+03  0.28275819007E+03  0.00000000000E+00 0.  1.
         11    1    5    5    0    0  0.56017641498E+02 -0.43853848250E+02  0.56401399513E+02  0.90786860461E+02  0.00000000000E+00 0. -1.
        -11    1    5    5    0    0  0.37376967874E+03 -0.97290208834E+02  0.52080178131E+03  0.64838542003E+03  0.00000000000E+00 0.  1.
          3    1    6    6  503    0 -0.42954500048E+02  0.10096609205E+03  0.41236415642E+03  0.42671236017E+03  0.00000000000E+00 0. -1.
         -3    1    6    6    0  503 -0.12669785586E+03  0.32986274017E+03  0.81209633256E+03  0.88564226829E+03  0.00000000000E+00 0.  1.
<mgrwt>
<rscale>  0 0.13988837E+04</rscale>
<asrwt>0</asrwt>
<pdfrwt beam="1">  1        2 0.46924435E+00 0.13988837E+04</pdfrwt>
<pdfrwt beam="2">  1       -2 0.24676155E-01 0.13988837E+04</pdfrwt>
<totfact> 0.23379753E+01</totfact>
</mgrwt>
</event>
<event>
12    2  0.3561489E-008  0.1268155E+04  0.7818608E-02  0.9055207E-01
         -2   -1    0    0    0  501 -0.00000000000E+00  0.00000000000E+00  0.11154314529E+04  0.11154314529E+04  0.00000000000E+00 0.  1.
          2   -1    0    0  501    0  0.00000000000E+00 -0.00000000000E+00 -0.36044722284E+03  0.36044722284E+03  0.00000000000E+00 0. -1.
         23    2    1    2    0    0  0.14842819802E+03  0.24957459862E+03  0.29800032840E+03  0.42479865815E+03  0.85622975835E+02 0.  0.
        254    2    1    2    0    0 -0.14842819802E+03 -0.24957459862E+03  0.45698390164E+03  0.10510800176E+04  0.90089761168E+03 0.  0.
         23    2    4    4    0    0 -0.54603601881E+02  0.86155546823E+02  0.63450683424E+03  0.64918209307E+03  0.91837550450E+02 0.  0.
         23    2    4    4    0    0 -0.93824596137E+02 -0.33573014544E+03 -0.17752293260E+03  0.40189792450E+03  0.92139919254E+02 0.  0.
          2    1    3    3  502    0  0.77595172896E+02  0.17241322644E+03  0.14011571630E+03  0.23532901534E+03  0.00000000000E+00 0. -1.
         -2    1    3    3    0  502  0.70833025122E+02  0.77161372182E+02  0.15788461210E+03  0.18946964280E+03  0.00000000000E+00 0.  1.
         11    1    5    5    0    0 -0.49920062144E+00 -0.11054883418E+02  0.21151868892E+03  0.21180796824E+03  0.00000000000E+00 0. -1.
        -11    1    5    5    0    0 -0.54104401260E+02  0.97210430241E+02  0.42298814532E+03  0.43737412483E+03  0.00000000000E+00 0.  1.
          1    1    6    6  503    0 -0.52883273522E+02 -0.67243486779E+02 -0.67078077383E+02  0.10870968493E+03  0.00000000000E+00 0. -1.
         -1    1    6    6    0  503 -0.40941322615E+02 -0.26848665867E+03 -0.11044485522E+03  0.29318823957E+03  0.00000000000E+00 0.  1.
<mgrwt>
<rscale>  0 0.12681548E+04</rscale>
<asrwt>0</asrwt>
<pdfrwt beam="1">  1        2 0.55453420E-01 0.12681548E+04</pdfrwt>
<pdfrwt beam="2">  1       -2 0.17160484E+00 0.12681548E+04</pdfrwt>
<totfact> 0.18212069E+01</totfact>
</mgrwt>
</event>
<event>
12    2  0.3561489E-008  0.2092415E+04  0.7818608E-02  0.8564592E-01
         -2   -1    0    0    0  501 -0.00000000000E+00  0.00000000000E+00  0.59118418816E+03  0.59118418816E+03  0.00000000000E+00 0.  1.
          2   -1    0    0  501    0  0.00000000000E+00 -0.00000000000E+00 -0.18514544430E+04  0.18514544430E+04  0.00000000000E+00 0. -1.
         23    2    1    2    0    0 -0.10158668648E+03  0.18703013212E+03 -0.14862685428E+04  0.15042457364E+04  0.91983308450E+02 0.  0.
        254    2    1    2    0    0  0.10158668648E+03 -0.18703013212E+03  0.22599828794E+03  0.93839289477E+03  0.88555399249E+03 0.  0.
         23    2    4    4    0    0  0.38980692470E+02  0.34928080315E+03  0.10864503634E+03  0.37840372703E+03  0.88707738508E+02 0.  0.
         23    2    4    4    0    0  0.62605994010E+02 -0.53631093527E+03  0.11735325160E+03  0.55998916774E+03  0.90923883265E+02 0.  0.
          3    1    3    3  502    0 -0.11795903237E+03  0.15716730371E+03 -0.13176032299E+04  0.13321764771E+04  0.00000000000E+00 0. -1.
         -3    1    3    3    0  502  0.16372345887E+02  0.29862828409E+02 -0.16866531284E+03  0.17206925927E+03  0.00000000000E+00 0.  1.
         11    1    5    5    0    0  0.61719315466E+02  0.16175962616E+03  0.61301575504E+02  0.18366636522E+03  0.00000000000E+00 0. -1.
        -11    1    5    5    0    0 -0.22738622996E+02  0.18752117700E+03  0.47343460834E+02  0.19473736180E+03  0.00000000000E+00 0.  1.
          1    1    6    6  503    0 -0.22126044343E+02 -0.65275481700E+02  0.12667499995E+02  0.70077927377E+02  0.00000000000E+00 0. -1.
         -1    1    6    6    0  503  0.84732038353E+02 -0.47103545358E+03  0.10468575160E+03  0.48991124037E+03  0.00000000000E+00 0.  1.
<mgrwt>
<rscale>  0 0.20924154E+04</rscale>
<asrwt>0</asrwt>
<pdfrwt beam="1">  1        2 0.28483914E+00 0.20924154E+04</pdfrwt>
<pdfrwt beam="2">  1       -2 0.90951415E-01 0.20924154E+04</pdfrwt>
<totfact> 0.76840537E+00</totfact>
</mgrwt>
</event>
<event>
12    2  0.3561489E-008  0.1412875E+04  0.7818608E-02  0.8944551E-01
         -4   -1    0    0    0  501 -0.00000000000E+00  0.00000000000E+00  0.38714424007E+03  0.38714424007E+03  0.00000000000E+00 0.  1.
          4   -1    0    0  501    0  0.00000000000E+00 -0.00000000000E+00 -0.12890645911E+04  0.12890645911E+04  0.00000000000E+00 0. -1.
         23    2    1    2    0    0  0.16165050195E+03  0.20199512766E+03 -0.65095166064E+03  0.70597761220E+03  0.87939797846E+02 0.  0.
        254    2    1    2    0    0 -0.16165050195E+03 -0.20199512766E+03 -0.25096869041E+03  0.97023121899E+03  0.90079432634E+03 0.  0.
         23    2    4    4    0    0  0.34451631391E+03  0.54632023755E+02 -0.12462339115E+03  0.38159375415E+03  0.91687812787E+02 0.  0.
         23    2    4    4    0    0 -0.50616681586E+03 -0.25662715142E+03 -0.12634529926E+03  0.58863746484E+03  0.92024942538E+02 0.  0.
          3    1    3    3  502    0  0.15166699185E+03  0.17265422761E+03 -0.47924312651E+03  0.53149443368E+03  0.00000000000E+00 0. -1.
         -3    1    3    3    0  502  0.99835101045E+01  0.29340900052E+02 -0.17170853413E+03  0.17448317851E+03  0.00000000000E+00 0.  1.
         11    1    5    5    0    0  0.18435985175E+03  0.50620578669E+02 -0.24681889500E+02  0.19276979430E+03  0.00000000000E+00 0. -1.
        -11    1    5    5    0    0  0.16015646215E+03  0.40114450863E+01 -0.99941501655E+02  0.18882395985E+03  0.00000000000E+00 0.  1.
          4    1    6    6  503    0 -0.59194206362E+02 -0.59745482962E+02  0.17334739067E+00  0.84104142886E+02  0.00000000000E+00 0.  1.
         -4    1    6    6    0  503 -0.44697260950E+03 -0.19688166846E+03 -0.12651864665E+03  0.50453332196E+03  0.00000000000E+00 0. -1.
<mgrwt>
<rscale>  0 0.14128750E+04</rscale>
<asrwt>0</asrwt>
<pdfrwt beam="1">  1        4 0.19831763E+00 0.14128750E+04</pdfrwt>
<pdfrwt beam="2">  1       -4 0.59560653E-01 0.14128750E+04</pdfrwt>
<totfact> 0.69920332E-01</totfact>
</mgrwt>
</event>
<event>
12    2  0.3561489E-008  0.1849654E+04  0.7818608E-02  0.8680331E-01
         -1   -1    0    0    0  501 -0.00000000000E+00  0.00000000000E+00  0.45093467954E+03  0.45093467954E+03  0.00000000000E+00 0.  1.
          1   -1    0    0  501    0  0.00000000000E+00 -0.00000000000E+00 -0.18967375631E+04  0.18967375631E+04  0.00000000000E+00 0. -1.
         23    2    1    2    0    0  0.47569573104E+03  0.27006876654E+03 -0.11169430936E+04  0.12468448216E+04  0.88524389806E+02 0.  0.
        254    2    1    2    0    0 -0.47569573104E+03 -0.27006876654E+03 -0.32885978999E+03  0.11008274211E+04  0.89691063232E+03 0.  0.
         23    2    4    4    0    0  0.29024782040E+02  0.25702913399E+03  0.41091988592E+02  0.27755673379E+03  0.91884575704E+02 0.  0.
         23    2    4    4    0    0 -0.50472051307E+03 -0.52709790053E+03 -0.36995177858E+03  0.82327068730E+03  0.91297935537E+02 0.  0.
          1    1    3    3  502    0  0.44302356684E+03  0.22750239883E+03 -0.10393034268E+04  0.11524664139E+04  0.00000000000E+00 0. -1.
         -1    1    3    3    0  502  0.32672164199E+02  0.42566367710E+02 -0.77639666790E+02  0.94378407662E+02  0.00000000000E+00 0.  1.
         11    1    5    5    0    0  0.56171712624E+02  0.22324042115E+03  0.26006386138E+02  0.23166328810E+03  0.00000000000E+00 0. -1.
        -11    1    5    5    0    0 -0.27146930585E+02  0.33788712844E+02  0.15085602455E+02  0.45893445689E+02  0.00000000000E+00 0.  1.
          4    1    6    6  503    0 -0.11561829746E+03 -0.17502150930E+03 -0.86878061654E+02  0.22704166362E+03  0.00000000000E+00 0.  1.
         -4    1    6    6    0  503 -0.38910221562E+03 -0.35207639123E+03 -0.28307371692E+03  0.59622902368E+03  0.00000000000E+00 0. -1.
<mgrwt>
<rscale>  0 0.18496537E+04</rscale>
<asrwt>0</asrwt>
<pdfrwt beam="1">  1        1 0.29180577E+00 0.18496537E+04</pdfrwt>
<pdfrwt beam="2">  1       -1 0.69374567E-01 0.18496537E+04</pdfrwt>
<totfact> 0.69152024E+00</totfact>
</mgrwt>
</event>
<event>
12    2  0.3561489E-008  0.1810045E+04  0.7818608E-02  0.8700976E-01
         -1   -1    0    0    0  501 -0.00000000000E+00  0.00000000000E+00  0.47474735679E+03  0.47474735679E+03  0.00000000000E+00 0.  1.
          1   -1    0    0  501    0  0.00000000000E+00 -0.00000000000E+00 -0.17252664042E+04  0.17252664042E+04  0.00000000000E+00 0. -1.
         23    2    1    2    0    0  0.67096631077E+03  0.87361718105E+02 -0.41563285182E+03  0.79935062881E+03  0.91558179786E+02 0.  0.
        254    2    1    2    0    0 -0.67096631077E+03 -0.87361718105E+02 -0.83488619559E+03  0.14006631322E+04  0.89832866494E+03 0.  0.
         23    2    4    4    0    0 -0.79674498643E+03  0.14898063866E+02 -0.33870581823E+03  0.87061352354E+03  0.90673868117E+02 0.  0.
         23    2    4    4    0    0  0.12577867565E+03 -0.10225978197E+03 -0.49618037736E+03  0.53004960863E+03  0.92088449225E+02 0.  0.
          1    1    3    3  502    0  0.36976439432E+02 -0.14781450536E+01 -0.49692401623E+02  0.61957862817E+02  0.00000000000E+00 0. -1.
         -1    1    3    3    0  502  0.63398987134E+03  0.88839863159E+02 -0.36594045020E+03  0.73739276599E+03  0.00000000000E+00 0.  1.
         11    1    5    5    0    0 -0.58334798194E+03  0.47744684487E+01 -0.29009555138E+03  0.65151599560E+03  0.00000000000E+00 0.  1.
        -11    1    5    5    0    0 -0.21339700448E+03  0.10123595417E+02 -0.48610266848E+02  0.21909752794E+03  0.00000000000E+00 0. -1.
          2    1    6    6  503    0  0.11167654282E+02 -0.59937630045E+02 -0.21489614546E+03  0.22337768316E+03  0.00000000000E+00 0. -1.
         -2    1    6    6    0  503  0.11461102137E+03 -0.42322151926E+02 -0.28128423189E+03  0.30667192548E+03  0.00000000000E+00 0.  1.
<mgrwt>
<rscale>  0 0.18100449E+04</rscale>
<asrwt>0</asrwt>
<pdfrwt beam="1">  1        1 0.26542561E+00 0.18100449E+04</pdfrwt>
<pdfrwt beam="2">  1       -1 0.73038053E-01 0.18100449E+04</pdfrwt>
<totfact> 0.81598102E+00</totfact>
</mgrwt>
</event>
<event>
12    2  0.3561489E-008  0.1238791E+04  0.7818608E-02  0.9079565E-01
         -2   -1    0    0    0  501 -0.00000000000E+00  0.00000000000E+00  0.28759515232E+03  0.28759515232E+03  0.00000000000E+00 0.  1.
          2   -1    0    0  501    0  0.00000000000E+00 -0.00000000000E+00 -0.13339951238E+04  0.13339951238E+04  0.00000000000E+00 0. -1.
         23    2    1    2    0    0 -0.13940611605E+03 -0.20035146957E+03 -0.54648647545E+02  0.25925161544E+03  0.68192000116E+02 0.  0.
        254    2    1    2    0    0  0.13940611605E+03  0.20035146957E+03 -0.99175132394E+03  0.13623386607E+04  0.90156594952E+03 0.  0.
         23    2    4    4    0    0  0.16776859111E+03  0.50156888229E+03 -0.33874526569E+03  0.63617276228E+03  0.10124121984E+03 0.  0.
         23    2    4    4    0    0 -0.28362475068E+02 -0.30121741272E+03 -0.65300605825E+03  0.72616589841E+03  0.96765904074E+02 0.  0.
          3    1    3    3  502    0 -0.55389799971E+02 -0.51206616347E+02  0.10362134938E+02  0.76141456113E+02  0.00000000000E+00 0. -1.
         -3    1    3    3    0  502 -0.84016316074E+02 -0.14914485322E+03 -0.65010782483E+02  0.18311015932E+03  0.00000000000E+00 0.  1.
         11    1    5    5    0    0  0.12376686955E+03  0.42351994853E+03 -0.31887620480E+03  0.54439821711E+03  0.00000000000E+00 0.  1.
        -11    1    5    5    0    0  0.44001721566E+02  0.78048933754E+02 -0.19869060894E+02  0.91774545173E+02  0.00000000000E+00 0. -1.
          3    1    6    6  503    0  0.20200823552E+02 -0.78712726559E+02 -0.25467252397E+03  0.26732351385E+03  0.00000000000E+00 0. -1.
         -3    1    6    6    0  503 -0.48563298620E+02 -0.22250468616E+03 -0.39833353428E+03  0.45884238456E+03  0.00000000000E+00 0.  1.
<mgrwt>
<rscale>  0 0.12387906E+04</rscale>
<asrwt>0</asrwt>
<pdfrwt beam="1">  1        2 0.20523002E+00 0.12387906E+04</pdfrwt>
<pdfrwt beam="2">  1       -2 0.44245408E-01 0.12387906E+04</pdfrwt>
<totfact> 0.75275682E+01</totfact>
</mgrwt>
</event>
<event>
12    2  0.3561489E-008  0.2186553E+04  0.7818608E-02  0.8524046E-01
          2   -1    0    0  501    0  0.00000000000E+00  0.00000000000E+00  0.88619549446E+03  0.88619549446E+03  0.00000000000E+00 0. -1.
         -2   -1    0    0    0  501 -0.00000000000E+00 -0.00000000000E+00 -0.13487464092E+04  0.13487464092E+04  0.00000000000E+00 0.  1.
         23    2    1    2    0    0  0.74482314292E+03  0.49175907142E+03 -0.36579583640E+02  0.89780692109E+03  0.90170411257E+02 0.  0.
        254    2    1    2    0    0 -0.74482314292E+03 -0.49175907142E+03 -0.42597133112E+03  0.13371349826E+04  0.89993882469E+03 0.  0.
         23    2    4    4    0    0 -0.76767881390E+02  0.39878443509E+02  0.22638864396E+03  0.25878959712E+03  0.90755934204E+02 0.  0.
         23    2    4    4    0    0 -0.66805526153E+03 -0.53163751493E+03 -0.65235997507E+03  0.10783453855E+04  0.91208297641E+02 0.  0.
          1    1    3    3  502    0  0.59983667264E+03  0.40113179610E+03  0.59052538897E+01  0.72162706692E+03  0.00000000000E+00 0. -1.
         -1    1    3    3    0  502  0.14498647028E+03  0.90627275323E+02 -0.42484837530E+02  0.17617985418E+03  0.00000000000E+00 0.  1.
         11    1    5    5    0    0 -0.48538956286E+02  0.64789397108E+02  0.18955973892E+03  0.20612275681E+03  0.00000000000E+00 0. -1.
        -11    1    5    5    0    0 -0.28228925104E+02 -0.24910953600E+02  0.36828905037E+02  0.52666840308E+02  0.00000000000E+00 0.  1.
          1    1    6    6  503    0 -0.66075093192E+03 -0.52487816740E+03 -0.65479052821E+03  0.10681008943E+04  0.00000000000E+00 0. -1.
         -1    1    6    6    0  503 -0.73043296136E+01 -0.67593475283E+01  0.24305531410E+01  0.10244491138E+02  0.00000000000E+00 0.  1.
<mgrwt>
<rscale>  0 0.21865525E+04</rscale>
<asrwt>0</asrwt>
<pdfrwt beam="1">  1        2 0.13633777E+00 0.21865525E+04</pdfrwt>
<pdfrwt beam="2">  1       -2 0.20749945E+00 0.21865525E+04</pdfrwt>
<totfact> 0.32571707E+00</totfact>
</mgrwt>
</event>
<event>
12    2  0.3561489E-008  0.2056075E+04  0.7818608E-02  0.8580843E-01
         -2   -1    0    0    0  501 -0.00000000000E+00  0.00000000000E+00  0.11577838520E+04  0.11577838520E+04  0.00000000000E+00 0.  1.
          2   -1    0    0  501    0  0.00000000000E+00 -0.00000000000E+00 -0.91283124805E+03  0.91283124805E+03  0.00000000000E+00 0. -1.
         23    2    1    2    0    0 -0.64856901139E+03  0.22925126563E+03 -0.41082705251E+03  0.80665533682E+03  0.93359841555E+02 0.  0.
        254    2    1    2    0    0  0.64856901139E+03 -0.22925126563E+03  0.65577965644E+03  0.12639597632E+04  0.83327631666E+03 0.  0.
         23    2    4    4    0    0  0.65079358491E+03 -0.31986567140E+03  0.79233900801E+03  0.10780361632E+04  0.92274197893E+02 0.  0.
         23    2    4    4    0    0 -0.22245735166E+01  0.90614405770E+02 -0.13655935158E+03  0.18592360004E+03  0.87767928586E+02 0.  0.
          1    1    3    3  502    0 -0.26110541357E+03  0.13197662782E+03 -0.14254537208E+03  0.32544285272E+03  0.00000000000E+00 0. -1.
         -1    1    3    3    0  502 -0.38746359782E+03  0.97274637815E+02 -0.26828168043E+03  0.48121248410E+03  0.00000000000E+00 0.  1.
         11    1    5    5    0    0  0.23453962581E+03 -0.14067117230E+03  0.24262294300E+03  0.36559965435E+03  0.00000000000E+00 0.  1.
        -11    1    5    5    0    0  0.41625395909E+03 -0.17919449910E+03  0.54971606502E+03  0.71243650883E+03  0.00000000000E+00 0. -1.
          1    1    6    6  503    0  0.21069865160E+02  0.93825896618E+02 -0.81501510705E+02  0.12605448957E+03  0.00000000000E+00 0. -1.
         -1    1    6    6    0  503 -0.23294438676E+02 -0.32114908480E+01 -0.55057840874E+02  0.59869110469E+02  0.00000000000E+00 0.  1.
<mgrwt>
<rscale>  0 0.20560752E+04</rscale>
<asrwt>0</asrwt>
<pdfrwt beam="1">  1        2 0.14043558E+00 0.20560752E+04</pdfrwt>
<pdfrwt beam="2">  1       -2 0.17812059E+00 0.20560752E+04</pdfrwt>
<totfact> 0.49653454E+00</totfact>
</mgrwt>
</event>
<event>
12    2  0.3561489E-008  0.1282826E+04  0.7818608E-02  0.9043296E-01
          3   -1    0    0  501    0  0.00000000000E+00  0.00000000000E+00  0.53727967287E+03  0.53727967287E+03  0.00000000000E+00 0. -1.
         -3   -1    0    0    0  501 -0.00000000000E+00 -0.00000000000E+00 -0.76572864561E+03  0.76572864561E+03  0.00000000000E+00 0.  1.
         23    2    1    2    0    0  0.20908936548E+02  0.23178659241E+03 -0.75808510553E+02  0.26104530672E+03  0.90749731893E+02 0.  0.
        254    2    1    2    0    0 -0.20908936548E+02 -0.23178659241E+03 -0.15264046218E+03  0.10419630118E+04  0.10041043766E+04 0.  0.
         23    2    4    4    0    0 -0.46179156728E+03 -0.95093059553E+02  0.12458429239E+03  0.49621615636E+03  0.91733779666E+02 0.  0.
         23    2    4    4    0    0  0.44088263073E+03 -0.13669353286E+03 -0.27722475457E+03  0.54574685540E+03  0.89013760891E+02 0.  0.
          3    1    3    3  502    0 -0.33850920953E+02  0.54121314543E+02 -0.21586783935E+02  0.67386873928E+02  0.00000000000E+00 0. -1.
         -3    1    3    3    0  502  0.54759857500E+02  0.17766527787E+03 -0.54221726618E+02  0.19365843279E+03  0.00000000000E+00 0.  1.
         11    1    5    5    0    0 -0.30216015530E+03 -0.23643189583E+02  0.55231937721E+02  0.30807519668E+03  0.00000000000E+00 0. -1.
        -11    1    5    5    0    0 -0.15963141198E+03 -0.71449869970E+02  0.69352354672E+02  0.18814095968E+03  0.00000000000E+00 0.  1.
          3    1    6    6  503    0  0.35231568750E+03 -0.11514400671E+03 -0.26058822954E+03  0.45309018011E+03  0.00000000000E+00 0. -1.
         -3    1    6    6    0  503  0.88566943233E+02 -0.21549526150E+02 -0.16636525033E+02  0.92656675291E+02  0.00000000000E+00 0.  1.
<mgrwt>
<rscale>  0 0.12828257E+04</rscale>
<asrwt>0</asrwt>
<pdfrwt beam="1">  1        3 0.82658411E-01 0.12828257E+04</pdfrwt>
<pdfrwt beam="2">  1       -3 0.11780441E+00 0.12828257E+04</pdfrwt>
<totfact> 0.20573522E+00</totfact>
</mgrwt>
</event>
<event>
12    2  0.3561489E-008  0.1096596E+04  0.7818608E-02  0.9208516E-01
          2   -1    0    0  501    0  0.00000000000E+00  0.00000000000E+00  0.21627981980E+04  0.21627981980E+04  0.00000000000E+00 0. -1.
         -2   -1    0    0    0  501 -0.00000000000E+00 -0.00000000000E+00 -0.13900071281E+03  0.13900071281E+03  0.00000000000E+00 0.  1.
         23    2    1    2    0    0  0.94101227379E+02 -0.38432666756E+02  0.77991270311E+02  0.15711337419E+03  0.90938788401E+02 0.  0.
        254    2    1    2    0    0 -0.94101227379E+02  0.38432666756E+02  0.19458062149E+04  0.21446855367E+04  0.89620428157E+03 0.  0.
         23    2    4    4    0    0 -0.43155041931E+03  0.23597312166E+03  0.11155500328E+04  0.12224939890E+04  0.90114366294E+02 0.  0.
         23    2    4    4    0    0  0.33744919193E+03 -0.19754045491E+03  0.83025618214E+03  0.92219154764E+03  0.90651718692E+02 0.  0.
          3    1    3    3  502    0  0.48996055607E+02 -0.31604439611E+02  0.92413359263E+02  0.10926885667E+03  0.00000000000E+00 0. -1.
         -3    1    3    3    0  502  0.45105171772E+02 -0.68282271459E+01 -0.14422088953E+02  0.47844517516E+02  0.00000000000E+00 0.  1.
         11    1    5    5    0    0 -0.14981767611E+03  0.51125278637E+02  0.28165187311E+03  0.32308962815E+03  0.00000000000E+00 0.  1.
        -11    1    5    5    0    0 -0.28173274320E+03  0.18484784303E+03  0.83389815967E+03  0.89940436087E+03  0.00000000000E+00 0. -1.
          1    1    6    6  503    0  0.30391518952E+03 -0.19508393343E+03  0.70004087714E+03  0.78770515625E+03  0.00000000000E+00 0. -1.
         -1    1    6    6    0  503  0.33534002411E+02 -0.24565214728E+01  0.13021530500E+03  0.13448639140E+03  0.00000000000E+00 0.  1.
<mgrwt>
<rscale>  0 0.10965956E+04</rscale>
<asrwt>0</asrwt>
<pdfrwt beam="1">  1        2 0.33273816E+00 0.10965956E+04</pdfrwt>
<pdfrwt beam="2">  1       -2 0.21384727E-01 0.10965956E+04</pdfrwt>
<totfact> 0.10259416E+02</totfact>
</mgrwt>
</event>
<event>
12    2  0.3561489E-008  0.1836801E+04  0.7818608E-02  0.8686971E-01
         -2   -1    0    0    0  501 -0.00000000000E+00  0.00000000000E+00  0.70921790728E+03  0.70921790728E+03  0.00000000000E+00 0. -1.
          2   -1    0    0  501    0  0.00000000000E+00 -0.00000000000E+00 -0.11892805864E+04  0.11892805864E+04  0.00000000000E+00 0.  1.
         23    2    1    2    0    0  0.15943187523E+03  0.34744200870E+03 -0.78617261498E+03  0.87873264802E+03  0.89270453703E+02 0.  0.
        254    2    1    2    0    0 -0.15943187523E+03 -0.34744200870E+03  0.30610993585E+03  0.10197658457E+04  0.89447449093E+03 0.  0.
         23    2    4    4    0    0 -0.49972145144E+03 -0.27242059580E+03  0.32005669479E+03  0.65920926350E+03  0.90476821108E+02 0.  0.
         23    2    4    4    0    0  0.34028957621E+03 -0.75021412894E+02 -0.13946758937E+02  0.36055658217E+03  0.91549597452E+02 0.  0.
          2    1    3    3  502    0 -0.10659390283E+02  0.28525021210E+02 -0.75999809085E+02  0.81873502534E+02  0.00000000000E+00 0. -1.
         -2    1    3    3    0  502  0.17009126551E+03  0.31891698749E+03 -0.71017280590E+03  0.79685914549E+03  0.00000000000E+00 0.  1.
         11    1    5    5    0    0 -0.22228773730E+02 -0.90002910563E+01 -0.47872709134E+01  0.24454888743E+02  0.00000000000E+00 0.  1.
        -11    1    5    5    0    0 -0.47749267771E+03 -0.26342030475E+03  0.32484396570E+03  0.63475437476E+03  0.00000000000E+00 0. -1.
          1    1    6    6  503    0  0.12106058735E+03 -0.51633698740E+02 -0.42358585104E+02  0.13826045851E+03  0.00000000000E+00 0. -1.
         -1    1    6    6    0  503  0.21922898886E+03 -0.23387714153E+02  0.28411826167E+02  0.22229612366E+03  0.00000000000E+00 0.  1.
<mgrwt>
<rscale>  0 0.18368006E+04</rscale>
<asrwt>0</asrwt>
<pdfrwt beam="1">  1        2 0.18296624E+00 0.18368006E+04</pdfrwt>
<pdfrwt beam="2">  1       -2 0.10911045E+00 0.18368006E+04</pdfrwt>
<totfact> 0.12126823E+01</totfact>
</mgrwt>
</event>
<event>
12    2  0.3561489E-008  0.1729410E+04  0.7818608E-02  0.8744766E-01
          2   -1    0    0  501    0  0.00000000000E+00  0.00000000000E+00  0.39724814130E+03  0.39724814130E+03  0.00000000000E+00 0. -1.
         -2   -1    0    0    0  501 -0.00000000000E+00 -0.00000000000E+00 -0.18822364733E+04  0.18822364733E+04  0.00000000000E+00 0.  1.
         23    2    1    2    0    0  0.49503279663E+03 -0.24056243442E+03 -0.13929070789E+03  0.57497857217E+03  0.90943403030E+02 0.  0.
        254    2    1    2    0    0 -0.49503279663E+03  0.24056243442E+03 -0.13456976241E+04  0.17045060424E+04  0.88966903878E+03 0.  0.
         23    2    4    4    0    0 -0.38217338545E+03 -0.22300652708E+03 -0.27494844512E+03  0.52868314921E+03  0.90115576494E+02 0.  0.
         23    2    4    4    0    0 -0.11285941118E+03  0.46356896151E+03 -0.10707491790E+04  0.11758228932E+04  0.91772779949E+02 0.  0.
          4    1    3    3  502    0  0.49716556159E+03 -0.23148121460E+03 -0.13546591733E+03  0.56489659505E+03  0.00000000000E+00 0. -1.
         -4    1    3    3    0  502 -0.21327649564E+01 -0.90812198238E+01 -0.38247905538E+01  0.10081977119E+02  0.00000000000E+00 0.  1.
         11    1    5    5    0    0 -0.74374711660E+02 -0.85486965927E+02 -0.85728295148E+02  0.14208785897E+03  0.00000000000E+00 0. -1.
        -11    1    5    5    0    0 -0.30779867379E+03 -0.13751956116E+03 -0.18922014997E+03  0.38659529024E+03  0.00000000000E+00 0.  1.
          4    1    6    6  503    0 -0.61941782044E+02  0.94398451799E+02 -0.23232700520E+03  0.25830929021E+03  0.00000000000E+00 0. -1.
         -4    1    6    6    0  503 -0.50917629140E+02  0.36917050971E+03 -0.83842217379E+03  0.91751360301E+03  0.00000000000E+00 0.  1.
<mgrwt>
<rscale>  0 0.17294102E+04</rscale>
<asrwt>0</asrwt>
<pdfrwt beam="1">  1        2 0.61115098E-01 0.17294102E+04</pdfrwt>
<pdfrwt beam="2">  1       -2 0.28957484E+00 0.17294102E+04</pdfrwt>
<totfact> 0.28050461E+00</totfact>
</mgrwt>
</event>
<event>
12    2  0.3561489E-008  0.2150459E+04  0.7818608E-02  0.8539336E-01
          2   -1    0    0  501    0  0.00000000000E+00  0.00000000000E+00  0.26985051161E+04  0.26985051161E+04  0.00000000000E+00 0. -1.
         -2   -1    0    0    0  501 -0.00000000000E+00 -0.00000000000E+00 -0.42842938274E+03  0.42842938274E+03  0.00000000000E+00 0.  1.
         23    2    1    2    0    0 -0.42635675495E+03 -0.76764799636E+03  0.79904117121E+03  0.11907508298E+04  0.91417813713E+02 0.  0.
        254    2    1    2    0    0  0.42635675495E+03  0.76764799636E+03  0.14710345622E+04  0.19361836690E+04  0.90210918869E+03 0.  0.
         23    2    4    4    0    0  0.69150493187E+03  0.65173992211E+03  0.11292034304E+04  0.14786614597E+04  0.91626023529E+02 0.  0.
         23    2    4    4    0    0 -0.26514817693E+03  0.11590807425E+03  0.34183113175E+03  0.45752220935E+03  0.93486961735E+02 0.  0.
          3    1    3    3  502    0 -0.10208038047E+03 -0.24605712237E+03  0.28184901422E+03  0.38781874421E+03  0.00000000000E+00 0. -1.
         -3    1    3    3    0  502 -0.32427637447E+03 -0.52159087399E+03  0.51719215700E+03  0.80293208563E+03  0.00000000000E+00 0.  1.
         11    1    5    5    0    0  0.26502129048E+03  0.30539962734E+03  0.51033219817E+03  0.65110995175E+03  0.00000000000E+00 0.  1.
        -11    1    5    5    0    0  0.42648364139E+03  0.34634029477E+03  0.61887123228E+03  0.82755150794E+03  0.00000000000E+00 0. -1.
          3    1    6    6  503    0 -0.23803271362E+03  0.13238765865E+03  0.30637320732E+03  0.40993976031E+03  0.00000000000E+00 0. -1.
         -3    1    6    6    0  503 -0.27115463303E+02 -0.16479584403E+02  0.35457924424E+02  0.47582449040E+02  0.00000000000E+00 0.  1.
<mgrwt>
<rscale>  0 0.21504594E+04</rscale>
<asrwt>0</asrwt>
<pdfrwt beam="1">  1        2 0.41515462E+00 0.21504594E+04</pdfrwt>
<pdfrwt beam="2">  1       -2 0.65912214E-01 0.21504594E+04</pdfrwt>
<totfact> 0.51767597E+00</totfact>
</mgrwt>
</event>
<event>
12    2  0.3561489E-008  0.1291604E+04  0.7818608E-02  0.9036250E-01
          1   -1    0    0  501    0  0.00000000000E+00  0.00000000000E+00  0.26605457841E+04  0.26605457841E+04  0.00000000000E+00 0. -1.
         -1   -1    0    0    0  501 -0.00000000000E+00 -0.00000000000E+00 -0.15675740642E+03  0.15675740642E+03  0.00000000000E+00 0.  1.
         23    2    1    2    0    0  0.29596653939E+03  0.18025863337E+03  0.97580131050E+03  0.10386526483E+04  0.80757407367E+02 0.  0.
        254    2    1    2    0    0 -0.29596653939E+03 -0.18025863337E+03  0.15279870672E+04  0.17786505422E+04  0.84188117132E+03 0.  0.
         23    2    4    4    0    0 -0.23735057169E+03 -0.14936142312E+03  0.54468259057E+02  0.30085061262E+03  0.94340719038E+02 0.  0.
         23    2    4    4    0    0 -0.58615967696E+02 -0.30897210251E+02  0.14735188081E+04  0.14777999296E+04  0.90799145655E+02 0.  0.
          2    1    3    3  502    0  0.27287578553E+03  0.15815452511E+03  0.93536533932E+03  0.98710808230E+03  0.00000000000E+00 0. -1.
         -2    1    3    3    0  502  0.23090753860E+02  0.22104108261E+02  0.40435971176E+02  0.51544565967E+02  0.00000000000E+00 0.  1.
         11    1    5    5    0    0 -0.93853317765E+02 -0.40848083066E+02  0.63952542631E+02  0.12069357421E+03  0.00000000000E+00 0. -1.
        -11    1    5    5    0    0 -0.14349725393E+03 -0.10851334005E+03 -0.94842835742E+01  0.18015703841E+03  0.00000000000E+00 0.  1.
          1    1    6    6  503    0 -0.50111971251E+02 -0.13011532273E+02  0.32399838684E+03  0.32810892141E+03  0.00000000000E+00 0. -1.
         -1    1    6    6    0  503 -0.85039964449E+01 -0.17885677978E+02  0.11495204213E+04  0.11496910082E+04  0.00000000000E+00 0.  1.
<mgrwt>
<rscale>  0 0.12916041E+04</rscale>
<asrwt>0</asrwt>
<pdfrwt beam="1">  1        1 0.40931470E+00 0.12916041E+04</pdfrwt>
<pdfrwt beam="2">  1       -1 0.24116526E-01 0.12916041E+04</pdfrwt>
<totfact> 0.15422393E+01</totfact>
</mgrwt>
</event>
<event>
12    2  0.3561489E-008  0.1171150E+04  0.7818608E-02  0.9138491E-01
          1   -1    0    0  501    0  0.00000000000E+00  0.00000000000E+00  0.11326553010E+04  0.11326553010E+04  0.00000000000E+00 0. -1.
         -1   -1    0    0    0  501 -0.00000000000E+00 -0.00000000000E+00 -0.30273807085E+03  0.30273807085E+03  0.00000000000E+00 0.  1.
         23    2    1    2    0    0 -0.11980034200E+03  0.15434357555E+03  0.31023121117E+03  0.37799400591E+03  0.91989145354E+02 0.  0.
        254    2    1    2    0    0  0.11980034200E+03 -0.15434357555E+03  0.51968601900E+03  0.10573993660E+04  0.89991432900E+03 0.  0.
         23    2    4    4    0    0  0.33001923878E+03  0.26281516208E+03  0.34021158328E+03  0.54906594310E+03  0.88005574174E+02 0.  0.
         23    2    4    4    0    0 -0.21021889678E+03 -0.41715873763E+03  0.17947443572E+03  0.50833342287E+03  0.89321882976E+02 0.  0.
          3    1    3    3  502    0 -0.11074988369E+03  0.15947863999E+03  0.24833336828E+03  0.31522759262E+03  0.00000000000E+00 0. -1.
         -3    1    3    3    0  502 -0.90504583097E+01 -0.51350644384E+01  0.61897842890E+02  0.62766413287E+02  0.00000000000E+00 0.  1.
         11    1    5    5    0    0  0.19974658390E+03  0.10289103503E+03  0.17878614548E+03  0.28714064269E+03  0.00000000000E+00 0.  1.
        -11    1    5    5    0    0  0.13027265488E+03  0.15992412706E+03  0.16142543780E+03  0.26192530041E+03  0.00000000000E+00 0. -1.
          3    1    6    6  503    0 -0.14673698422E+03 -0.32782608960E+03  0.99597711642E+02  0.37272160083E+03  0.00000000000E+00 0. -1.
         -3    1    6    6    0  503 -0.63481912561E+02 -0.89332648038E+02  0.79876724078E+02  0.13561182204E+03  0.00000000000E+00 0.  1.
<mgrwt>
<rscale>  0 0.11711497E+04</rscale>
<asrwt>0</asrwt>
<pdfrwt beam="1">  1        1 0.17425466E+00 0.11711497E+04</pdfrwt>
<pdfrwt beam="2">  1       -1 0.46575089E-01 0.11711497E+04</pdfrwt>
<totfact> 0.54541475E+01</totfact>
</mgrwt>
</event>
<event>
12    2  0.3561489E-008  0.1398534E+04  0.7818608E-02  0.8954880E-01
         -2   -1    0    0    0  501 -0.00000000000E+00  0.00000000000E+00  0.64955217803E+03  0.64955217803E+03  0.00000000000E+00 0.  1.
          2   -1    0    0  501    0  0.00000000000E+00 -0.00000000000E+00 -0.75278716248E+03  0.75278716248E+03  0.00000000000E+00 0. -1.
         23    2    1    2    0    0 -0.84275953829E+02 -0.24543587511E+03 -0.33922853968E+03  0.43621495073E+03  0.88692028518E+02 0.  0.
        254    2    1    2    0    0  0.84275953829E+02  0.24543587511E+03  0.23599355524E+03  0.96612438978E+03  0.90020118486E+03 0.  0.
         23    2    4    4    0    0 -0.14120792283E+02  0.49684343797E+03 -0.10999951276E+03  0.51793989010E+03  0.95441282046E+02 0.  0.
         23    2    4    4    0    0  0.98396746112E+02 -0.25140756285E+03  0.34599306800E+03  0.44818449968E+03  0.90942071374E+02 0.  0.
          2    1    3    3  502    0 -0.39118504282E+02 -0.18177614882E+03 -0.28816269366E+03  0.34294396580E+03  0.00000000000E+00 0. -1.
         -2    1    3    3    0  502 -0.45157449548E+02 -0.63659726294E+02 -0.51065846015E+02  0.93270984935E+02  0.00000000000E+00 0.  1.
         11    1    5    5    0    0  0.66951840816E+01  0.25819656263E+03 -0.10359803679E+02  0.25849103655E+03  0.00000000000E+00 0.  1.
        -11    1    5    5    0    0 -0.20815976364E+02  0.23864687533E+03 -0.99639709085E+02  0.25944885354E+03  0.00000000000E+00 0. -1.
          3    1    6    6  503    0  0.91401773520E+02 -0.10998837290E+03  0.18380829242E+03  0.23288884631E+03  0.00000000000E+00 0. -1.
         -3    1    6    6    0  503  0.69949725921E+01 -0.14141918995E+03  0.16218477558E+03  0.21529565337E+03  0.00000000000E+00 0.  1.
<mgrwt>
<rscale>  0 0.13985343E+04</rscale>
<asrwt>0</asrwt>
<pdfrwt beam="1">  1        2 0.11581341E+00 0.13985343E+04</pdfrwt>
<pdfrwt beam="2">  1       -2 0.99931104E-01 0.13985343E+04</pdfrwt>
<totfact> 0.30062779E+01</totfact>
</mgrwt>
</event>
<event>
12    2  0.3561489E-008  0.1670930E+04  0.7818608E-02  0.8778120E-01
         -1   -1    0    0    0  501 -0.00000000000E+00  0.00000000000E+00  0.14688997671E+04  0.14688997671E+04  0.00000000000E+00 0.  1.
          1   -1    0    0  501    0  0.00000000000E+00 -0.00000000000E+00 -0.47518699144E+03  0.47518699144E+03  0.00000000000E+00 0. -1.
         23    2    1    2    0    0 -0.54347512019E+03  0.20691028493E+03  0.26031101773E+03  0.64325403406E+03  0.88526008086E+02 0.  0.
        254    2    1    2    0    0  0.54347512019E+03 -0.20691028493E+03  0.73340175799E+03  0.13008327245E+04  0.90338838065E+03 0.  0.
         23    2    4    4    0    0 -0.56786921231E+02 -0.41387152649E+03  0.22925251373E+03  0.48502531957E+03  0.90434787008E+02 0.  0.
         23    2    4    4    0    0  0.60026204142E+03  0.20696124156E+03  0.50414924425E+03  0.81580740496E+03  0.90707153078E+02 0.  0.
          2    1    3    3  502    0 -0.37341247938E+03  0.17078405816E+03  0.21543397692E+03  0.46369804042E+03  0.00000000000E+00 0. -1.
         -2    1    3    3    0  502 -0.17006264081E+03  0.36126226768E+02  0.44877040808E+02  0.17955599364E+03  0.00000000000E+00 0.  1.
         11    1    5    5    0    0 -0.76492544042E+02 -0.29604730785E+03  0.14224018072E+03  0.33723491336E+03  0.00000000000E+00 0. -1.
        -11    1    5    5    0    0  0.19705622811E+02 -0.11782421864E+03  0.87012333009E+02  0.14779040620E+03  0.00000000000E+00 0.  1.
          4    1    6    6  503    0  0.87770228422E+02  0.25014621567E+02  0.35575706663E+02  0.97953944249E+02  0.00000000000E+00 0.  1.
         -4    1    6    6    0  503  0.51249181300E+03  0.18194662000E+03  0.46857353759E+03  0.71785346071E+03  0.00000000000E+00 0. -1.
<mgrwt>
<rscale>  0 0.16709304E+04</rscale>
<asrwt>0</asrwt>
<pdfrwt beam="1">  1        1 0.73105692E-01 0.16709304E+04</pdfrwt>
<pdfrwt beam="2">  1       -1 0.22598458E+00 0.16709304E+04</pdfrwt>
<totfact> 0.45515319E+00</totfact>
</mgrwt>
</event>
<event>
12    2  0.3561489E-008  0.1590997E+04  0.7818608E-02  0.8826098E-01
         -2   -1    0    0    0  501 -0.00000000000E+00  0.00000000000E+00  0.70680701200E+03  0.70680701200E+03  0.00000000000E+00 0.  1.
          2   -1    0    0  501    0  0.00000000000E+00 -0.00000000000E+00 -0.89531948909E+03  0.89531948909E+03  0.00000000000E+00 0. -1.
         23    2    1    2    0    0 -0.10418167050E+03  0.50335708753E+03  0.84261840830E+02  0.52928188153E+03  0.93899277197E+02 0.  0.
        254    2    1    2    0    0  0.10418167050E+03 -0.50335708753E+03 -0.27277431792E+03  0.10728446196E+04  0.90131435758E+03 0.  0.
         23    2    4    4    0    0  0.44213329551E+02 -0.61334881816E+03  0.13579294098E+03  0.63606137552E+03  0.89346289014E+02 0.  0.
         23    2    4    4    0    0  0.59968340946E+02  0.10999173063E+03 -0.40856725890E+03  0.43678324405E+03  0.90321727823E+02 0.  0.
          2    1    3    3  502    0 -0.68450937840E+02  0.12863624039E+03  0.14298167532E+02  0.14641465374E+03  0.00000000000E+00 0. -1.
         -2    1    3    3    0  502 -0.35730732657E+02  0.37472084714E+03  0.69963673299E+02  0.38286722779E+03  0.00000000000E+00 0.  1.
         11    1    5    5    0    0 -0.22011329427E+02 -0.14865883065E+03  0.12764252743E+02  0.15082066404E+03  0.00000000000E+00 0. -1.
        -11    1    5    5    0    0  0.66224658977E+02 -0.46468998751E+03  0.12302868823E+03  0.48524071148E+03  0.00000000000E+00 0.  1.
          1    1    6    6  503    0 -0.19573115619E+02  0.48812632711E+01 -0.32159925835E+02  0.37963066470E+02  0.00000000000E+00 0. -1.
         -1    1    6    6    0  503  0.79541456565E+02  0.10511046736E+03 -0.37640733307E+03  0.39882017758E+03  0.00000000000E+00 0.  1.
<mgrwt>
<rscale>  0 0.15909973E+04</rscale>
<asrwt>0</asrwt>
<pdfrwt beam="1">  1        2 0.13774146E+00 0.15909973E+04</pdfrwt>
<pdfrwt beam="2">  1       -2 0.10873954E+00 0.15909973E+04</pdfrwt>
<totfact> 0.19151397E+01</totfact>
</mgrwt>
</event>
<event>
12    2  0.3561489E-008  0.2006979E+04  0.7818608E-02  0.8603365E-01
         -1   -1    0    0    0  501 -0.00000000000E+00  0.00000000000E+00  0.11197197092E+04  0.11197197092E+04  0.00000000000E+00 0.  1.
          1   -1    0    0  501    0  0.00000000000E+00 -0.00000000000E+00 -0.89932427279E+03  0.89932427279E+03  0.00000000000E+00 0. -1.
         23    2    1    2    0    0 -0.18963756420E+03 -0.23257292816E+03  0.83988160846E+03  0.89667820297E+03  0.92618091114E+02 0.  0.
        254    2    1    2    0    0  0.18963756420E+03  0.23257292816E+03 -0.61948617204E+03  0.11223657790E+04  0.88650394916E+03 0.  0.
         23    2    4    4    0    0  0.50502473554E+03  0.30679653471E+03 -0.41613175758E+03  0.72845599207E+03  0.91150400404E+02 0.  0.
         23    2    4    4    0    0 -0.31538717134E+03 -0.74223606552E+02 -0.20335441446E+03  0.39390978694E+03  0.93987715960E+02 0.  0.
          2    1    3    3  502    0 -0.14189691171E+03 -0.10123161094E+03  0.46694849687E+03  0.49842097803E+03  0.00000000000E+00 0. -1.
         -2    1    3    3    0  502 -0.47740652491E+02 -0.13134131721E+03  0.37293311158E+03  0.39825722495E+03  0.00000000000E+00 0.  1.
         11    1    5    5    0    0  0.26366351559E+03  0.20966187714E+03 -0.21532704558E+03  0.39980281232E+03  0.00000000000E+00 0. -1.
        -11    1    5    5    0    0  0.24136121995E+03  0.97134657566E+02 -0.20080471200E+03  0.32865317975E+03  0.00000000000E+00 0.  1.
          1    1    6    6  503    0 -0.31646689255E+03 -0.80784915529E+02 -0.18724355261E+03  0.37648060329E+03  0.00000000000E+00 0. -1.
         -1    1    6    6    0  503  0.10797212065E+01  0.65613089774E+01 -0.16110861849E+02  0.17429183655E+02  0.00000000000E+00 0.  1.
<mgrwt>
<rscale>  0 0.20069789E+04</rscale>
<asrwt>0</asrwt>
<pdfrwt beam="1">  1        1 0.13835758E+00 0.20069789E+04</pdfrwt>
<pdfrwt beam="2">  1       -1 0.17226457E+00 0.20069789E+04</pdfrwt>
<totfact> 0.40003755E+00</totfact>
</mgrwt>
</event>
<event>
12    2  0.3561489E-008  0.2496654E+04  0.7818608E-02  0.8404178E-01
         -2   -1    0    0    0  501 -0.00000000000E+00  0.00000000000E+00  0.90523446483E+03  0.90523446483E+03  0.00000000000E+00 0.  1.
          2   -1    0    0  501    0  0.00000000000E+00 -0.00000000000E+00 -0.17214550625E+04  0.17214550625E+04  0.00000000000E+00 0. -1.
         23    2    1    2    0    0 -0.21258936922E+03  0.55188679518E+03 -0.12715526786E+04  0.14054240806E+04  0.92721935445E+02 0.  0.
        254    2    1    2    0    0  0.21258936922E+03 -0.55188679518E+03  0.45533208091E+03  0.12212654467E+04  0.96663783956E+03 0.  0.
         23    2    4    4    0    0 -0.28309943988E+03  0.33328751353E+02  0.31968613081E+03  0.43710281427E+03  0.87198334189E+02 0.  0.
         23    2    4    4    0    0  0.49568880910E+03 -0.58521554653E+03  0.13564595010E+03  0.78416263246E+03  0.91250090394E+02 0.  0.
          4    1    3    3  502    0 -0.15076433536E+03  0.30771682219E+03 -0.81268795897E+03  0.88197576278E+03  0.00000000000E+00 0. -1.
         -4    1    3    3    0  502 -0.61825033865E+02  0.24416997299E+03 -0.45886471960E+03  0.52344831780E+03  0.00000000000E+00 0.  1.
         11    1    5    5    0    0 -0.16748855309E+02  0.24541153120E+02  0.48590037509E+02  0.56954228076E+02  0.00000000000E+00 0. -1.
        -11    1    5    5    0    0 -0.26635058457E+03  0.87875982334E+01  0.27109609330E+03  0.38014858619E+03  0.00000000000E+00 0.  1.
          1    1    6    6  503    0  0.19496463399E+02 -0.59316705808E+02  0.37621308241E+01  0.62551876881E+02  0.00000000000E+00 0. -1.
         -1    1    6    6    0  503  0.47619234570E+03 -0.52589884072E+03  0.13188381928E+03  0.72161075558E+03  0.00000000000E+00 0.  1.
<mgrwt>
<rscale>  0 0.24966541E+04</rscale>
<asrwt>0</asrwt>
<pdfrwt beam="1">  1        2 0.26483924E+00 0.24966541E+04</pdfrwt>
<pdfrwt beam="2">  1       -2 0.13926684E+00 0.24966541E+04</pdfrwt>
<totfact> 0.30995378E+00</totfact>
</mgrwt>
</event>
<event>
12    2  0.3563099E-008  0.1974402E+04  0.7818608E-02  0.8618683E-01
          2   -1    0    0  501    0  0.00000000000E+00  0.00000000000E+00  0.97485099275E+03  0.97485099275E+03  0.00000000000E+00 0. -1.
         -2   -1    0    0    0  501 -0.00000000000E+00 -0.00000000000E+00 -0.99970711366E+03  0.99970711366E+03  0.00000000000E+00 0.  1.
         23    2    1    2    0    0 -0.47087280669E+03  0.93923504621E+02  0.60130660631E+03  0.77518130877E+03  0.93774206823E+02 0.  0.
        254    2    1    2    0    0  0.47087280669E+03 -0.93923504621E+02 -0.62616272723E+03  0.11993767976E+04  0.90326193153E+03 0.  0.
         23    2    4    4    0    0 -0.21827448554E+03 -0.13693886469E+03 -0.36001023842E+03  0.45359664947E+03  0.98724591385E+02 0.  0.
         23    2    4    4    0    0  0.68914729223E+03  0.43015360074E+02 -0.26615248880E+03  0.74578014817E+03  0.92609775488E+02 0.  0.
          3    1    3    3  502    0 -0.44507835138E+03  0.96246269260E+02  0.52695359126E+03  0.69644681818E+03  0.00000000000E+00 0. -1.
         -3    1    3    3    0  502 -0.25794455312E+02 -0.23227646398E+01  0.74353015052E+02  0.78734490585E+02  0.00000000000E+00 0.  1.
         11    1    5    5    0    0 -0.55992928879E+02  0.48128862106E+01 -0.45269688890E+02  0.72164511294E+02  0.00000000000E+00 0. -1.
        -11    1    5    5    0    0 -0.16228155666E+03 -0.14175175090E+03 -0.31474054953E+03  0.38143213818E+03  0.00000000000E+00 0.  1.
          1    1    6    6  503    0  0.24953121445E+02 -0.16177154963E+02 -0.87609183665E+01  0.31001811289E+02  0.00000000000E+00 0. -1.
         -1    1    6    6    0  503  0.66419417078E+03  0.59192515037E+02 -0.25739157044E+03  0.71477833688E+03  0.00000000000E+00 0.  1.
<mgrwt>
<rscale>  0 0.19744017E+04</rscale>
<asrwt>0</asrwt>
<pdfrwt beam="1">  1        2 0.14997708E+00 0.19744017E+04</pdfrwt>
<pdfrwt beam="2">  1       -2 0.15380109E+00 0.19744017E+04</pdfrwt>
<totfact> 0.68229062E+00</totfact>
</mgrwt>
</event>
<event>
12    2  0.3561489E-008  0.1218420E+04  0.7818608E-02  0.9096885E-01
          2   -1    0    0  501    0  0.00000000000E+00  0.00000000000E+00  0.21373995590E+04  0.21373995590E+04  0.00000000000E+00 0.  1.
         -2   -1    0    0    0  501 -0.00000000000E+00 -0.00000000000E+00 -0.17363944395E+03  0.17363944395E+03  0.00000000000E+00 0. -1.
         23    2    1    2    0    0  0.82282084151E+02 -0.21382071658E+03  0.66730450052E+03  0.71345135197E+03  0.10596176197E+03 0.  0.
        254    2    1    2    0    0 -0.82282084151E+02  0.21382071658E+03  0.12964556146E+04  0.15975876510E+04  0.90498591255E+03 0.  0.
         23    2    4    4    0    0  0.28959650556E+03 -0.18459546682E+03  0.33015068996E+03  0.48482553424E+03  0.90081619495E+02 0.  0.
         23    2    4    4    0    0 -0.37187858971E+03  0.39841618340E+03  0.96630492460E+03  0.11127621168E+04  0.86401276130E+02 0.  0.
          2    1    3    3  502    0 -0.13338337900E+02 -0.50182589771E+02  0.24688326568E+03  0.25228466153E+03  0.00000000000E+00 0. -1.
         -2    1    3    3    0  502  0.95620422051E+02 -0.16363812681E+03  0.42042123484E+03  0.46116669044E+03  0.00000000000E+00 0.  1.
         11    1    5    5    0    0  0.40439174825E+02 -0.67337740958E+02  0.89913096260E+02  0.11939038109E+03  0.00000000000E+00 0. -1.
        -11    1    5    5    0    0  0.24915733074E+03 -0.11725772586E+03  0.24023759370E+03  0.36543515315E+03  0.00000000000E+00 0.  1.
          4    1    6    6  503    0 -0.56724103077E+02  0.89902108574E+02  0.24872737158E+03  0.27049088408E+03  0.00000000000E+00 0. -1.
         -4    1    6    6    0  503 -0.31515448664E+03  0.30851407483E+03  0.71757755302E+03  0.84227123268E+03  0.00000000000E+00 0.  1.
<mgrwt>
<rscale>  0 0.12184201E+04</rscale>
<asrwt>0</asrwt>
<pdfrwt beam="1">  1        2 0.32883068E+00 0.12184201E+04</pdfrwt>
<pdfrwt beam="2">  1       -2 0.26713762E-01 0.12184201E+04</pdfrwt>
<totfact> 0.70305234E+01</totfact>
</mgrwt>
</event>
<event>
12    2  0.3561489E-008  0.2209352E+04  0.7818608E-02  0.8514546E-01
          1   -1    0    0  501    0  0.00000000000E+00  0.00000000000E+00  0.11559098896E+04  0.11559098896E+04  0.00000000000E+00 0. -1.
         -1   -1    0    0    0  501 -0.00000000000E+00 -0.00000000000E+00 -0.10557129987E+04  0.10557129987E+04  0.00000000000E+00 0.  1.
         23    2    1    2    0    0 -0.57479461383E+02 -0.55223983717E+03  0.77206908707E+03  0.95543726397E+03  0.92178977687E+02 0.  0.
        254    2    1    2    0    0  0.57479461383E+02  0.55223983717E+03 -0.67187219617E+03  0.12561856243E+04  0.90460894776E+03 0.  0.
         23    2    4    4    0    0 -0.15671053432E+03  0.72061011876E+03 -0.61126066658E+03  0.96217990336E+03  0.91178007843E+02 0.  0.
         23    2    4    4    0    0  0.21418999570E+03 -0.16837028158E+03 -0.60611529597E+02  0.29400572090E+03  0.92410499520E+02 0.  0.
          2    1    3    3  502    0  0.69229231368E+01 -0.97969896592E+02  0.88745843448E+02  0.13237013346E+03  0.00000000000E+00 0.  1.
         -2    1    3    3    0  502 -0.64402384520E+02 -0.45426994058E+03  0.68332324362E+03  0.82306713051E+03  0.00000000000E+00 0. -1.
         11    1    5    5    0    0 -0.99845848041E+02  0.26658994663E+03 -0.21253152428E+03  0.35525911927E+03  0.00000000000E+00 0. -1.
        -11    1    5    5    0    0 -0.56864686280E+02  0.45402017212E+03 -0.39872914230E+03  0.60692078409E+03  0.00000000000E+00 0.  1.
          4    1    6    6  503    0  0.72306636582E+02 -0.34456711946E+02 -0.57995685722E+02  0.98888898539E+02  0.00000000000E+00 0. -1.
         -4    1    6    6    0  503  0.14188335912E+03 -0.13391356964E+03 -0.26158438752E+01  0.19511682236E+03  0.00000000000E+00 0.  1.
<mgrwt>
<rscale>  0 0.22093520E+04</rscale>
<asrwt>0</asrwt>
<pdfrwt beam="1">  1        1 0.17783229E+00 0.22093520E+04</pdfrwt>
<pdfrwt beam="2">  1       -1 0.16241738E+00 0.22093520E+04</pdfrwt>
<totfact> 0.29396587E+00</totfact>
</mgrwt>
</event>
<event>
12    2  0.3561489E-008  0.3493702E+04  0.7818608E-02  0.8115284E-01
         -2   -1    0    0    0  501 -0.00000000000E+00  0.00000000000E+00  0.12208459493E+04  0.12208459493E+04  0.00000000000E+00 0. -1.
          2   -1    0    0  501    0  0.00000000000E+00 -0.00000000000E+00 -0.24994873484E+04  0.24994873484E+04  0.00000000000E+00 0.  1.
         23    2    1    2    0    0  0.22702634087E+03  0.12266025283E+04 -0.16903843452E+04  0.21027234148E+04  0.89172880823E+02 0.  0.
        254    2    1    2    0    0 -0.22702634087E+03 -0.12266025283E+04  0.41174294613E+03  0.16176098829E+04  0.94394637441E+03 0.  0.
         23    2    4    4    0    0 -0.18358213836E+03 -0.48696142710E+03  0.64652764289E+03  0.83486878859E+03  0.90410553176E+02 0.  0.
         23    2    4    4    0    0 -0.43444202509E+02 -0.73964110116E+03 -0.23478469676E+03  0.78274109431E+03  0.92754566615E+02 0.  0.
          4    1    3    3  502    0  0.29649940564E+00  0.92618583062E+02 -0.15485336720E+03  0.18043795380E+03  0.00000000000E+00 0. -1.
         -4    1    3    3    0  502  0.22672984147E+03  0.11339839452E+04 -0.15355309780E+04  0.19222854610E+04  0.00000000000E+00 0.  1.
         11    1    5    5    0    0 -0.68959875088E+02 -0.30798933805E+03  0.37985972134E+03  0.49386871193E+03  0.00000000000E+00 0.  1.
        -11    1    5    5    0    0 -0.11462226328E+03 -0.17897208905E+03  0.26666792155E+03  0.34100007666E+03  0.00000000000E+00 0. -1.
          3    1    6    6  503    0  0.24280431598E+02 -0.95339778072E+02 -0.40415993821E+02  0.10636101352E+03  0.00000000000E+00 0. -1.
         -3    1    6    6    0  503 -0.67724634107E+02 -0.64430132309E+03 -0.19436870294E+03  0.67638008078E+03  0.00000000000E+00 0.  1.
<mgrwt>
<rscale>  0 0.34937023E+04</rscale>
<asrwt>0</asrwt>
<pdfrwt beam="1">  1        2 0.38453651E+00 0.34937023E+04</pdfrwt>
<pdfrwt beam="2">  1       -2 0.18782245E+00 0.34937023E+04</pdfrwt>
<totfact> 0.45910335E-01</totfact>
</mgrwt>
</event>
<event>
12    2  0.3561489E-008  0.1355797E+04  0.7818608E-02  0.8986452E-01
          2   -1    0    0  501    0  0.00000000000E+00  0.00000000000E+00  0.15886626271E+04  0.15886626271E+04  0.00000000000E+00 0. -1.
         -2   -1    0    0    0  501 -0.00000000000E+00 -0.00000000000E+00 -0.28926606228E+03  0.28926606228E+03  0.00000000000E+00 0.  1.
         23    2    1    2    0    0  0.19793349516E+02 -0.71600453966E+00 -0.14945723999E+03  0.17457048238E+03  0.88006234918E+02 0.  0.
        254    2    1    2    0    0 -0.19793349516E+02  0.71600453966E+00  0.14488538048E+04  0.17033582070E+04  0.89546610450E+03 0.  0.
         23    2    4    4    0    0  0.26128931908E+03 -0.32162875275E+03  0.48276462898E+03  0.64287247041E+03  0.92228863988E+02 0.  0.
         23    2    4    4    0    0 -0.28108266859E+03  0.32234475729E+03  0.96608917580E+03  0.10604857366E+04  0.91586531469E+02 0.  0.
          3    1    3    3  502    0  0.14103522360E+02 -0.40948287579E+02 -0.10874069439E+03  0.11704789710E+03  0.00000000000E+00 0. -1.
         -3    1    3    3    0  502  0.56898271558E+01  0.40232283039E+02 -0.40716545599E+02  0.57522585278E+02  0.00000000000E+00 0.  1.
         11    1    5    5    0    0  0.21969002964E+03 -0.20881728455E+03  0.36678909696E+03  0.47581783184E+03  0.00000000000E+00 0. -1.
        -11    1    5    5    0    0  0.41599289438E+02 -0.11281146819E+03  0.11597553203E+03  0.16705463857E+03  0.00000000000E+00 0.  1.
          3    1    6    6  503    0 -0.24576805864E+03  0.31677360005E+03  0.90216652582E+03  0.98724459616E+03  0.00000000000E+00 0. -1.
         -3    1    6    6    0  503 -0.35314609949E+02  0.55711572423E+01  0.63922649972E+02  0.73241140408E+02  0.00000000000E+00 0.  1.
<mgrwt>
<rscale>  0 0.13557967E+04</rscale>
<asrwt>0</asrwt>
<pdfrwt beam="1">  1        2 0.24440963E+00 0.13557967E+04</pdfrwt>
<pdfrwt beam="2">  1       -2 0.44502472E-01 0.13557967E+04</pdfrwt>
<totfact> 0.52894287E+01</totfact>
</mgrwt>
</event>
<event>
12    2  0.3561489E-008  0.1421132E+04  0.7818608E-02  0.8938663E-01
          2   -1    0    0  501    0  0.00000000000E+00  0.00000000000E+00  0.12864296119E+04  0.12864296119E+04  0.00000000000E+00 0. -1.
         -2   -1    0    0    0  501 -0.00000000000E+00 -0.00000000000E+00 -0.39248475143E+03  0.39248475143E+03  0.00000000000E+00 0.  1.
         23    2    1    2    0    0  0.32708932752E+03 -0.19448221867E+03  0.57937502263E+02  0.39438719282E+03  0.85870496306E+02 0.  0.
        254    2    1    2    0    0 -0.32708932752E+03  0.19448221867E+03  0.83600735822E+03  0.12845271705E+04  0.89793707311E+03 0.  0.
         23    2    4    4    0    0 -0.24864078766E+03  0.53962612368E+03  0.59882638211E+03  0.84899979879E+03  0.95859416778E+02 0.  0.
         23    2    4    4    0    0 -0.78448539862E+02 -0.34514390502E+03  0.23718097611E+03  0.43552737173E+03  0.90281712021E+02 0.  0.
          2    1    3    3  502    0  0.31031021964E+03 -0.15525551939E+03  0.57538930439E+02  0.35172068069E+03  0.00000000000E+00 0.  1.
         -2    1    3    3    0  502  0.16779107888E+02 -0.39226699277E+02  0.39857182409E+00  0.42666512128E+02  0.00000000000E+00 0. -1.
         11    1    5    5    0    0 -0.12792696089E+02  0.23621598861E+02  0.63556909489E+02  0.69000824269E+02  0.00000000000E+00 0. -1.
        -11    1    5    5    0    0 -0.23584809157E+03  0.51600452482E+03  0.53526947262E+03  0.77999897452E+03  0.00000000000E+00 0.  1.
          1    1    6    6  503    0  0.17453481762E+02 -0.10185118754E+03  0.76840502171E+02  0.12877403155E+03  0.00000000000E+00 0. -1.
         -1    1    6    6    0  503 -0.95902021625E+02 -0.24329271748E+03  0.16034047393E+03  0.30675334018E+03  0.00000000000E+00 0.  1.
<mgrwt>
<rscale>  0 0.14211320E+04</rscale>
<asrwt>0</asrwt>
<pdfrwt beam="1">  1        2 0.19791225E+00 0.14211320E+04</pdfrwt>
<pdfrwt beam="2">  1       -2 0.60382270E-01 0.14211320E+04</pdfrwt>
<totfact> 0.41807705E+01</totfact>
</mgrwt>
</event>
<event>
12    2  0.3561489E-008  0.1269050E+04  0.7818608E-02  0.9054475E-01
          2   -1    0    0  501    0  0.00000000000E+00  0.00000000000E+00  0.15378348068E+04  0.15378348068E+04  0.00000000000E+00 0. -1.
         -2   -1    0    0    0  501 -0.00000000000E+00 -0.00000000000E+00 -0.26181098798E+03  0.26181098798E+03  0.00000000000E+00 0.  1.
         23    2    1    2    0    0  0.20666588953E+02  0.11154557183E+03 -0.71272791982E+02  0.15566401622E+03  0.79258769708E+02 0.  0.
        254    2    1    2    0    0 -0.20666588953E+02 -0.11154557183E+03  0.13472966108E+04  0.16439817786E+04  0.93519966224E+03 0.  0.
         23    2    4    4    0    0  0.22136270194E+03  0.32401487563E+03  0.81601329383E+03  0.90982560093E+03  0.88982262121E+02 0.  0.
         23    2    4    4    0    0 -0.24202929090E+03 -0.43556044746E+03  0.53128331699E+03  0.73415617763E+03  0.91827279174E+02 0.  0.
          2    1    3    3  502    0  0.15511566209E+02  0.14536190594E+02 -0.52608318182E+02  0.56741031584E+02  0.00000000000E+00 0. -1.
         -2    1    3    3    0  502  0.51550227442E+01  0.97009381240E+02 -0.18664473800E+02  0.98922984641E+02  0.00000000000E+00 0.  1.
         11    1    5    5    0    0  0.19353749678E+03  0.25999551948E+03  0.73232812518E+03  0.80084887197E+03  0.00000000000E+00 0. -1.
        -11    1    5    5    0    0  0.27825205162E+02  0.64019356143E+02  0.83685168647E+02  0.10897672896E+03  0.00000000000E+00 0.  1.
          4    1    6    6  503    0 -0.93622537398E+01 -0.83028524240E+02  0.10294754956E+03  0.13258802960E+03  0.00000000000E+00 0.  1.
         -4    1    6    6    0  503 -0.23266703716E+03 -0.35253192322E+03  0.42833576743E+03  0.60156814803E+03  0.00000000000E+00 0. -1.
<mgrwt>
<rscale>  0 0.12690501E+04</rscale>
<asrwt>0</asrwt>
<pdfrwt beam="1">  1        2 0.23658996E+00 0.12690501E+04</pdfrwt>
<pdfrwt beam="2">  1       -2 0.40278615E-01 0.12690501E+04</pdfrwt>
<totfact> 0.69226740E+01</totfact>
</mgrwt>
</event>
<event>
12    2  0.3561489E-008  0.1687930E+04  0.7818608E-02  0.8768279E-01
          2   -1    0    0  501    0  0.00000000000E+00  0.00000000000E+00  0.24585577499E+04  0.24585577499E+04  0.00000000000E+00 0. -1.
         -2   -1    0    0    0  501 -0.00000000000E+00 -0.00000000000E+00 -0.28971323502E+03  0.28971323502E+03  0.00000000000E+00 0.  1.
         23    2    1    2    0    0  0.39435632794E+03 -0.86041139408E+02  0.15143517400E+04  0.15699577736E+04  0.92661897311E+02 0.  0.
        254    2    1    2    0    0 -0.39435632794E+03  0.86041139408E+02  0.65449277487E+03  0.11783132114E+04  0.89282766571E+03 0.  0.
         23    2    4    4    0    0 -0.61251431504E+03 -0.67695054877E+02  0.22094333989E+03  0.66118897418E+03  0.92728062398E+02 0.  0.
         23    2    4    4    0    0  0.21815798710E+03  0.15373619429E+03  0.43354943498E+03  0.51712423718E+03  0.90689797338E+02 0.  0.
          1    1    3    3  502    0  0.39592527597E+03 -0.75024521473E+02  0.14768161045E+04  0.15308074044E+04  0.00000000000E+00 0. -1.
         -1    1    3    3    0  502 -0.15689480322E+01 -0.11016617935E+02  0.37535635536E+02  0.39150369139E+02  0.00000000000E+00 0.  1.
         11    1    5    5    0    0 -0.38477269708E+03 -0.15334066766E+02  0.98993030335E+02  0.39759877022E+03  0.00000000000E+00 0. -1.
        -11    1    5    5    0    0 -0.22774161795E+03 -0.52360988112E+02  0.12195030955E+03  0.26359020396E+03  0.00000000000E+00 0.  1.
          4    1    6    6  503    0  0.18946383428E+03  0.13633154458E+03  0.42084217167E+03  0.48123899261E+03  0.00000000000E+00 0. -1.
         -4    1    6    6    0  503  0.28694152822E+02  0.17404649703E+02  0.12707263307E+02  0.35885244575E+02  0.00000000000E+00 0.  1.
<mgrwt>
<rscale>  0 0.16879298E+04</rscale>
<asrwt>0</asrwt>
<pdfrwt beam="1">  1        2 0.37823964E+00 0.16879298E+04</pdfrwt>
<pdfrwt beam="2">  1       -2 0.44571268E-01 0.16879298E+04</pdfrwt>
<totfact> 0.16751455E+01</totfact>
</mgrwt>
</event>
<event>
12    2  0.3561489E-008  0.1898636E+04  0.7818608E-02  0.8655535E-01
          1   -1    0    0  501    0  0.00000000000E+00  0.00000000000E+00  0.91992971688E+03  0.91992971688E+03  0.00000000000E+00 0. -1.
         -1   -1    0    0    0  501 -0.00000000000E+00 -0.00000000000E+00 -0.97964549053E+03  0.97964549053E+03  0.00000000000E+00 0.  1.
         23    2    1    2    0    0  0.29224820539E+03  0.33709980527E+02 -0.69772020987E+03  0.76259157045E+03  0.90482239787E+02 0.  0.
        254    2    1    2    0    0 -0.29224820539E+03 -0.33709980527E+02  0.63800443622E+03  0.11369836370E+04  0.89394449142E+03 0.  0.
         23    2    4    4    0    0 -0.13827344599E+03 -0.26239090643E+03  0.76011885622E+03  0.82200556043E+03  0.99719266720E+02 0.  0.
         23    2    4    4    0    0 -0.15397475939E+03  0.22868092590E+03 -0.12211442000E+03  0.31497807653E+03  0.91082735602E+02 0.  0.
          3    1    3    3  502    0  0.20392951896E+02  0.16273321103E+02 -0.22361593351E+02  0.34361814911E+02  0.00000000000E+00 0. -1.
         -3    1    3    3    0  502  0.27185525349E+03  0.17436659424E+02 -0.67535861652E+03  0.72822975554E+03  0.00000000000E+00 0.  1.
         11    1    5    5    0    0  0.83775860858E+01 -0.72072535679E+02  0.18456073646E+03  0.19831111868E+03  0.00000000000E+00 0.  1.
        -11    1    5    5    0    0 -0.14665103208E+03 -0.19031837075E+03  0.57555811976E+03  0.62369444175E+03  0.00000000000E+00 0. -1.
          2    1    6    6  503    0 -0.73579810739E+02  0.15282323502E+03 -0.11354767668E+03  0.20411272520E+03  0.00000000000E+00 0. -1.
         -2    1    6    6    0  503 -0.80394948654E+02  0.75857690883E+02 -0.85667433181E+01  0.11086535133E+03  0.00000000000E+00 0.  1.
<mgrwt>
<rscale>  0 0.18986364E+04</rscale>
<asrwt>0</asrwt>
<pdfrwt beam="1">  1        1 0.14152765E+00 0.18986364E+04</pdfrwt>
<pdfrwt beam="2">  1       -1 0.15071469E+00 0.18986364E+04</pdfrwt>
<totfact> 0.56495094E+00</totfact>
</mgrwt>
</event>
<event>
12    2  0.3561489E-008  0.1550382E+04  0.7818608E-02  0.8851624E-01
         -2   -1    0    0    0  501 -0.00000000000E+00  0.00000000000E+00  0.25714059904E+03  0.25714059904E+03  0.00000000000E+00 0.  1.
          2   -1    0    0  501    0  0.00000000000E+00 -0.00000000000E+00 -0.23369363172E+04  0.23369363172E+04  0.00000000000E+00 0. -1.
         23    2    1    2    0    0 -0.48808277786E+03  0.60774982996E+02 -0.84602622391E+03  0.98214121066E+03  0.83202100513E+02 0.  0.
        254    2    1    2    0    0  0.48808277786E+03 -0.60774982996E+02 -0.12337694943E+04  0.16119357056E+04  0.91336255528E+03 0.  0.
         23    2    4    4    0    0 -0.17426424466E+03 -0.54247246146E+02 -0.77454668961E+03  0.80059499639E+03  0.87857743976E+02 0.  0.
         23    2    4    4    0    0  0.66234702252E+03 -0.65277368499E+01 -0.45922280469E+03  0.81134070924E+03  0.92962210165E+02 0.  0.
          4    1    3    3  502    0 -0.38221643301E+02  0.19507019947E+02 -0.11556333737E+03  0.12327328497E+03  0.00000000000E+00 0. -1.
         -4    1    3    3    0  502 -0.44986113456E+03  0.41267963049E+02 -0.73046288654E+03  0.85886792569E+03  0.00000000000E+00 0.  1.
         11    1    5    5    0    0 -0.80102121308E+02 -0.29807783523E+02 -0.19454447382E+03  0.21249095531E+03  0.00000000000E+00 0.  1.
        -11    1    5    5    0    0 -0.94162123355E+02 -0.24439462623E+02 -0.58000221579E+03  0.58810404107E+03  0.00000000000E+00 0. -1.
          1    1    6    6  503    0  0.11701538717E+02 -0.81573569634E+01  0.11230763362E+01  0.14308381510E+02  0.00000000000E+00 0. -1.
         -1    1    6    6    0  503  0.65064548381E+03  0.16296201135E+01 -0.46034588103E+03  0.79703232773E+03  0.00000000000E+00 0.  1.
<mgrwt>
<rscale>  0 0.15503822E+04</rscale>
<asrwt>0</asrwt>
<pdfrwt beam="1">  1        2 0.35952867E+00 0.15503822E+04</pdfrwt>
<pdfrwt beam="2">  1       -2 0.39560092E-01 0.15503822E+04</pdfrwt>
<totfact> 0.25166662E+01</totfact>
</mgrwt>
</event>
<event>
12    2  0.3561489E-008  0.1405008E+04  0.7818608E-02  0.8950202E-01
          1   -1    0    0  501    0  0.00000000000E+00  0.00000000000E+00  0.15207581082E+04  0.15207581082E+04  0.00000000000E+00 0. -1.
         -1   -1    0    0    0  501 -0.00000000000E+00 -0.00000000000E+00 -0.32451687584E+03  0.32451687584E+03  0.00000000000E+00 0.  1.
         23    2    1    2    0    0  0.19163284677E+03 -0.30417496155E+03  0.71270240817E+02  0.37755193837E+03  0.90666773104E+02 0.  0.
        254    2    1    2    0    0 -0.19163284677E+03  0.30417496155E+03  0.11249709916E+04  0.14677230457E+04  0.87143883995E+03 0.  0.
         23    2    4    4    0    0  0.86922596901E+02  0.57771126654E+01  0.10303964413E+04  0.10388313519E+04  0.99321893883E+02 0.  0.
         23    2    4    4    0    0 -0.27855544367E+03  0.29839784888E+03  0.94574550261E+02  0.42889169376E+03  0.91484031387E+02 0.  0.
          3    1    3    3  502    0  0.16414521642E+03 -0.24314546605E+03  0.21520141826E+02  0.29415384791E+03  0.00000000000E+00 0. -1.
         -3    1    3    3    0  502  0.27487630354E+02 -0.61029495499E+02  0.49750098991E+02  0.83398090463E+02  0.00000000000E+00 0.  1.
         11    1    5    5    0    0  0.89173632178E+02  0.10153061059E+02  0.47451073722E+03  0.48292386674E+03  0.00000000000E+00 0. -1.
        -11    1    5    5    0    0 -0.22510352771E+01 -0.43759483940E+01  0.55588570409E+03  0.55590748519E+03  0.00000000000E+00 0.  1.
          3    1    6    6  503    0 -0.25519164417E+03  0.23361781926E+03  0.57632908555E+02  0.35074436970E+03  0.00000000000E+00 0. -1.
         -3    1    6    6    0  503 -0.23363799508E+02  0.64780029624E+02  0.36941641706E+02  0.78147324058E+02  0.00000000000E+00 0.  1.
<mgrwt>
<rscale>  0 0.14050077E+04</rscale>
<asrwt>0</asrwt>
<pdfrwt beam="1">  1        1 0.23396278E+00 0.14050077E+04</pdfrwt>
<pdfrwt beam="2">  1       -1 0.49925674E-01 0.14050077E+04</pdfrwt>
<totfact> 0.24827264E+01</totfact>
</mgrwt>
</event>
<event>
12    2  0.3561489E-008  0.1549011E+04  0.7818608E-02  0.8852500E-01
         -1   -1    0    0    0  501 -0.00000000000E+00  0.00000000000E+00  0.11189686635E+04  0.11189686635E+04  0.00000000000E+00 0.  1.
          1   -1    0    0  501    0  0.00000000000E+00 -0.00000000000E+00 -0.53608197030E+03  0.53608197030E+03  0.00000000000E+00 0. -1.
         23    2    1    2    0    0  0.16727464220E+03  0.37595132060E+03 -0.95137561222E+02  0.43240291216E+03  0.92741153240E+02 0.  0.
        254    2    1    2    0    0 -0.16727464220E+03 -0.37595132060E+03  0.67802425447E+03  0.12226477217E+04  0.93050005927E+03 0.  0.
         23    2    4    4    0    0 -0.30342388479E+03 -0.57302926807E+03  0.70863545052E+03  0.96476564095E+03  0.90443044504E+02 0.  0.
         23    2    4    4    0    0  0.13614924259E+03  0.19707794747E+03 -0.30611196053E+02  0.25788208073E+03  0.90497450804E+02 0.  0.
          3    1    3    3  502    0  0.89675671944E+02  0.21064462609E+03 -0.99761404951E+02  0.24973029964E+03  0.00000000000E+00 0. -1.
         -3    1    3    3    0  502  0.77598970257E+02  0.16530669451E+03  0.46238437284E+01  0.18267261253E+03  0.00000000000E+00 0.  1.
         11    1    5    5    0    0 -0.20268143767E+02 -0.52161328455E+02  0.10320891822E+03  0.11740392940E+03  0.00000000000E+00 0.  1.
        -11    1    5    5    0    0 -0.28315574102E+03 -0.52086793962E+03  0.60542653230E+03  0.84736171155E+03  0.00000000000E+00 0. -1.
          1    1    6    6  503    0  0.12835052463E+03  0.19905189641E+03 -0.11473895233E+02  0.23712267903E+03  0.00000000000E+00 0. -1.
         -1    1    6    6    0  503  0.77987179614E+01 -0.19739489462E+01 -0.19137300820E+02  0.20759401700E+02  0.00000000000E+00 0.  1.
<mgrwt>
<rscale>  0 0.15490112E+04</rscale>
<asrwt>0</asrwt>
<pdfrwt beam="1">  1        1 0.82474150E-01 0.15490112E+04</pdfrwt>
<pdfrwt beam="2">  1       -1 0.17214902E+00 0.15490112E+04</pdfrwt>
<totfact> 0.91944743E+00</totfact>
</mgrwt>
</event>
<event>
12    2  0.3561489E-008  0.1748818E+04  0.7818608E-02  0.8734001E-01
         -1   -1    0    0    0  501 -0.00000000000E+00  0.00000000000E+00  0.83089679341E+03  0.83089679341E+03  0.00000000000E+00 0.  1.
          1   -1    0    0  501    0  0.00000000000E+00 -0.00000000000E+00 -0.92019984875E+03  0.92019984875E+03  0.00000000000E+00 0. -1.
         23    2    1    2    0    0 -0.36583504103E+03  0.49357011554E+03 -0.19073833832E+03  0.64982761174E+03  0.91913410754E+02 0.  0.
        254    2    1    2    0    0  0.36583504103E+03 -0.49357011554E+03  0.10143528298E+03  0.11012690304E+04  0.90832682693E+03 0.  0.
         23    2    4    4    0    0 -0.29555598612E+03 -0.13081127052E+03  0.53584181422E+02  0.34019751663E+03  0.91641455671E+02 0.  0.
         23    2    4    4    0    0  0.66139102715E+03 -0.36275884502E+03  0.47851101562E+02  0.76107151378E+03  0.88927221570E+02 0.  0.
          3    1    3    3  502    0 -0.17739171879E+03  0.29304291824E+03 -0.13977548308E+03  0.36997183608E+03  0.00000000000E+00 0. -1.
         -3    1    3    3    0  502 -0.18844332224E+03  0.20052719730E+03 -0.50962855242E+02  0.27985577566E+03  0.00000000000E+00 0.  1.
         11    1    5    5    0    0 -0.27507670570E+03 -0.88546159347E+02  0.46948860865E+02  0.29276579699E+03  0.00000000000E+00 0. -1.
        -11    1    5    5    0    0 -0.20479280425E+02 -0.42265111173E+02  0.66353205575E+01  0.47431719641E+02  0.00000000000E+00 0.  1.
          4    1    6    6  503    0  0.20993945737E+03 -0.69418692207E+02  0.18395424078E+02  0.22188267669E+03  0.00000000000E+00 0.  1.
         -4    1    6    6    0  503  0.45145156979E+03 -0.29334015281E+03  0.29455677485E+02  0.53918883710E+03  0.00000000000E+00 0. -1.
<mgrwt>
<rscale>  0 0.17488180E+04</rscale>
<asrwt>0</asrwt>
<pdfrwt beam="1">  1        1 0.14156921E+00 0.17488180E+04</pdfrwt>
<pdfrwt beam="2">  1       -1 0.12783028E+00 0.17488180E+04</pdfrwt>
<totfact> 0.87862552E+00</totfact>
</mgrwt>
</event>
<event>
12    2  0.3561489E-008  0.2702814E+04  0.7818608E-02  0.8334092E-01
          1   -1    0    0  501    0  0.00000000000E+00  0.00000000000E+00  0.13470717346E+04  0.13470717346E+04  0.00000000000E+00 0. -1.
         -1   -1    0    0    0  501 -0.00000000000E+00 -0.00000000000E+00 -0.13557566717E+04  0.13557566717E+04  0.00000000000E+00 0.  1.
         23    2    1    2    0    0  0.51239085036E+03 -0.16557787442E+03 -0.10649521166E+04  0.11970657326E+04  0.94249357931E+02 0.  0.
        254    2    1    2    0    0 -0.51239085036E+03  0.16557787442E+03  0.10562671795E+04  0.15057626737E+04  0.92825667728E+03 0.  0.
         23    2    4    4    0    0 -0.50376572872E+03 -0.29461387775E+01  0.89249771720E+02  0.51994131971E+03  0.92654546742E+02 0.  0.
         23    2    4    4    0    0 -0.86251216403E+01  0.16852401320E+03  0.96701740782E+03  0.98582135399E+03  0.90809356370E+02 0.  0.
          4    1    3    3  502    0  0.50033091156E+03 -0.14667166327E+03 -0.99099239633E+03  0.11197810176E+04  0.00000000000E+00 0.  1.
         -4    1    3    3    0  502  0.12059938800E+02 -0.18906211152E+02 -0.73959720287E+02  0.77284714976E+02  0.00000000000E+00 0. -1.
         11    1    5    5    0    0 -0.48428887722E+03 -0.21831986525E+02  0.88555937475E+02  0.49280270525E+03  0.00000000000E+00 0. -1.
        -11    1    5    5    0    0 -0.19476851495E+02  0.18885847748E+02  0.69383424492E+00  0.27138614468E+02  0.00000000000E+00 0.  1.
          3    1    6    6  503    0  0.24469564879E+02  0.10827733635E+03  0.75020563747E+03  0.75837407634E+03  0.00000000000E+00 0. -1.
         -3    1    6    6    0  503 -0.33094686520E+02  0.60246676853E+02  0.21681177035E+03  0.22744727765E+03  0.00000000000E+00 0.  1.
<mgrwt>
<rscale>  0 0.27028145E+04</rscale>
<asrwt>0</asrwt>
<pdfrwt beam="1">  1        1 0.20724181E+00 0.27028145E+04</pdfrwt>
<pdfrwt beam="2">  1       -1 0.20857795E+00 0.27028145E+04</pdfrwt>
<totfact> 0.96088584E-01</totfact>
</mgrwt>
</event>
<event>
12    2  0.3561489E-008  0.1723342E+04  0.7818608E-02  0.8748163E-01
         -1   -1    0    0    0  501 -0.00000000000E+00  0.00000000000E+00  0.82267155448E+03  0.82267155448E+03  0.00000000000E+00 0.  1.
          1   -1    0    0  501    0  0.00000000000E+00 -0.00000000000E+00 -0.90251873262E+03  0.90251873262E+03  0.00000000000E+00 0. -1.
         23    2    1    2    0    0 -0.62436379346E+03 -0.40312549156E+02 -0.21252569605E+01  0.63260013142E+03  0.93397865931E+02 0.  0.
        254    2    1    2    0    0  0.62436379346E+03  0.40312549156E+02 -0.77721921178E+02  0.10925901557E+04  0.89233250700E+03 0.  0.
         23    2    4    4    0    0  0.19363124622E+03 -0.16910824899E+03  0.35016329709E+03  0.44416497092E+03  0.92614941425E+02 0.  0.
         23    2    4    4    0    0  0.43073254724E+03  0.20942079814E+03 -0.42788521827E+03  0.64842518476E+03  0.89341268546E+02 0.  0.
          1    1    3    3  502    0 -0.35614270579E+03  0.94581288032E+01  0.31867740864E+02  0.35769069879E+03  0.00000000000E+00 0. -1.
         -1    1    3    3    0  502 -0.26822108766E+03 -0.49770677959E+02 -0.33992997825E+02  0.27490943264E+03  0.00000000000E+00 0.  1.
         11    1    5    5    0    0  0.17829952372E+03 -0.13438031290E+03  0.33647232226E+03  0.40380987147E+03  0.00000000000E+00 0.  1.
        -11    1    5    5    0    0  0.15331722500E+02 -0.34727936087E+02  0.13690974838E+02  0.40355099451E+02  0.00000000000E+00 0. -1.
          1    1    6    6  503    0  0.17508310622E+03  0.13123714232E+03 -0.17141507447E+03  0.27795756756E+03  0.00000000000E+00 0. -1.
         -1    1    6    6    0  503  0.25564944102E+03  0.78183655828E+02 -0.25647014380E+03  0.37046761720E+03  0.00000000000E+00 0.  1.
<mgrwt>
<rscale>  0 0.17233415E+04</rscale>
<asrwt>0</asrwt>
<pdfrwt beam="1">  1        1 0.13884904E+00 0.17233415E+04</pdfrwt>
<pdfrwt beam="2">  1       -1 0.12656486E+00 0.17233415E+04</pdfrwt>
<totfact> 0.93329204E+00</totfact>
</mgrwt>
</event>
<event>
12    2  0.3561489E-008  0.1117161E+04  0.7818608E-02  0.9188625E-01
          2   -1    0    0  501    0  0.00000000000E+00  0.00000000000E+00  0.23901773882E+03  0.23901773882E+03  0.00000000000E+00 0. -1.
         -2   -1    0    0    0  501 -0.00000000000E+00 -0.00000000000E+00 -0.13053928123E+04  0.13053928123E+04  0.00000000000E+00 0.  1.
         23    2    1    2    0    0  0.21637569719E+03 -0.97823608921E+02 -0.32596013634E+03  0.41314931585E+03  0.89746564884E+02 0.  0.
        254    2    1    2    0    0 -0.21637569719E+03  0.97823608921E+02 -0.74041493717E+03  0.11312612353E+04  0.82167499809E+03 0.  0.
         23    2    4    4    0    0 -0.33434524227E+03 -0.22813899829E+03 -0.15150364429E+03  0.44165036810E+03  0.90926067975E+02 0.  0.
         23    2    4    4    0    0  0.11796954508E+03  0.32596260721E+03 -0.58891129288E+03  0.68961086719E+03  0.92618585624E+02 0.  0.
          3    1    3    3  502    0  0.10056728259E+03 -0.37470210591E+02 -0.77228926153E+02  0.13221990033E+03  0.00000000000E+00 0. -1.
         -3    1    3    3    0  502  0.11580841460E+03 -0.60353398330E+02 -0.24873121019E+03  0.28092941552E+03  0.00000000000E+00 0.  1.
         11    1    5    5    0    0 -0.90750055960E+02 -0.53752940034E+02  0.10137911736E+01  0.10547975631E+03  0.00000000000E+00 0.  1.
        -11    1    5    5    0    0 -0.24359518631E+03 -0.17438605825E+03 -0.15251743546E+03  0.33617061178E+03  0.00000000000E+00 0. -1.
          2    1    6    6  503    0  0.13181278079E+03  0.30087097038E+03 -0.55764524280E+03  0.64719870737E+03  0.00000000000E+00 0. -1.
         -2    1    6    6    0  503 -0.13843235708E+02  0.25091636828E+02 -0.31266050073E+02  0.42412159822E+02  0.00000000000E+00 0.  1.
<mgrwt>
<rscale>  0 0.11171608E+04</rscale>
<asrwt>0</asrwt>
<pdfrwt beam="1">  1        2 0.36771960E-01 0.11171608E+04</pdfrwt>
<pdfrwt beam="2">  1       -2 0.20082966E+00 0.11171608E+04</pdfrwt>
<totfact> 0.18437671E+01</totfact>
</mgrwt>
</event>
<event>
12    2  0.3561489E-008  0.1468580E+04  0.7818608E-02  0.8905620E-01
         -2   -1    0    0    0  501 -0.00000000000E+00  0.00000000000E+00  0.25964276499E+03  0.25964276499E+03  0.00000000000E+00 0.  1.
          2   -1    0    0  501    0  0.00000000000E+00 -0.00000000000E+00 -0.20766306504E+04  0.20766306504E+04  0.00000000000E+00 0. -1.
         23    2    1    2    0    0  0.19198672830E+03 -0.28786461784E+03 -0.10680707425E+04  0.11260857398E+04  0.87000232032E+02 0.  0.
        254    2    1    2    0    0 -0.19198672830E+03  0.28786461784E+03 -0.74891714292E+03  0.12101876756E+04  0.88541085443E+03 0.  0.
         23    2    4    4    0    0 -0.18039810429E+03 -0.11337268275E+03 -0.76638296530E+03  0.80075138094E+03  0.91995018065E+02 0.  0.
         23    2    4    4    0    0 -0.11588624011E+02  0.40123730059E+03  0.17465822376E+02  0.40943629465E+03  0.78786780872E+02 0.  0.
          3    1    3    3  502    0  0.55257939220E+02 -0.37659868980E+02 -0.28443518869E+03  0.29219014724E+03  0.00000000000E+00 0. -1.
         -3    1    3    3    0  502  0.13672878908E+03 -0.25020474886E+03 -0.78363555379E+03  0.83389559255E+03  0.00000000000E+00 0.  1.
         11    1    5    5    0    0 -0.29561812638E+02  0.10655597667E+02 -0.58247514738E+02  0.66183196517E+02  0.00000000000E+00 0. -1.
        -11    1    5    5    0    0 -0.15083629165E+03 -0.12402828042E+03 -0.70813545056E+03  0.73456818442E+03  0.00000000000E+00 0.  1.
          2    1    6    6  503    0 -0.30638245329E+02  0.24606474833E+03 -0.19686084393E+02  0.24874505898E+03  0.00000000000E+00 0.  1.
         -2    1    6    6    0  503  0.19049621319E+02  0.15517255225E+03  0.37151906769E+02  0.16069123567E+03  0.00000000000E+00 0. -1.
<mgrwt>
<rscale>  0 0.14685804E+04</rscale>
<asrwt>0</asrwt>
<pdfrwt beam="1">  1        2 0.31948164E+00 0.14685804E+04</pdfrwt>
<pdfrwt beam="2">  1       -2 0.39945041E-01 0.14685804E+04</pdfrwt>
<totfact> 0.34800634E+01</totfact>
</mgrwt>
</event>
<event>
12    2  0.3561489E-008  0.1737383E+04  0.7818608E-02  0.8740326E-01
          1   -1    0    0  501    0  0.00000000000E+00  0.00000000000E+00  0.28342133231E+04  0.28342133231E+04  0.00000000000E+00 0. -1.
         -1   -1    0    0    0  501 -0.00000000000E+00 -0.00000000000E+00 -0.26625560355E+03  0.26625560355E+03  0.00000000000E+00 0.  1.
         23    2    1    2    0    0 -0.36458826057E+03  0.38311139726E+02  0.18548486957E+04  0.18929138642E+04  0.90922330097E+02 0.  0.
        254    2    1    2    0    0  0.36458826057E+03 -0.38311139726E+02  0.71310902387E+03  0.12075550625E+04  0.90292436329E+03 0.  0.
         23    2    4    4    0    0  0.32430420781E+03 -0.42071543413E+03  0.23367766533E+03  0.58729869353E+03  0.90220886897E+02 0.  0.
         23    2    4    4    0    0  0.40284052761E+02  0.38240429441E+03  0.47943135853E+03  0.62025636894E+03  0.83711924964E+02 0.  0.
          3    1    3    3  502    0 -0.23191296880E+03 -0.11667707647E+01  0.13326888439E+04  0.13527174654E+04  0.00000000000E+00 0. -1.
         -3    1    3    3    0  502 -0.13267529177E+03  0.39477910490E+02  0.52215985172E+03  0.54019639874E+03  0.00000000000E+00 0.  1.
         11    1    5    5    0    0  0.16013655811E+03 -0.25155410117E+03  0.16944113497E+03  0.34297737721E+03  0.00000000000E+00 0. -1.
        -11    1    5    5    0    0  0.16416764969E+03 -0.16916133297E+03  0.64236530360E+02  0.24432131632E+03  0.00000000000E+00 0.  1.
          4    1    6    6  503    0  0.42352596628E+02  0.29976066214E+03  0.31904572174E+03  0.43981856437E+03  0.00000000000E+00 0. -1.
         -4    1    6    6    0  503 -0.20685438675E+01  0.82643632269E+02  0.16038563679E+03  0.18043780457E+03  0.00000000000E+00 0.  1.
<mgrwt>
<rscale>  0 0.17373833E+04</rscale>
<asrwt>0</asrwt>
<pdfrwt beam="1">  1        1 0.43603280E+00 0.17373833E+04</pdfrwt>
<pdfrwt beam="2">  1       -1 0.40962403E-01 0.17373833E+04</pdfrwt>
<totfact> 0.43692148E+00</totfact>
</mgrwt>
</event>
<event>
12    2  0.3561489E-008  0.2524400E+04  0.7818608E-02  0.8394344E-01
          1   -1    0    0  501    0  0.00000000000E+00  0.00000000000E+00  0.27706346993E+04  0.27706346993E+04  0.00000000000E+00 0. -1.
         -1   -1    0    0    0  501 -0.00000000000E+00 -0.00000000000E+00 -0.57501209038E+03  0.57501209038E+03  0.00000000000E+00 0.  1.
         23    2    1    2    0    0  0.76917008140E+03  0.75216150936E+03  0.11765111580E+04  0.15967448959E+04  0.89700653761E+02 0.  0.
        254    2    1    2    0    0 -0.76917008140E+03 -0.75216150936E+03  0.10191114509E+04  0.17489018938E+04  0.92881652359E+03 0.  0.
         23    2    4    4    0    0 -0.77808805738E+03 -0.93267532698E+03  0.89718491201E+03  0.15127162506E+04  0.89807561002E+02 0.  0.
         23    2    4    4    0    0  0.89179759778E+01  0.18051381762E+03  0.12192653887E+03  0.23618564315E+03  0.90844969599E+02 0.  0.
          4    1    3    3  502    0  0.49400853141E+03  0.49429383829E+03  0.82518714051E+03  0.10813439067E+04  0.00000000000E+00 0. -1.
         -4    1    3    3    0  502  0.27516154999E+03  0.25786767106E+03  0.35132401753E+03  0.51540098920E+03  0.00000000000E+00 0.  1.
         11    1    5    5    0    0 -0.76418874753E+03 -0.91175005119E+03  0.86044498889E+03  0.14682091733E+04  0.00000000000E+00 0. -1.
        -11    1    5    5    0    0 -0.13899309852E+02 -0.20925275791E+02  0.36739923120E+02  0.44507077327E+02  0.00000000000E+00 0.  1.
          3    1    6    6  503    0  0.37307316913E+01 -0.23106880413E+01  0.32138608332E+02  0.32436827584E+02  0.00000000000E+00 0.  1.
         -3    1    6    6    0  503  0.51872442865E+01  0.18282450566E+03  0.89787930534E+02  0.20374881556E+03  0.00000000000E+00 0. -1.
<mgrwt>
<rscale>  0 0.25243997E+04</rscale>
<asrwt>0</asrwt>
<pdfrwt beam="1">  1        1 0.42625148E+00 0.25243997E+04</pdfrwt>
<pdfrwt beam="2">  1       -1 0.88463400E-01 0.25243997E+04</pdfrwt>
<totfact> 0.97248292E-01</totfact>
</mgrwt>
</event>
<event>
12    2  0.3561489E-008  0.1968756E+04  0.7818608E-02  0.8621369E-01
         -1   -1    0    0    0  501 -0.00000000000E+00  0.00000000000E+00  0.81327163202E+03  0.81327163202E+03  0.00000000000E+00 0.  1.
          1   -1    0    0  501    0  0.00000000000E+00 -0.00000000000E+00 -0.11914842735E+04  0.11914842735E+04  0.00000000000E+00 0. -1.
         23    2    1    2    0    0  0.43240372513E+03  0.45110970744E+03 -0.62971091800E+03  0.89184417120E+03  0.91527240789E+02 0.  0.
        254    2    1    2    0    0 -0.43240372513E+03 -0.45110970744E+03  0.25149827651E+03  0.11129117343E+04  0.88591658504E+03 0.  0.
         23    2    4    4    0    0  0.16907888132E+01 -0.12359819216E+03 -0.29809907937E+03  0.33459535712E+03  0.88383369564E+02 0.  0.
         23    2    4    4    0    0 -0.43409451394E+03 -0.32751151528E+03  0.54959735588E+03  0.77831637720E+03  0.89539319557E+02 0.  0.
          2    1    3    3  502    0  0.41464570223E+03  0.45201019999E+03 -0.61674213949E+03  0.86983627534E+03  0.00000000000E+00 0. -1.
         -2    1    3    3    0  502  0.17758022900E+02 -0.90049255642E+00 -0.12968778512E+02  0.22007895862E+02  0.00000000000E+00 0.  1.
         11    1    5    5    0    0 -0.25129836372E+02 -0.34523489574E+02 -0.33974604757E+02  0.54567882283E+02  0.00000000000E+00 0. -1.
        -11    1    5    5    0    0  0.26820625185E+02 -0.89074702583E+02 -0.26412447461E+03  0.28002747484E+03  0.00000000000E+00 0.  1.
          4    1    6    6  503    0 -0.12017999673E+03 -0.11728753147E+03  0.12103460241E+03  0.20699993148E+03  0.00000000000E+00 0. -1.
         -4    1    6    6    0  503 -0.31391451722E+03 -0.21022398381E+03  0.42856275347E+03  0.57131644572E+03  0.00000000000E+00 0.  1.
<mgrwt>
<rscale>  0 0.19687563E+04</rscale>
<asrwt>0</asrwt>
<pdfrwt beam="1">  1        1 0.18330527E+00 0.19687563E+04</pdfrwt>
<pdfrwt beam="2">  1       -1 0.12511871E+00 0.19687563E+04</pdfrwt>
<totfact> 0.56299921E+00</totfact>
</mgrwt>
</event>
<event>
12    2  0.3561489E-008  0.1724775E+04  0.7818608E-02  0.8747359E-01
         -2   -1    0    0    0  501 -0.00000000000E+00  0.00000000000E+00  0.27546997717E+03  0.27546997717E+03  0.00000000000E+00 0.  1.
          2   -1    0    0  501    0  0.00000000000E+00 -0.00000000000E+00 -0.26997925398E+04  0.26997925398E+04  0.00000000000E+00 0. -1.
         23    2    1    2    0    0 -0.45056701623E+03 -0.19816503050E+03 -0.15170695887E+04  0.15976593130E+04  0.93461907918E+02 0.  0.
        254    2    1    2    0    0  0.45056701623E+03  0.19816503050E+03 -0.90725297401E+03  0.13776032040E+04  0.91236101042E+03 0.  0.
         23    2    4    4    0    0 -0.10231752047E+03  0.40998245541E+03 -0.31506811128E+03  0.53470028675E+03  0.89899906382E+02 0.  0.
         23    2    4    4    0    0  0.55288453670E+03 -0.21181742491E+03 -0.59218486273E+03  0.84290291723E+03  0.96200227692E+02 0.  0.
          4    1    3    3  502    0 -0.35593408890E+03 -0.18968757115E+03 -0.11578081438E+04  0.12260465522E+04  0.00000000000E+00 0. -1.
         -4    1    3    3    0  502 -0.94632927334E+02 -0.84774593499E+01 -0.35926144485E+03  0.37161276083E+03  0.00000000000E+00 0.  1.
         11    1    5    5    0    0 -0.14249234772E+02  0.15286507075E+03 -0.69954867034E+02  0.16871411906E+03  0.00000000000E+00 0. -1.
        -11    1    5    5    0    0 -0.88068285693E+02  0.25711738466E+03 -0.24511324424E+03  0.36598616770E+03  0.00000000000E+00 0.  1.
          1    1    6    6  503    0  0.39967980350E+03 -0.14973400908E+03 -0.36284710874E+03  0.56019839621E+03  0.00000000000E+00 0. -1.
         -1    1    6    6    0  503  0.15320473320E+03 -0.62083415831E+02 -0.22933775399E+03  0.28270452101E+03  0.00000000000E+00 0.  1.
<mgrwt>
<rscale>  0 0.17247745E+04</rscale>
<asrwt>0</asrwt>
<pdfrwt beam="1">  1        2 0.41535267E+00 0.17247745E+04</pdfrwt>
<pdfrwt beam="2">  1       -2 0.42379999E-01 0.17247745E+04</pdfrwt>
<totfact> 0.13347418E+01</totfact>
</mgrwt>
</event>
<event>
12    2  0.3561489E-008  0.2303274E+04  0.7818608E-02  0.8476631E-01
          2   -1    0    0  501    0  0.00000000000E+00  0.00000000000E+00  0.21926837108E+04  0.21926837108E+04  0.00000000000E+00 0.  1.
         -2   -1    0    0    0  501 -0.00000000000E+00 -0.00000000000E+00 -0.60486038098E+03  0.60486038098E+03  0.00000000000E+00 0. -1.
         23    2    1    2    0    0  0.12687423574E+03  0.45378649898E+03  0.16811167149E+04  0.17481976463E+04  0.89567532831E+02 0.  0.
        254    2    1    2    0    0 -0.12687423574E+03 -0.45378649898E+03 -0.93293385045E+02  0.10493464455E+04  0.93295500896E+03 0.  0.
         23    2    4    4    0    0  0.20413182501E+03 -0.10047478962E+03 -0.40046580920E+03  0.46865435855E+03  0.86597102263E+02 0.  0.
         23    2    4    4    0    0 -0.33100606074E+03 -0.35331170937E+03  0.30717242416E+03  0.58069208699E+03  0.91946862412E+02 0.  0.
          2    1    3    3  502    0  0.67283871380E+02  0.24171504294E+03  0.73038063102E+03  0.77227530551E+03  0.00000000000E+00 0. -1.
         -2    1    3    3    0  502  0.59590364355E+02  0.21207145604E+03  0.95073608389E+03  0.97592234077E+03  0.00000000000E+00 0.  1.
         11    1    5    5    0    0  0.17549117006E+03 -0.97644512156E+02 -0.27860987697E+03  0.34344586920E+03  0.00000000000E+00 0. -1.
        -11    1    5    5    0    0  0.28640654946E+02 -0.28302774605E+01 -0.12185593223E+03  0.12520848935E+03  0.00000000000E+00 0.  1.
          4    1    6    6  503    0 -0.20377186452E+03 -0.19723114898E+03  0.22965667609E+03  0.36491819326E+03  0.00000000000E+00 0. -1.
         -4    1    6    6    0  503 -0.12723419622E+03 -0.15608056038E+03  0.77515748073E+02  0.21577389373E+03  0.00000000000E+00 0.  1.
<mgrwt>
<rscale>  0 0.23032738E+04</rscale>
<asrwt>0</asrwt>
<pdfrwt beam="1">  1        2 0.33733595E+00 0.23032738E+04</pdfrwt>
<pdfrwt beam="2">  1       -2 0.93055444E-01 0.23032738E+04</pdfrwt>
<totfact> 0.46207934E+00</totfact>
</mgrwt>
</event>
<event>
12    2  0.3561489E-008  0.1570118E+04  0.7818608E-02  0.8839119E-01
         -1   -1    0    0    0  501 -0.00000000000E+00  0.00000000000E+00  0.43388851282E+03  0.43388851282E+03  0.00000000000E+00 0.  1.
          1   -1    0    0  501    0  0.00000000000E+00 -0.00000000000E+00 -0.14204520750E+04  0.14204520750E+04  0.00000000000E+00 0. -1.
         23    2    1    2    0    0  0.94162280530E+02 -0.86311670031E+02 -0.92621739192E+03  0.93972398117E+03  0.94266983766E+02 0.  0.
        254    2    1    2    0    0 -0.94162280530E+02  0.86311670031E+02 -0.60346170288E+02  0.91461660667E+03  0.90364021462E+03 0.  0.
         23    2    4    4    0    0  0.21639903821E+03 -0.33472072259E+02  0.32163888108E+03  0.39973825491E+03  0.91597921691E+02 0.  0.
         23    2    4    4    0    0 -0.31056131874E+03  0.11978374229E+03 -0.38198505137E+03  0.51487835177E+03  0.91600546060E+02 0.  0.
          2    1    3    3  502    0  0.11058024258E+03 -0.85018132458E+02 -0.87116554903E+03  0.88226157500E+03  0.00000000000E+00 0. -1.
         -2    1    3    3    0  502 -0.16417962055E+02 -0.12935375733E+01 -0.55051842888E+02  0.57462406170E+02  0.00000000000E+00 0.  1.
         11    1    5    5    0    0  0.10715173767E+03 -0.62853571364E+02  0.16726944252E+03  0.20835338423E+03  0.00000000000E+00 0. -1.
        -11    1    5    5    0    0  0.10924730053E+03  0.29381499105E+02  0.15436943856E+03  0.19138487068E+03  0.00000000000E+00 0.  1.
          2    1    6    6  503    0 -0.33117049251E+02  0.44920631393E+02 -0.84477033659E+02  0.10124708041E+03  0.00000000000E+00 0. -1.
         -2    1    6    6    0  503 -0.27744426949E+03  0.74863110897E+02 -0.29750801771E+03  0.41363127136E+03  0.00000000000E+00 0.  1.
<mgrwt>
<rscale>  0 0.15701183E+04</rscale>
<asrwt>0</asrwt>
<pdfrwt beam="1">  1        1 0.21853109E+00 0.15701183E+04</pdfrwt>
<pdfrwt beam="2">  1       -1 0.66752079E-01 0.15701183E+04</pdfrwt>
<totfact> 0.16255879E+01</totfact>
</mgrwt>
</event>
<event>
12    2  0.3561489E-008  0.2810310E+04  0.7818608E-02  0.8300075E-01
          1   -1    0    0  501    0  0.00000000000E+00  0.00000000000E+00  0.20801866326E+04  0.20801866326E+04  0.00000000000E+00 0. -1.
         -1   -1    0    0    0  501 -0.00000000000E+00 -0.00000000000E+00 -0.94917450756E+03  0.94917450756E+03  0.00000000000E+00 0.  1.
         23    2    1    2    0    0 -0.12098743341E+04  0.16552151980E+03  0.87250040108E+03  0.15034965849E+04  0.89731561502E+02 0.  0.
        254    2    1    2    0    0  0.12098743341E+04 -0.16552151980E+03  0.25851172398E+03  0.15258645553E+04  0.87763378010E+03 0.  0.
         23    2    4    4    0    0  0.15826243427E+03  0.21398635029E+03 -0.16475208257E+03  0.32693410648E+03  0.94368983559E+02 0.  0.
         23    2    4    4    0    0  0.10516118998E+04 -0.37950787009E+03  0.42326380655E+03  0.11989304488E+04  0.91477647266E+02 0.  0.
          3    1    3    3  502    0 -0.53290994238E+02  0.24893257956E+02  0.32903155902E+02  0.67396008984E+02  0.00000000000E+00 0. -1.
         -3    1    3    3    0  502 -0.11565833398E+04  0.14062826184E+03  0.83959724518E+03  0.14361005759E+04  0.00000000000E+00 0.  1.
         11    1    5    5    0    0  0.35888061571E+02  0.32153082121E+02  0.67198038755E+01  0.48651098830E+02  0.00000000000E+00 0. -1.
        -11    1    5    5    0    0  0.12237437270E+03  0.18183326817E+03 -0.17147188644E+03  0.27828300765E+03  0.00000000000E+00 0.  1.
          4    1    6    6  503    0  0.35223334461E+03 -0.16963123908E+03  0.16618337810E+03  0.42480583975E+03  0.00000000000E+00 0. -1.
         -4    1    6    6    0  503  0.69937855518E+03 -0.20987663101E+03  0.25708042845E+03  0.77412460908E+03  0.00000000000E+00 0.  1.
<mgrwt>
<rscale>  0 0.28103097E+04</rscale>
<asrwt>0</asrwt>
<pdfrwt beam="1">  1        1 0.32002871E+00 0.28103097E+04</pdfrwt>
<pdfrwt beam="2">  1       -1 0.14602685E+00 0.28103097E+04</pdfrwt>
<totfact> 0.85246116E-01</totfact>
</mgrwt>
</event>
<event>
12    2  0.3561489E-008  0.1957388E+04  0.7818608E-02  0.8626806E-01
          2   -1    0    0  501    0  0.00000000000E+00  0.00000000000E+00  0.40321907758E+03  0.40321907758E+03  0.00000000000E+00 0. -1.
         -2   -1    0    0    0  501 -0.00000000000E+00 -0.00000000000E+00 -0.23754887858E+04  0.23754887858E+04  0.00000000000E+00 0.  1.
         23    2    1    2    0    0  0.36452913574E+03  0.14530474770E+02  0.18183873976E+03  0.41753783224E+03  0.90442736452E+02 0.  0.
        254    2    1    2    0    0 -0.36452913574E+03 -0.14530474770E+02 -0.21541084480E+04  0.23611700311E+04  0.89545970584E+03 0.  0.
         23    2    4    4    0    0  0.16126682381E+03  0.20252254460E+03 -0.13159806280E+04  0.13443170993E+04  0.91438945439E+02 0.  0.
         23    2    4    4    0    0 -0.52579595954E+03 -0.21705301937E+03 -0.83812781999E+03  0.10168529318E+04  0.89208957024E+02 0.  0.
          1    1    3    3  502    0  0.34308150555E+03  0.26491291808E+02  0.14531961566E+03  0.37352978286E+03  0.00000000000E+00 0. -1.
         -1    1    3    3    0  502  0.21447630191E+02 -0.11960817038E+02  0.36519124102E+02  0.44008049380E+02  0.00000000000E+00 0.  1.
         11    1    5    5    0    0  0.48431155878E+02  0.78296222988E+01 -0.20672376712E+03  0.21246551658E+03  0.00000000000E+00 0.  1.
        -11    1    5    5    0    0  0.11283566793E+03  0.19469292230E+03 -0.11092568609E+04  0.11318515827E+04  0.00000000000E+00 0. -1.
          2    1    6    6  503    0 -0.32366968853E+03 -0.91695838415E+02 -0.45403543760E+03  0.56508262462E+03  0.00000000000E+00 0.  1.
         -2    1    6    6    0  503 -0.20212627102E+03 -0.12535718096E+03 -0.38409238238E+03  0.45177030719E+03  0.00000000000E+00 0. -1.
<mgrwt>
<rscale>  0 0.19573885E+04</rscale>
<asrwt>0</asrwt>
<pdfrwt beam="1">  1        2 0.62033704E-01 0.19573885E+04</pdfrwt>
<pdfrwt beam="2">  1       -2 0.36545981E+00 0.19573885E+04</pdfrwt>
<totfact> 0.91457920E-01</totfact>
</mgrwt>
</event>
<event>
12    2  0.3561489E-008  0.2937419E+04  0.7818608E-02  0.8261830E-01
          1   -1    0    0  501    0  0.00000000000E+00  0.00000000000E+00  0.18875602924E+04  0.18875602924E+04  0.00000000000E+00 0. -1.
         -1   -1    0    0    0  501 -0.00000000000E+00 -0.00000000000E+00 -0.11428021631E+04  0.11428021631E+04  0.00000000000E+00 0.  1.
         23    2    1    2    0    0  0.71371830642E+03 -0.10795439693E+04  0.33731178098E+02  0.12976604466E+04  0.89307556662E+02 0.  0.
        254    2    1    2    0    0 -0.71371830642E+03  0.10795439693E+04  0.71102695119E+03  0.17327020090E+04  0.90658034610E+03 0.  0.
         23    2    4    4    0    0 -0.14184336059E+03  0.14949681924E+03  0.58782009963E+03  0.63005355386E+03  0.94689879561E+02 0.  0.
         23    2    4    4    0    0 -0.57187494582E+03  0.93004715006E+03  0.12320685156E+03  0.11026484551E+04  0.92871051820E+02 0.  0.
          1    1    3    3  502    0  0.29677772148E+02 -0.57414692111E+02 -0.16598544910E+02  0.66728769829E+02  0.00000000000E+00 0. -1.
         -1    1    3    3    0  502  0.68404053427E+03 -0.10221292772E+04  0.50329723009E+02  0.12309316768E+04  0.00000000000E+00 0.  1.
         11    1    5    5    0    0 -0.21182105295E+02  0.32782365406E+02  0.35411737867E+02  0.52700628508E+02  0.00000000000E+00 0. -1.
        -11    1    5    5    0    0 -0.12066125530E+03  0.11671445384E+03  0.55240836176E+03  0.57735292535E+03  0.00000000000E+00 0.  1.
          1    1    6    6  503    0 -0.34376397692E+03  0.56391138979E+03  0.28810156072E+02  0.66105956801E+03  0.00000000000E+00 0. -1.
         -1    1    6    6    0  503 -0.22811096890E+03  0.36613576027E+03  0.94396695492E+02  0.44158888709E+03  0.00000000000E+00 0.  1.
<mgrwt>
<rscale>  0 0.29374193E+04</rscale>
<asrwt>0</asrwt>
<pdfrwt beam="1">  1        1 0.29039389E+00 0.29374193E+04</pdfrwt>
<pdfrwt beam="2">  1       -1 0.17581572E+00 0.29374193E+04</pdfrwt>
<totfact> 0.67820033E-01</totfact>
</mgrwt>
</event>
<event>
12    2  0.3561489E-008  0.2732275E+04  0.7818608E-02  0.8324608E-01
          1   -1    0    0  501    0  0.00000000000E+00  0.00000000000E+00  0.16019813596E+04  0.16019813596E+04  0.00000000000E+00 0. -1.
         -1   -1    0    0    0  501 -0.00000000000E+00 -0.00000000000E+00 -0.11650144248E+04  0.11650144248E+04  0.00000000000E+00 0.  1.
         23    2    1    2    0    0  0.10821691513E+04 -0.51932993830E+03  0.10144863581E+01  0.12053400819E+04  0.10977261438E+03 0.  0.
        254    2    1    2    0    0 -0.10821691513E+04  0.51932993830E+03  0.43595244844E+03  0.15616557025E+04  0.89884389018E+03 0.  0.
         23    2    4    4    0    0 -0.11461384815E+04  0.32709721207E+03  0.54657378144E+03  0.13145915157E+04  0.93712058099E+02 0.  0.
         23    2    4    4    0    0  0.63969330105E+02  0.19223272624E+03 -0.11062133300E+03  0.24706418678E+03  0.88080286360E+02 0.  0.
          4    1    3    3  502    0  0.26127567804E+03 -0.74940757096E+02  0.56086380745E+01  0.27186863341E+03  0.00000000000E+00 0.  1.
         -4    1    3    3    0  502  0.82089347331E+03 -0.44438918121E+03 -0.45941517164E+01  0.93347144848E+03  0.00000000000E+00 0. -1.
         11    1    5    5    0    0 -0.21174309919E+03  0.90034625248E+02  0.79841570014E+02  0.24354886594E+03  0.00000000000E+00 0.  1.
        -11    1    5    5    0    0 -0.93439538226E+03  0.23706258682E+03  0.46673221143E+03  0.10710426498E+04  0.00000000000E+00 0. -1.
          3    1    6    6  503    0  0.44170949979E+02  0.19586735939E+03 -0.10056035964E+03  0.22456064042E+03  0.00000000000E+00 0. -1.
         -3    1    6    6    0  503  0.19798380126E+02 -0.36346331534E+01 -0.10060973358E+02  0.22503546358E+02  0.00000000000E+00 0.  1.
<mgrwt>
<rscale>  0 0.27322748E+04</rscale>
<asrwt>0</asrwt>
<pdfrwt beam="1">  1        1 0.24645867E+00 0.27322748E+04</pdfrwt>
<pdfrwt beam="2">  1       -1 0.17923299E+00 0.27322748E+04</pdfrwt>
<totfact> 0.10209640E+00</totfact>
</mgrwt>
</event>
<event>
12    2  0.3561489E-008  0.1133515E+04  0.7818608E-02  0.9173128E-01
          1   -1    0    0  501    0  0.00000000000E+00  0.00000000000E+00  0.61252909006E+03  0.61252909006E+03  0.00000000000E+00 0. -1.
         -1   -1    0    0    0  501 -0.00000000000E+00 -0.00000000000E+00 -0.52440638610E+03  0.52440638610E+03  0.00000000000E+00 0.  1.
         23    2    1    2    0    0 -0.17054946875E+03  0.12216450852E+02  0.13282793910E+03  0.23635247636E+03  0.94777996987E+02 0.  0.
        254    2    1    2    0    0  0.17054946875E+03 -0.12216450852E+02 -0.44705235142E+02  0.90058299980E+03  0.88307124204E+03 0.  0.
         23    2    4    4    0    0 -0.10686761361E+03 -0.39281631654E+03  0.12471731454E+02  0.41743980032E+03  0.91515558392E+02 0.  0.
         23    2    4    4    0    0  0.27741708236E+03  0.38059986569E+03 -0.57176966596E+02  0.48314319948E+03  0.91332635733E+02 0.  0.
          1    1    3    3  502    0 -0.10548676230E+03  0.33465449437E+02  0.12579664407E+03  0.16754757231E+03  0.00000000000E+00 0. -1.
         -1    1    3    3    0  502 -0.65062706454E+02 -0.21248998586E+02  0.70312950287E+01  0.68804904054E+02  0.00000000000E+00 0.  1.
         11    1    5    5    0    0 -0.39961462474E+02 -0.24604847034E+03  0.43898030652E+02  0.25310828777E+03  0.00000000000E+00 0. -1.
        -11    1    5    5    0    0 -0.66906151134E+02 -0.14676784620E+03 -0.31426299198E+02  0.16433151255E+03  0.00000000000E+00 0.  1.
          2    1    6    6  503    0  0.13097097186E+03  0.21664222134E+03 -0.70846245055E+02  0.26288103388E+03  0.00000000000E+00 0. -1.
         -2    1    6    6    0  503  0.14644611050E+03  0.16395764435E+03  0.13669278459E+02  0.22026216560E+03  0.00000000000E+00 0.  1.
<mgrwt>
<rscale>  0 0.11335152E+04</rscale>
<asrwt>0</asrwt>
<pdfrwt beam="1">  1        1 0.94235245E-01 0.11335152E+04</pdfrwt>
<pdfrwt beam="2">  1       -1 0.80677905E-01 0.11335152E+04</pdfrwt>
<totfact> 0.50654065E+01</totfact>
</mgrwt>
</event>
<event>
12    2  0.3561489E-008  0.4441779E+04  0.7818608E-02  0.7920910E-01
          2   -1    0    0  501    0  0.00000000000E+00  0.00000000000E+00  0.34839091716E+04  0.34839091716E+04  0.00000000000E+00 0. -1.
         -2   -1    0    0    0  501 -0.00000000000E+00 -0.00000000000E+00 -0.14157518396E+04  0.14157518396E+04  0.00000000000E+00 0.  1.
         23    2    1    2    0    0 -0.98620586556E+03  0.17248106534E+04  0.14984116743E+03  0.19945594591E+04  0.90781390205E+02 0.  0.
        254    2    1    2    0    0  0.98620586556E+03 -0.17248106534E+04  0.19183161646E+04  0.29051015522E+04  0.90116830929E+03 0.  0.
         23    2    4    4    0    0  0.91911205156E+03 -0.17046460613E+04  0.19832965379E+04  0.27734597560E+04  0.89603033806E+02 0.  0.
         23    2    4    4    0    0  0.67093814004E+02 -0.20164592144E+02 -0.64980373308E+02  0.13164179612E+03  0.90547903981E+02 0.  0.
          2    1    3    3  502    0 -0.10753919863E+03  0.13751548226E+03  0.79189717849E+01  0.17475095770E+03  0.00000000000E+00 0. -1.
         -2    1    3    3    0  502 -0.87866666693E+03  0.15872951712E+04  0.14192219564E+03  0.18198085013E+04  0.00000000000E+00 0.  1.
         11    1    5    5    0    0  0.89881457283E+03 -0.16636499521E+04  0.19539913107E+04  0.27191323693E+04  0.00000000000E+00 0.  1.
        -11    1    5    5    0    0  0.20297478725E+02 -0.40996109221E+02  0.29305227199E+02  0.54327386786E+02  0.00000000000E+00 0. -1.
          3    1    6    6  503    0 -0.83051302472E+01 -0.16711699305E+02  0.13287776795E+02  0.22908974099E+02  0.00000000000E+00 0. -1.
         -3    1    6    6    0  503  0.75398944252E+02 -0.34528928384E+01 -0.78268150103E+02  0.10873282202E+03  0.00000000000E+00 0.  1.
<mgrwt>
<rscale>  0 0.44417793E+04</rscale>
<asrwt>0</asrwt>
<pdfrwt beam="1">  1        2 0.53598603E+00 0.44417793E+04</pdfrwt>
<pdfrwt beam="2">  1       -2 0.21780798E+00 0.44417793E+04</pdfrwt>
<totfact> 0.64700236E-02</totfact>
</mgrwt>
</event>
<event>
12    2  0.3561489E-008  0.2407665E+04  0.7818608E-02  0.8436639E-01
         -2   -1    0    0    0  501 -0.00000000000E+00  0.00000000000E+00  0.14662854785E+04  0.14662854785E+04  0.00000000000E+00 0. -1.
          2   -1    0    0  501    0  0.00000000000E+00 -0.00000000000E+00 -0.98835680494E+03  0.98835680494E+03  0.00000000000E+00 0.  1.
         23    2    1    2    0    0  0.45168910976E+03  0.48036473710E+03 -0.59972958075E+03  0.89589773635E+03  0.90464641980E+02 0.  0.
        254    2    1    2    0    0 -0.45168910976E+03 -0.48036473710E+03  0.10776582543E+04  0.15587445471E+04  0.91299721657E+03 0.  0.
         23    2    4    4    0    0 -0.45154455619E+03 -0.51579829204E+03  0.26522484129E+03  0.74040179814E+03  0.88939541027E+02 0.  0.
         23    2    4    4    0    0 -0.14455356938E+00  0.35433554939E+02  0.81243341301E+03  0.81834274894E+03  0.91549147736E+02 0.  0.
          3    1    3    3  502    0  0.76385443352E+01  0.25516834185E+01 -0.25905030466E+02  0.27128012299E+02  0.00000000000E+00 0. -1.
         -3    1    3    3    0  502  0.44405056542E+03  0.47781305368E+03 -0.57382455028E+03  0.86876972405E+03  0.00000000000E+00 0.  1.
         11    1    5    5    0    0 -0.62654937277E+02 -0.48862672330E+02  0.57985781048E+02  0.98364387439E+02  0.00000000000E+00 0. -1.
        -11    1    5    5    0    0 -0.38888961891E+03 -0.46693561971E+03  0.20723906024E+03  0.64203741070E+03  0.00000000000E+00 0.  1.
          2    1    6    6  503    0 -0.26605417941E+02 -0.18191759914E+02  0.16258359610E+03  0.16574744074E+03  0.00000000000E+00 0. -1.
         -2    1    6    6    0  503  0.26460864372E+02  0.53625314853E+02  0.64984981692E+03  0.65259530820E+03  0.00000000000E+00 0.  1.
<mgrwt>
<rscale>  0 0.24076655E+04</rscale>
<asrwt>0</asrwt>
<pdfrwt beam="1">  1        2 0.15205489E+00 0.24076655E+04</pdfrwt>
<pdfrwt beam="2">  1       -2 0.22558238E+00 0.24076655E+04</pdfrwt>
<totfact> 0.20984534E+00</totfact>
</mgrwt>
</event>
<event>
12    2  0.3561489E-008  0.1643200E+04  0.7818608E-02  0.8794440E-01
         -1   -1    0    0    0  501 -0.00000000000E+00  0.00000000000E+00  0.40758792052E+03  0.40758792052E+03  0.00000000000E+00 0.  1.
          1   -1    0    0  501    0  0.00000000000E+00 -0.00000000000E+00 -0.16561489506E+04  0.16561489506E+04  0.00000000000E+00 0. -1.
         23    2    1    2    0    0 -0.31263800250E+03  0.47175682492E+03 -0.29235843852E+03  0.64339962187E+03  0.90512951440E+02 0.  0.
        254    2    1    2    0    0  0.31263800250E+03 -0.47175682492E+03 -0.95620259155E+03  0.14203372492E+04  0.88472452379E+03 0.  0.
         23    2    4    4    0    0  0.11054785799E+03  0.18412476866E+03  0.83344574183E+01  0.23352041449E+03  0.91321199425E+02 0.  0.
         23    2    4    4    0    0  0.20209014452E+03 -0.65588159358E+03 -0.96453704897E+03  0.11868168347E+04  0.84743076879E+02 0.  0.
          4    1    3    3  502    0 -0.31350923556E+03  0.43677138135E+03 -0.28074279343E+03  0.60652600638E+03  0.00000000000E+00 0. -1.
         -4    1    3    3    0  502  0.87123305025E+00  0.34985443570E+02 -0.11615645089E+02  0.36873615495E+02  0.00000000000E+00 0.  1.
         11    1    5    5    0    0  0.12552067602E+03  0.16134948026E+03  0.16442007508E+02  0.20508396939E+03  0.00000000000E+00 0.  1.
        -11    1    5    5    0    0 -0.14972818036E+02  0.22775288404E+02 -0.81075500897E+01  0.28436445106E+02  0.00000000000E+00 0. -1.
          3    1    6    6  503    0  0.60465120231E+01 -0.12772693256E+03 -0.19194879064E+03  0.23064055983E+03  0.00000000000E+00 0. -1.
         -3    1    6    6    0  503  0.19604363249E+03 -0.52815466102E+03 -0.77258825832E+03  0.95617627491E+03  0.00000000000E+00 0.  1.
<mgrwt>
<rscale>  0 0.16431997E+04</rscale>
<asrwt>0</asrwt>
<pdfrwt beam="1">  1        1 0.25479215E+00 0.16431997E+04</pdfrwt>
<pdfrwt beam="2">  1       -1 0.62705832E-01 0.16431997E+04</pdfrwt>
<totfact> 0.12594445E+01</totfact>
</mgrwt>
</event>
<event>
12    2  0.3561489E-008  0.1204070E+04  0.7818608E-02  0.9109301E-01
          1   -1    0    0  501    0  0.00000000000E+00  0.00000000000E+00  0.87281836361E+03  0.87281836361E+03  0.00000000000E+00 0. -1.
         -1   -1    0    0    0  501 -0.00000000000E+00 -0.00000000000E+00 -0.41525964962E+03  0.41525964962E+03  0.00000000000E+00 0.  1.
         23    2    1    2    0    0  0.59038412829E+02 -0.24077807845E+03  0.14448671512E+03  0.30084425118E+03  0.90394885745E+02 0.  0.
        254    2    1    2    0    0 -0.59038412829E+02  0.24077807845E+03  0.31307199887E+03  0.98723376205E+03  0.90286034756E+03 0.  0.
         23    2    4    4    0    0 -0.37195250356E+02  0.38075512412E+03 -0.20490498286E+03  0.44252270673E+03  0.86500536290E+02 0.  0.
         23    2    4    4    0    0 -0.21843162473E+02 -0.13997704566E+03  0.51797698173E+03  0.54471105532E+03  0.91319675483E+02 0.  0.
          1    1    3    3  502    0  0.80732198554E+02 -0.17554332724E+03  0.12200913358E+03  0.22851559312E+03  0.00000000000E+00 0. -1.
         -1    1    3    3    0  502 -0.21693785725E+02 -0.65234751214E+02  0.22477581540E+02  0.72328658061E+02  0.00000000000E+00 0.  1.
         11    1    5    5    0    0 -0.61887948565E+02  0.23556464344E+03 -0.10946592930E+03  0.26702735645E+03  0.00000000000E+00 0.  1.
        -11    1    5    5    0    0  0.24692698209E+02  0.14519048068E+03 -0.95439053555E+02  0.17549535028E+03  0.00000000000E+00 0. -1.
          3    1    6    6  503    0  0.25793777406E+02 -0.26365151547E+02  0.59794188475E+02  0.70255143188E+02  0.00000000000E+00 0.  1.
         -3    1    6    6    0  503 -0.47636939880E+02 -0.11361189412E+03  0.45818279325E+03  0.47445591213E+03  0.00000000000E+00 0. -1.
<mgrwt>
<rscale>  0 0.12040702E+04</rscale>
<asrwt>0</asrwt>
<pdfrwt beam="1">  1        1 0.13427975E+00 0.12040702E+04</pdfrwt>
<pdfrwt beam="2">  1       -1 0.63886100E-01 0.12040702E+04</pdfrwt>
<totfact> 0.47121511E+01</totfact>
</mgrwt>
</event>
<event>
12    2  0.3561489E-008  0.1444766E+04  0.7818608E-02  0.8922037E-01
         -1   -1    0    0    0  501 -0.00000000000E+00  0.00000000000E+00  0.55568787155E+03  0.55568787155E+03  0.00000000000E+00 0.  1.
          1   -1    0    0  501    0  0.00000000000E+00 -0.00000000000E+00 -0.93908295690E+03  0.93908295690E+03  0.00000000000E+00 0. -1.
         23    2    1    2    0    0  0.29742583072E+03  0.67353664770E+00  0.22605115459E+03  0.38412782525E+03  0.89400689088E+02 0.  0.
        254    2    1    2    0    0 -0.29742583072E+03 -0.67353664770E+00 -0.60944623994E+03  0.11106430032E+04  0.87956840709E+03 0.  0.
         23    2    4    4    0    0 -0.25971266872E+03 -0.19050021775E+03 -0.77258197965E+03  0.84181356798E+03  0.89588864811E+02 0.  0.
         23    2    4    4    0    0 -0.37713161997E+02  0.18982668110E+03  0.16313573971E+03  0.26882943522E+03  0.90551334745E+02 0.  0.
          3    1    3    3  502    0  0.20190749370E+02 -0.33334899532E+01  0.54176935199E+02  0.57913028094E+02  0.00000000000E+00 0. -1.
         -3    1    3    3    0  502  0.27723508135E+03  0.40070266009E+01  0.17187421939E+03  0.32621479715E+03  0.00000000000E+00 0.  1.
         11    1    5    5    0    0 -0.17770093833E+03 -0.17225275964E+03 -0.52604351877E+03  0.58135223430E+03  0.00000000000E+00 0. -1.
        -11    1    5    5    0    0 -0.82011730390E+02 -0.18247458114E+02 -0.24653846087E+03  0.26046133367E+03  0.00000000000E+00 0.  1.
          1    1    6    6  503    0 -0.18344159531E+02  0.15541325309E+03  0.77724347277E+02  0.17473082608E+03  0.00000000000E+00 0. -1.
         -1    1    6    6    0  503 -0.19369002466E+02  0.34413428016E+02  0.85411392434E+02  0.94098609139E+02  0.00000000000E+00 0.  1.
<mgrwt>
<rscale>  0 0.14447657E+04</rscale>
<asrwt>0</asrwt>
<pdfrwt beam="1">  1        1 0.14447430E+00 0.14447657E+04</pdfrwt>
<pdfrwt beam="2">  1       -1 0.85490443E-01 0.14447657E+04</pdfrwt>
<totfact> 0.22225182E+01</totfact>
</mgrwt>
</event>
<event>
12    2  0.3561489E-008  0.2392255E+04  0.7818608E-02  0.8442409E-01
         -1   -1    0    0    0  501 -0.00000000000E+00  0.00000000000E+00  0.81062053959E+03  0.81062053959E+03  0.00000000000E+00 0.  1.
          1   -1    0    0  501    0  0.00000000000E+00 -0.00000000000E+00 -0.17649700790E+04  0.17649700790E+04  0.00000000000E+00 0. -1.
         23    2    1    2    0    0 -0.70054140414E+03  0.52775636238E+03  0.18258220158E+03  0.90022207603E+03  0.88195741898E+02 0.  0.
        254    2    1    2    0    0  0.70054140414E+03 -0.52775636238E+03 -0.11369317410E+04  0.16753685426E+04  0.86311119377E+03 0.  0.
         23    2    4    4    0    0  0.10163745101E+02 -0.51992807612E+03 -0.56964719412E+03  0.77687375087E+03  0.92770647089E+02 0.  0.
         23    2    4    4    0    0  0.69037765904E+03 -0.78282862589E+01 -0.56728454688E+03  0.89849479171E+03  0.93800530007E+02 0.  0.
          1    1    3    3  502    0 -0.72292285858E+02  0.91530878433E+02  0.21671839975E+02  0.11863281565E+03  0.00000000000E+00 0. -1.
         -1    1    3    3    0  502 -0.62824911828E+03  0.43622548395E+03  0.16091036161E+03  0.78158926038E+03  0.00000000000E+00 0.  1.
         11    1    5    5    0    0  0.19148257482E+02 -0.50734492332E+03 -0.56717120420E+03  0.76121527957E+03  0.00000000000E+00 0. -1.
        -11    1    5    5    0    0 -0.89845123811E+01 -0.12583152804E+02 -0.24759899231E+01  0.15658471296E+02  0.00000000000E+00 0.  1.
          1    1    6    6  503    0  0.62156446780E+03  0.20978322778E+02 -0.51376955888E+03  0.80668558762E+03  0.00000000000E+00 0. -1.
         -1    1    6    6    0  503  0.68813191243E+02 -0.28806609037E+02 -0.53514988007E+02  0.91809204085E+02  0.00000000000E+00 0.  1.
<mgrwt>
<rscale>  0 0.23922550E+04</rscale>
<asrwt>0</asrwt>
<pdfrwt beam="1">  1        1 0.27153386E+00 0.23922550E+04</pdfrwt>
<pdfrwt beam="2">  1       -1 0.12471085E+00 0.23922550E+04</pdfrwt>
<totfact> 0.21721337E+00</totfact>
</mgrwt>
</event>
<event>
12    2  0.3561489E-008  0.1344692E+04  0.7818608E-02  0.8994856E-01
         -1   -1    0    0    0  501 -0.00000000000E+00  0.00000000000E+00  0.42832201105E+03  0.42832201105E+03  0.00000000000E+00 0.  1.
          1   -1    0    0  501    0  0.00000000000E+00 -0.00000000000E+00 -0.10553957070E+04  0.10553957070E+04  0.00000000000E+00 0. -1.
         23    2    1    2    0    0  0.33415906252E+03 -0.12714095697E+02 -0.23821621867E+02  0.34772537895E+03  0.92312199652E+02 0.  0.
        254    2    1    2    0    0 -0.33415906252E+03  0.12714095697E+02 -0.60325207411E+03  0.11359923391E+04  0.90263037969E+03 0.  0.
         23    2    4    4    0    0  0.19548565153E+03  0.21609793481E+03 -0.44373364705E+03  0.53878808161E+03  0.92087404027E+02 0.  0.
         23    2    4    4    0    0 -0.52964471405E+03 -0.20338383911E+03 -0.15951842706E+03  0.59720425751E+03  0.96531277240E+02 0.  0.
          2    1    3    3  502    0  0.80688146108E+02 -0.40055652160E+02 -0.22201300359E+02  0.92778930420E+02  0.00000000000E+00 0. -1.
         -2    1    3    3    0  502  0.25347091641E+03  0.27341556463E+02 -0.16203215073E+01  0.25494644853E+03  0.00000000000E+00 0.  1.
         11    1    5    5    0    0  0.18933559502E+02  0.59001381783E+01 -0.83845042887E+02  0.86158473308E+02  0.00000000000E+00 0.  1.
        -11    1    5    5    0    0  0.17655209203E+03  0.21019779663E+03 -0.35988860416E+03  0.45262960830E+03  0.00000000000E+00 0. -1.
          4    1    6    6  503    0 -0.52757749694E+03 -0.20775011909E+03 -0.16437563868E+03  0.59035368877E+03  0.00000000000E+00 0. -1.
         -4    1    6    6    0  503 -0.20672171114E+01  0.43662799737E+01  0.48572116152E+01  0.68505687405E+01  0.00000000000E+00 0.  1.
<mgrwt>
<rscale>  0 0.13446921E+04</rscale>
<asrwt>0</asrwt>
<pdfrwt beam="1">  1        1 0.16236857E+00 0.13446921E+04</pdfrwt>
<pdfrwt beam="2">  1       -1 0.65895695E-01 0.13446921E+04</pdfrwt>
<totfact> 0.31334508E+01</totfact>
</mgrwt>
</event>
<event>
12    2  0.3561489E-008  0.1326449E+04  0.7818608E-02  0.9008850E-01
         -2   -1    0    0    0  501 -0.00000000000E+00  0.00000000000E+00  0.33220730861E+03  0.33220730861E+03  0.00000000000E+00 0.  1.
          2   -1    0    0  501    0  0.00000000000E+00 -0.00000000000E+00 -0.13240732969E+04  0.13240732969E+04  0.00000000000E+00 0. -1.
         23    2    1    2    0    0 -0.22998069705E+03 -0.26073423567E+03 -0.27614494698E+03  0.45080048619E+03  0.78048599881E+02 0.  0.
        254    2    1    2    0    0  0.22998069705E+03  0.26073423567E+03 -0.71572104132E+03  0.12054801193E+04  0.90556736163E+03 0.  0.
         23    2    4    4    0    0 -0.31848893619E+03  0.96314759197E+01 -0.39441583274E+03  0.51560046705E+03  0.93552256552E+02 0.  0.
         23    2    4    4    0    0  0.54846963323E+03  0.25110275975E+03 -0.32130520858E+03  0.68987965228E+03  0.93943403354E+02 0.  0.
          3    1    3    3  502    0 -0.13037336153E+03 -0.18011510388E+03 -0.13482068186E+03  0.26002938353E+03  0.00000000000E+00 0. -1.
         -3    1    3    3    0  502 -0.99607335517E+02 -0.80619131793E+02 -0.14132426511E+03  0.19077110266E+03  0.00000000000E+00 0.  1.
         11    1    5    5    0    0 -0.29850731643E+03  0.32517045292E+02 -0.34286823687E+03  0.45576595315E+03  0.00000000000E+00 0. -1.
        -11    1    5    5    0    0 -0.19981619752E+02 -0.22885569372E+02 -0.51547595872E+02  0.59834513900E+02  0.00000000000E+00 0.  1.
          4    1    6    6  503    0  0.51944405227E+03  0.21778849707E+03 -0.31469450634E+03  0.64520274738E+03  0.00000000000E+00 0. -1.
         -4    1    6    6    0  503  0.29025580961E+02  0.33314262675E+02 -0.66107022419E+01  0.44676904905E+02  0.00000000000E+00 0.  1.
<mgrwt>
<rscale>  0 0.13264491E+04</rscale>
<asrwt>0</asrwt>
<pdfrwt beam="1">  1        2 0.20370359E+00 0.13264491E+04</pdfrwt>
<pdfrwt beam="2">  1       -2 0.51108816E-01 0.13264491E+04</pdfrwt>
<totfact> 0.56646280E+01</totfact>
</mgrwt>
</event>
<event>
12    2  0.3561489E-008  0.1413782E+04  0.7818608E-02  0.8943903E-01
         -2   -1    0    0    0  501 -0.00000000000E+00  0.00000000000E+00  0.25562489309E+03  0.25562489309E+03  0.00000000000E+00 0.  1.
          2   -1    0    0  501    0  0.00000000000E+00 -0.00000000000E+00 -0.19547961360E+04  0.19547961360E+04  0.00000000000E+00 0. -1.
         23    2    1    2    0    0  0.32044045764E+03  0.28753369349E+03 -0.39413956554E+03  0.59079390598E+03  0.91289267926E+02 0.  0.
        254    2    1    2    0    0 -0.32044045764E+03 -0.28753369349E+03 -0.13050316774E+04  0.16196271231E+04  0.85716196087E+03 0.  0.
         23    2    4    4    0    0 -0.21327266375E+03 -0.99735265868E+02  0.38630603239E+02  0.25561437604E+03  0.91728040246E+02 0.  0.
         23    2    4    4    0    0 -0.10716779388E+03 -0.18779842762E+03 -0.13436622806E+04  0.13640127471E+04  0.91374309105E+02 0.  0.
          3    1    3    3  502    0  0.30748565007E+02  0.63013435942E+02 -0.38004115265E+02  0.79752618366E+02  0.00000000000E+00 0. -1.
         -3    1    3    3    0  502  0.28969189263E+03  0.22452025755E+03 -0.35613545027E+03  0.51104128761E+03  0.00000000000E+00 0.  1.
         11    1    5    5    0    0 -0.21689754965E+03 -0.10678665685E+03  0.44407154970E+02  0.24580466338E+03  0.00000000000E+00 0. -1.
        -11    1    5    5    0    0  0.36248858941E+01  0.70513909850E+01 -0.57765517306E+01  0.98097126597E+01  0.00000000000E+00 0.  1.
          1    1    6    6  503    0 -0.79076035598E+01 -0.10303330172E+03 -0.53588633806E+03  0.54575870014E+03  0.00000000000E+00 0. -1.
         -1    1    6    6    0  503 -0.99260190321E+02 -0.84765125897E+02 -0.80777594254E+03  0.81825404692E+03  0.00000000000E+00 0.  1.
<mgrwt>
<rscale>  0 0.14137815E+04</rscale>
<asrwt>0</asrwt>
<pdfrwt beam="1">  1        2 0.30073785E+00 0.14137815E+04</pdfrwt>
<pdfrwt beam="2">  1       -2 0.39326908E-01 0.14137815E+04</pdfrwt>
<totfact> 0.42104522E+01</totfact>
</mgrwt>
</event>
<event>
12    2  0.3561489E-008  0.1775835E+04  0.7818608E-02  0.8719257E-01
         -1   -1    0    0    0  501 -0.00000000000E+00  0.00000000000E+00  0.56919069020E+03  0.56919069020E+03  0.00000000000E+00 0.  1.
          1   -1    0    0  501    0  0.00000000000E+00 -0.00000000000E+00 -0.13851203404E+04  0.13851203404E+04  0.00000000000E+00 0. -1.
         23    2    1    2    0    0 -0.19870138673E+03  0.45841633300E+03 -0.74525283465E+03  0.90199918798E+03  0.92590345673E+02 0.  0.
        254    2    1    2    0    0  0.19870138673E+03 -0.45841633300E+03 -0.70676815580E+02  0.10523118426E+04  0.92343772203E+03 0.  0.
         23    2    4    4    0    0 -0.10378904866E+03 -0.64914635301E+03 -0.13768402681E+03  0.67749357382E+03  0.88755265072E+02 0.  0.
         23    2    4    4    0    0  0.30249043539E+03  0.19073002001E+03  0.67007211234E+02  0.37481826883E+03  0.90113063765E+02 0.  0.
          3    1    3    3  502    0 -0.16885758036E+03  0.43697604566E+03 -0.71286357394E+03  0.85301548754E+03  0.00000000000E+00 0. -1.
         -3    1    3    3    0  502 -0.29843806369E+02  0.21440287338E+02 -0.32389260713E+02  0.48983700444E+02  0.00000000000E+00 0.  1.
         11    1    5    5    0    0 -0.65579592438E+02 -0.16788360539E+03 -0.47123791717E+02  0.18629610744E+03  0.00000000000E+00 0. -1.
        -11    1    5    5    0    0 -0.38209456218E+02 -0.48126274762E+03 -0.90560235097E+02  0.49119746637E+03  0.00000000000E+00 0.  1.
          4    1    6    6  503    0  0.67980321255E+02  0.91835341098E+02  0.19377778912E+02  0.11589025959E+03  0.00000000000E+00 0. -1.
         -4    1    6    6    0  503  0.23451011413E+03  0.98894678911E+02  0.47629432322E+02  0.25892800924E+03  0.00000000000E+00 0.  1.
<mgrwt>
<rscale>  0 0.17758351E+04</rscale>
<asrwt>0</asrwt>
<pdfrwt beam="1">  1        1 0.21309543E+00 0.17758351E+04</pdfrwt>
<pdfrwt beam="2">  1       -1 0.87567799E-01 0.17758351E+04</pdfrwt>
<totfact> 0.95481179E+00</totfact>
</mgrwt>
</event>
<event>
12    2  0.3561489E-008  0.1844619E+04  0.7818608E-02  0.8682925E-01
         -2   -1    0    0    0  501 -0.00000000000E+00  0.00000000000E+00  0.61492162775E+03  0.61492162775E+03  0.00000000000E+00 0. -1.
          2   -1    0    0  501    0  0.00000000000E+00 -0.00000000000E+00 -0.13833551472E+04  0.13833551472E+04  0.00000000000E+00 0.  1.
         23    2    1    2    0    0 -0.57586286973E+03  0.19281180434E+02  0.13207804418E+03  0.59829838713E+03  0.92339274563E+02 0.  0.
        254    2    1    2    0    0  0.57586286973E+03 -0.19281180434E+02 -0.90051156364E+03  0.13999783878E+04  0.90389634445E+03 0.  0.
         23    2    4    4    0    0  0.73050637286E+03  0.15859207835E+03 -0.43278114376E+03  0.86840539426E+03  0.89651560358E+02 0.  0.
         23    2    4    4    0    0 -0.15464350313E+03 -0.17787325878E+03 -0.46773041987E+03  0.53157299357E+03  0.90799738832E+02 0.  0.
          4    1    3    3  502    0 -0.33210705787E+03  0.12219622985E+02  0.29148854777E+02  0.33360766299E+03  0.00000000000E+00 0. -1.
         -4    1    3    3    0  502 -0.24375581186E+03  0.70615574486E+01  0.10292918940E+03  0.26469072413E+03  0.00000000000E+00 0.  1.
         11    1    5    5    0    0  0.54285284827E+03  0.96687609808E+02 -0.27867517225E+03  0.61781676927E+03  0.00000000000E+00 0. -1.
        -11    1    5    5    0    0  0.18765352460E+03  0.61904468540E+02 -0.15410597152E+03  0.25058862499E+03  0.00000000000E+00 0.  1.
          1    1    6    6  503    0 -0.11808130608E+03 -0.13912923055E+03 -0.26356746229E+03  0.32057439825E+03  0.00000000000E+00 0. -1.
         -1    1    6    6    0  503 -0.36562197053E+02 -0.38744028230E+02 -0.20416295759E+03  0.21099859532E+03  0.00000000000E+00 0.  1.
<mgrwt>
<rscale>  0 0.18446192E+04</rscale>
<asrwt>0</asrwt>
<pdfrwt beam="1">  1        2 0.21282386E+00 0.18446192E+04</pdfrwt>
<pdfrwt beam="2">  1       -2 0.94603329E-01 0.18446192E+04</pdfrwt>
<totfact> 0.13098227E+01</totfact>
</mgrwt>
</event>
<event>
12    2  0.3561489E-008  0.1373542E+04  0.7818608E-02  0.8973196E-01
          1   -1    0    0  501    0  0.00000000000E+00  0.00000000000E+00  0.25169268871E+04  0.25169268871E+04  0.00000000000E+00 0. -1.
         -1   -1    0    0    0  501 -0.00000000000E+00 -0.00000000000E+00 -0.18739284971E+03  0.18739284971E+03  0.00000000000E+00 0.  1.
         23    2    1    2    0    0  0.10212150589E+03 -0.20862759040E+03  0.12810913701E+04  0.13052522716E+04  0.92380304936E+02 0.  0.
        254    2    1    2    0    0 -0.10212150589E+03  0.20862759040E+03  0.10484426674E+04  0.13990674652E+04  0.89677392468E+03 0.  0.
         23    2    4    4    0    0  0.38981317089E+03  0.73331264262E+02  0.42662889426E+03  0.58956264427E+03  0.90775082389E+02 0.  0.
         23    2    4    4    0    0 -0.49193467679E+03  0.13529632614E+03  0.62181377310E+03  0.80950482092E+03  0.91328333977E+02 0.  0.
          3    1    3    3  502    0  0.58807323257E+02 -0.11271825410E+03  0.93235975539E+03  0.94098800180E+03  0.00000000000E+00 0. -1.
         -3    1    3    3    0  502  0.43314182637E+02 -0.95909336298E+02  0.34873161468E+03  0.36426426984E+03  0.00000000000E+00 0.  1.
         11    1    5    5    0    0  0.13633779545E+03  0.17228905607E+02  0.21237808201E+03  0.25296102343E+03  0.00000000000E+00 0. -1.
        -11    1    5    5    0    0  0.25347537544E+03  0.56102358655E+02  0.21425081225E+03  0.33660162084E+03  0.00000000000E+00 0.  1.
          4    1    6    6  503    0 -0.55422388892E+02  0.25632377449E+02  0.36448887877E+02  0.71113862163E+02  0.00000000000E+00 0. -1.
         -4    1    6    6    0  503 -0.43651228789E+03  0.10966394869E+03  0.58536488522E+03  0.73839095876E+03  0.00000000000E+00 0.  1.
<mgrwt>
<rscale>  0 0.13735416E+04</rscale>
<asrwt>0</asrwt>
<pdfrwt beam="1">  1        1 0.38721950E+00 0.13735416E+04</pdfrwt>
<pdfrwt beam="2">  1       -1 0.28829671E-01 0.13735416E+04</pdfrwt>
<totfact> 0.14150930E+01</totfact>
</mgrwt>
</event>
<event>
12    2  0.3561489E-008  0.1220558E+04  0.7818608E-02  0.9095050E-01
         -1   -1    0    0    0  501 -0.00000000000E+00  0.00000000000E+00  0.57679456842E+03  0.57679456842E+03  0.00000000000E+00 0.  1.
          1   -1    0    0  501    0  0.00000000000E+00 -0.00000000000E+00 -0.64570689178E+03  0.64570689178E+03  0.00000000000E+00 0. -1.
         23    2    1    2    0    0  0.27176895545E+03  0.13982294320E+02 -0.99068534830E+02  0.30323396142E+03  0.89902119342E+02 0.  0.
        254    2    1    2    0    0 -0.27176895545E+03 -0.13982294320E+02  0.30156211475E+02  0.91926749878E+03  0.87754741611E+03 0.  0.
         23    2    4    4    0    0 -0.47916302520E+03 -0.11135333488E+02 -0.25756857123E+03  0.55174373026E+03  0.91424146875E+02 0.  0.
         23    2    4    4    0    0  0.20739406975E+03 -0.28469608323E+01  0.28772478270E+03  0.36752376852E+03  0.96269229230E+02 0.  0.
          3    1    3    3  502    0  0.18088022188E+03  0.60846625498E+01 -0.10930685801E+03  0.21143005224E+03  0.00000000000E+00 0. -1.
         -3    1    3    3    0  502  0.90888733572E+02  0.78976317704E+01  0.10238323175E+02  0.91803909172E+02  0.00000000000E+00 0.  1.
         11    1    5    5    0    0 -0.43669113395E+03 -0.16332548030E+02 -0.26068046694E+03  0.50884202307E+03  0.00000000000E+00 0. -1.
        -11    1    5    5    0    0 -0.42471891245E+02  0.51972145421E+01  0.31118957167E+01  0.42901707191E+02  0.00000000000E+00 0.  1.
          2    1    6    6  503    0  0.82031808969E+02 -0.23227604807E+02  0.18667027663E+03  0.20521825330E+03  0.00000000000E+00 0. -1.
         -2    1    6    6    0  503  0.12536226078E+03  0.20380643974E+02  0.10105450607E+03  0.16230551522E+03  0.00000000000E+00 0.  1.
<mgrwt>
<rscale>  0 0.12205576E+04</rscale>
<asrwt>0</asrwt>
<pdfrwt beam="1">  1        1 0.99339522E-01 0.12205576E+04</pdfrwt>
<pdfrwt beam="2">  1       -1 0.88737626E-01 0.12205576E+04</pdfrwt>
<totfact> 0.37899819E+01</totfact>
</mgrwt>
</event>
<event>
12    2  0.3561489E-008  0.1407324E+04  0.7818608E-02  0.8948534E-01
          1   -1    0    0  501    0  0.00000000000E+00  0.00000000000E+00  0.20944135197E+04  0.20944135197E+04  0.00000000000E+00 0. -1.
         -1   -1    0    0    0  501 -0.00000000000E+00 -0.00000000000E+00 -0.23640997697E+03  0.23640997697E+03  0.00000000000E+00 0.  1.
         23    2    1    2    0    0  0.39208053511E+03  0.89343030073E+02  0.40698218300E+03  0.57860948919E+03  0.86285112615E+02 0.  0.
        254    2    1    2    0    0 -0.39208053511E+03 -0.89343030073E+02  0.14510213598E+04  0.17522140075E+04  0.89614821244E+03 0.  0.
         23    2    4    4    0    0 -0.34743490708E+03 -0.30070888157E+03  0.14440656090E+04  0.15182137194E+04  0.92252743418E+02 0.  0.
         23    2    4    4    0    0 -0.44645628027E+02  0.21136585150E+03  0.69557507629E+01  0.23400028809E+03  0.89660454374E+02 0.  0.
          4    1    3    3  502    0  0.93109941324E+02  0.21924150030E+02  0.15360835361E+03  0.18095760782E+03  0.00000000000E+00 0. -1.
         -4    1    3    3    0  502  0.29897059379E+03  0.67418880043E+02  0.25337382939E+03  0.39765188137E+03  0.00000000000E+00 0.  1.
         11    1    5    5    0    0 -0.24346263449E+03 -0.25738740111E+03  0.10369908801E+04  0.10958432434E+04  0.00000000000E+00 0. -1.
        -11    1    5    5    0    0 -0.10397227259E+03 -0.43321480463E+02  0.40707472888E+03  0.42237047604E+03  0.00000000000E+00 0.  1.
          1    1    6    6  503    0 -0.62835988871E+02  0.97235466702E+02  0.20724522712E+02  0.11761208834E+03  0.00000000000E+00 0. -1.
         -1    1    6    6    0  503  0.18190360843E+02  0.11413038479E+03 -0.13768771949E+02  0.11638819975E+03  0.00000000000E+00 0.  1.
<mgrwt>
<rscale>  0 0.14073241E+04</rscale>
<asrwt>0</asrwt>
<pdfrwt beam="1">  1        1 0.32221745E+00 0.14073241E+04</pdfrwt>
<pdfrwt beam="2">  1       -1 0.36370767E-01 0.14073241E+04</pdfrwt>
<totfact> 0.18164204E+01</totfact>
</mgrwt>
</event>
<event>
12    2  0.3561489E-008  0.2852284E+04  0.7818608E-02  0.8287218E-01
         -2   -1    0    0    0  501 -0.00000000000E+00  0.00000000000E+00  0.13443953900E+04  0.13443953900E+04  0.00000000000E+00 0.  1.
          2   -1    0    0  501    0  0.00000000000E+00 -0.00000000000E+00 -0.15128592912E+04  0.15128592912E+04  0.00000000000E+00 0. -1.
         23    2    1    2    0    0 -0.12315500287E+04 -0.18604872699E+02  0.15432726418E+03  0.12447041593E+04  0.91705644097E+02 0.  0.
        254    2    1    2    0    0  0.12315500287E+04  0.18604872699E+02 -0.32279116530E+03  0.16125505219E+04  0.98947634373E+03 0.  0.
         23    2    4    4    0    0  0.67793193178E+03  0.43638030339E+03 -0.40657169046E+03  0.90795712423E+03  0.95216209990E+02 0.  0.
         23    2    4    4    0    0  0.55361809693E+03 -0.41777543069E+03  0.83780525156E+02  0.70459339767E+03  0.91669907361E+02 0.  0.
          3    1    3    3  502    0 -0.33885662035E+03  0.32184323413E+02  0.59646964531E+02  0.34556822801E+03  0.00000000000E+00 0. -1.
         -3    1    3    3    0  502 -0.89269340836E+03 -0.50789196112E+02  0.94680299650E+02  0.89913593127E+03  0.00000000000E+00 0.  1.
         11    1    5    5    0    0  0.82137351868E+02  0.35915059757E+02 -0.17188340698E+02  0.91279105743E+02  0.00000000000E+00 0. -1.
        -11    1    5    5    0    0  0.59579457991E+03  0.40046524363E+03 -0.38938334976E+03  0.81667801849E+03  0.00000000000E+00 0.  1.
          2    1    6    6  503    0  0.15977040844E+02 -0.30680322050E+02  0.17569356516E+02  0.38797297375E+02  0.00000000000E+00 0. -1.
         -2    1    6    6    0  503  0.53764105608E+03 -0.38709510864E+03  0.66211168640E+02  0.66579610030E+03  0.00000000000E+00 0.  1.
<mgrwt>
<rscale>  0 0.28522840E+04</rscale>
<asrwt>0</asrwt>
<pdfrwt beam="1">  1        2 0.23274758E+00 0.28522840E+04</pdfrwt>
<pdfrwt beam="2">  1       -2 0.20683006E+00 0.28522840E+04</pdfrwt>
<totfact> 0.12984090E+00</totfact>
</mgrwt>
</event>
<event>
12    2  0.3561489E-008  0.2024561E+04  0.7818608E-02  0.8595223E-01
         -1   -1    0    0    0  501 -0.00000000000E+00  0.00000000000E+00  0.73087239954E+03  0.73087239954E+03  0.00000000000E+00 0.  1.
          1   -1    0    0  501    0  0.00000000000E+00 -0.00000000000E+00 -0.14020397919E+04  0.14020397919E+04  0.00000000000E+00 0. -1.
         23    2    1    2    0    0  0.55444833183E+03 -0.52404591449E+03 -0.48917883988E+03  0.91005928520E+03  0.82914968709E+02 0.  0.
        254    2    1    2    0    0 -0.55444833183E+03  0.52404591449E+03 -0.18198855250E+03  0.12228529063E+04  0.93819631418E+03 0.  0.
         23    2    4    4    0    0 -0.71713972833E+02  0.29007692914E+03  0.34506480113E+03  0.46566356961E+03  0.92115820385E+02 0.  0.
         23    2    4    4    0    0 -0.48273435900E+03  0.23396898535E+03 -0.52705335363E+03  0.75718933665E+03  0.88184502561E+02 0.  0.
          1    1    3    3  502    0  0.55732167791E+03 -0.52185939548E+03 -0.48495809138E+03  0.90450485445E+03  0.00000000000E+00 0. -1.
         -1    1    3    3    0  502 -0.28733460853E+01 -0.21865190055E+01 -0.42207485007E+01  0.55544307533E+01  0.00000000000E+00 0.  1.
         11    1    5    5    0    0 -0.84292943721E+02  0.20785067417E+03  0.28686982297E+03  0.36414488661E+03  0.00000000000E+00 0. -1.
        -11    1    5    5    0    0  0.12578970888E+02  0.82226254970E+02  0.58194978160E+02  0.10151868300E+03  0.00000000000E+00 0.  1.
          1    1    6    6  503    0 -0.33748349710E+03  0.13445735166E+03 -0.30897309718E+03  0.47690488046E+03  0.00000000000E+00 0. -1.
         -1    1    6    6    0  503 -0.14525086190E+03  0.99511633693E+02 -0.21808025646E+03  0.28028445618E+03  0.00000000000E+00 0.  1.
<mgrwt>
<rscale>  0 0.20245614E+04</rscale>
<asrwt>0</asrwt>
<pdfrwt beam="1">  1        1 0.21569843E+00 0.20245614E+04</pdfrwt>
<pdfrwt beam="2">  1       -1 0.11244191E+00 0.20245614E+04</pdfrwt>
<totfact> 0.51348535E+00</totfact>
</mgrwt>
</event>
<event>
12    2  0.3561489E-008  0.2172794E+04  0.7818608E-02  0.8529838E-01
          2   -1    0    0  501    0  0.00000000000E+00  0.00000000000E+00  0.14761586110E+04  0.14761586110E+04  0.00000000000E+00 0. -1.
         -2   -1    0    0    0  501 -0.00000000000E+00 -0.00000000000E+00 -0.79954691375E+03  0.79954691375E+03  0.00000000000E+00 0.  1.
         23    2    1    2    0    0  0.33662402668E+03  0.22765731341E+02 -0.59147762561E+03  0.68712469349E+03  0.91981242321E+02 0.  0.
        254    2    1    2    0    0 -0.33662402668E+03 -0.22765731341E+02  0.12680893228E+04  0.15885808313E+04  0.89537953564E+03 0.  0.
         23    2    4    4    0    0  0.27146283055E+03  0.12737349941E+03  0.31166833857E+03  0.44114191247E+03  0.86907749683E+02 0.  0.
         23    2    4    4    0    0 -0.60808685723E+03 -0.15013923075E+03  0.95642098427E+03  0.11474389188E+04  0.97793448740E+02 0.  0.
          4    1    3    3  502    0  0.10883536631E+03 -0.14466287581E+02 -0.12299565926E+03  0.16487068457E+03  0.00000000000E+00 0. -1.
         -4    1    3    3    0  502  0.22778866038E+03  0.37232018922E+02 -0.46848196636E+03  0.52225400892E+03  0.00000000000E+00 0.  1.
         11    1    5    5    0    0  0.12768020007E+03  0.23930844363E+02  0.17216894049E+03  0.21567814649E+03  0.00000000000E+00 0.  1.
        -11    1    5    5    0    0  0.14378263048E+03  0.10344265504E+03  0.13949939808E+03  0.22546376599E+03  0.00000000000E+00 0. -1.
          3    1    6    6  503    0 -0.54098635018E+03 -0.14319439538E+03  0.89850879481E+03  0.10585314923E+04  0.00000000000E+00 0. -1.
         -3    1    6    6    0  503 -0.67100507056E+02 -0.69448353690E+01  0.57912189465E+02  0.88907426429E+02  0.00000000000E+00 0.  1.
<mgrwt>
<rscale>  0 0.21727937E+04</rscale>
<asrwt>0</asrwt>
<pdfrwt beam="1">  1        2 0.22710132E+00 0.21727937E+04</pdfrwt>
<pdfrwt beam="2">  1       -2 0.12300722E+00 0.21727937E+04</pdfrwt>
<totfact> 0.59892232E+00</totfact>
</mgrwt>
</event>
<event>
12    2  0.3561489E-008  0.1812312E+04  0.7818608E-02  0.8699780E-01
         -1   -1    0    0    0  501 -0.00000000000E+00  0.00000000000E+00  0.18305779391E+04  0.18305779391E+04  0.00000000000E+00 0.  1.
          1   -1    0    0  501    0  0.00000000000E+00 -0.00000000000E+00 -0.44855695642E+03  0.44855695642E+03  0.00000000000E+00 0. -1.
         23    2    1    2    0    0 -0.37108418272E+03 -0.10555346058E+03  0.12346642447E+04  0.12966390287E+04  0.89621258775E+02 0.  0.
        254    2    1    2    0    0  0.37108418272E+03  0.10555346058E+03  0.14735673801E+03  0.98249586680E+03  0.89148141671E+03 0.  0.
         23    2    4    4    0    0  0.41130777833E+03  0.44720271851E+03  0.11807806981E+03  0.62529244040E+03  0.88791021480E+02 0.  0.
         23    2    4    4    0    0 -0.40223595611E+02 -0.34164925793E+03  0.29278668207E+02  0.35720342640E+03  0.91623655960E+02 0.  0.
          2    1    3    3  502    0 -0.23117296035E+03 -0.55754400255E+02  0.61367535633E+03  0.65813899270E+03  0.00000000000E+00 0. -1.
         -2    1    3    3    0  502 -0.13991122237E+03 -0.49799060329E+02  0.62098888836E+03  0.63850003604E+03  0.00000000000E+00 0.  1.
         11    1    5    5    0    0  0.48084441822E+02  0.17052695341E+02  0.11567265465E+02  0.52313569885E+02  0.00000000000E+00 0.  1.
        -11    1    5    5    0    0  0.36322333651E+03  0.43015002317E+03  0.10651080434E+03  0.57297887052E+03  0.00000000000E+00 0. -1.
          3    1    6    6  503    0  0.23505489057E+02 -0.35039554275E+02  0.10488703188E+02  0.43477480081E+02  0.00000000000E+00 0.  1.
         -3    1    6    6    0  503 -0.63729084668E+02 -0.30660970365E+03  0.18789965019E+02  0.31372594632E+03  0.00000000000E+00 0. -1.
<mgrwt>
<rscale>  0 0.18123117E+04</rscale>
<asrwt>0</asrwt>
<pdfrwt beam="1">  1        1 0.69008764E-01 0.18123117E+04</pdfrwt>
<pdfrwt beam="2">  1       -1 0.28162737E+00 0.18123117E+04</pdfrwt>
<totfact> 0.21072506E+00</totfact>
</mgrwt>
</event>
<event>
12    2  0.3561489E-008  0.1221232E+04  0.7818608E-02  0.9094473E-01
         -2   -1    0    0    0  501 -0.00000000000E+00  0.00000000000E+00  0.45971680769E+03  0.45971680769E+03  0.00000000000E+00 0.  1.
          2   -1    0    0  501    0  0.00000000000E+00 -0.00000000000E+00 -0.81104683290E+03  0.81104683290E+03  0.00000000000E+00 0. -1.
         23    2    1    2    0    0  0.10184057288E+03 -0.21757084515E+03 -0.21383620678E+03  0.33331387014E+03  0.87542205555E+02 0.  0.
        254    2    1    2    0    0 -0.10184057288E+03  0.21757084515E+03 -0.13749381844E+03  0.93744977044E+03  0.89565559623E+03 0.  0.
         23    2    4    4    0    0  0.19157858086E+03  0.26408531318E+03 -0.40465653900E+03  0.52779572349E+03  0.91531447568E+02 0.  0.
         23    2    4    4    0    0 -0.29341915374E+03 -0.46514468031E+02  0.26716272057E+03  0.40965404695E+03  0.90455090540E+02 0.  0.
          1    1    3    3  502    0  0.10274830007E+03 -0.22418294621E+03 -0.19844163441E+03  0.31653481452E+03  0.00000000000E+00 0. -1.
         -1    1    3    3    0  502 -0.90772718824E+00  0.66121010548E+01 -0.15394572371E+02  0.16779055619E+02  0.00000000000E+00 0.  1.
         11    1    5    5    0    0  0.11001955165E+03  0.20102606637E+03 -0.22804256437E+03  0.32329428122E+03  0.00000000000E+00 0. -1.
        -11    1    5    5    0    0  0.81559029207E+02  0.63059246810E+02 -0.17661397464E+03  0.20450144227E+03  0.00000000000E+00 0.  1.
          4    1    6    6  503    0 -0.28818837911E+03 -0.50175659688E+02  0.23046036801E+03  0.37240048322E+03  0.00000000000E+00 0. -1.
         -4    1    6    6    0  503 -0.52307746322E+01  0.36611916572E+01  0.36702352555E+02  0.37253563731E+02  0.00000000000E+00 0.  1.
<mgrwt>
<rscale>  0 0.12212319E+04</rscale>
<asrwt>0</asrwt>
<pdfrwt beam="1">  1        2 0.12477643E+00 0.12212319E+04</pdfrwt>
<pdfrwt beam="2">  1       -2 0.70725664E-01 0.12212319E+04</pdfrwt>
<totfact> 0.60593257E+01</totfact>
</mgrwt>
</event>
<event>
12    2  0.3561489E-008  0.1700451E+04  0.7818608E-02  0.8761107E-01
          1   -1    0    0  501    0  0.00000000000E+00  0.00000000000E+00  0.17311297971E+04  0.17311297971E+04  0.00000000000E+00 0. -1.
         -1   -1    0    0    0  501 -0.00000000000E+00 -0.00000000000E+00 -0.41757877880E+03  0.41757877880E+03  0.00000000000E+00 0.  1.
         23    2    1    2    0    0  0.37653976899E+03  0.31166281604E+03  0.47894343596E+02  0.50044868493E+03  0.96120286968E+02 0.  0.
        254    2    1    2    0    0 -0.37653976899E+03 -0.31166281604E+03  0.12656566747E+04  0.16482598909E+04  0.93592624783E+03 0.  0.
         23    2    4    4    0    0  0.20202850615E+03 -0.45186430925E+02  0.85552459546E+03  0.88470428288E+03  0.89005639471E+02 0.  0.
         23    2    4    4    0    0 -0.57856827515E+03 -0.26647638511E+03  0.41013207921E+03  0.76355560805E+03  0.95173165153E+02 0.  0.
          4    1    3    3  502    0  0.22772101415E+03  0.20463750911E+03  0.74835431336E+02  0.31517251182E+03  0.00000000000E+00 0. -1.
         -4    1    3    3    0  502  0.14881875485E+03  0.10702530693E+03 -0.26941087740E+02  0.18527617312E+03  0.00000000000E+00 0.  1.
         11    1    5    5    0    0  0.42994657919E+02 -0.20316514140E+02  0.83626591681E+02  0.96201393922E+02  0.00000000000E+00 0.  1.
        -11    1    5    5    0    0  0.15903384823E+03 -0.24869916786E+02  0.77189800378E+03  0.78850288896E+03  0.00000000000E+00 0. -1.
          3    1    6    6  503    0 -0.87310282707E+02 -0.64601781861E+02  0.38104414177E+02  0.11510179002E+03  0.00000000000E+00 0. -1.
         -3    1    6    6    0  503 -0.49125799244E+03 -0.20187460325E+03  0.37202766503E+03  0.64845381803E+03  0.00000000000E+00 0.  1.
<mgrwt>
<rscale>  0 0.17004506E+04</rscale>
<asrwt>0</asrwt>
<pdfrwt beam="1">  1        1 0.26632766E+00 0.17004506E+04</pdfrwt>
<pdfrwt beam="2">  1       -1 0.64242890E-01 0.17004506E+04</pdfrwt>
<totfact> 0.10611380E+01</totfact>
</mgrwt>
</event>
<event>
12    2  0.3561489E-008  0.1741363E+04  0.7818608E-02  0.8738119E-01
          1   -1    0    0  501    0  0.00000000000E+00  0.00000000000E+00  0.36881186872E+03  0.36881186872E+03  0.00000000000E+00 0. -1.
         -1   -1    0    0    0  501 -0.00000000000E+00 -0.00000000000E+00 -0.20554817746E+04  0.20554817746E+04  0.00000000000E+00 0.  1.
         23    2    1    2    0    0  0.10809866846E+03 -0.29925745577E+03  0.13409618818E+03  0.35738133205E+03  0.92191549834E+02 0.  0.
        254    2    1    2    0    0 -0.10809866846E+03  0.29925745577E+03 -0.18207660941E+04  0.20669123113E+04  0.92503891069E+03 0.  0.
         23    2    4    4    0    0 -0.60842616268E+02  0.36916509493E+03 -0.18872420872E+04  0.19264162625E+04  0.97016645950E+02 0.  0.
         23    2    4    4    0    0 -0.47256052188E+02 -0.69907639160E+02  0.66475993080E+02  0.14049604880E+03  0.90553131317E+02 0.  0.
          1    1    3    3  502    0  0.78981888229E+02 -0.13993911966E+03  0.26293015927E+02  0.16282634482E+03  0.00000000000E+00 0. -1.
         -1    1    3    3    0  502  0.29116780226E+02 -0.15931833611E+03  0.10780317225E+03  0.19455498724E+03  0.00000000000E+00 0.  1.
         11    1    5    5    0    0 -0.28299248021E+02  0.25847119937E+03 -0.14993240733E+04  0.15217032842E+04  0.00000000000E+00 0.  1.
        -11    1    5    5    0    0 -0.32543368247E+02  0.11069389556E+03 -0.38791801386E+03  0.40471297830E+03  0.00000000000E+00 0. -1.
          4    1    6    6  503    0 -0.42016828811E+02 -0.42122392241E+02 -0.87465852664E+01  0.60134953108E+02  0.00000000000E+00 0. -1.
         -4    1    6    6    0  503 -0.52392233765E+01 -0.27785246919E+02  0.75222578346E+02  0.80361095693E+02  0.00000000000E+00 0.  1.
<mgrwt>
<rscale>  0 0.17413628E+04</rscale>
<asrwt>0</asrwt>
<pdfrwt beam="1">  1        1 0.56740288E-01 0.17413628E+04</pdfrwt>
<pdfrwt beam="2">  1       -1 0.31622796E+00 0.17413628E+04</pdfrwt>
<totfact> 0.16446542E+00</totfact>
</mgrwt>
</event>
<event>
12    2  0.4118806E-008  0.1552993E+04  0.7818608E-02  0.8849958E-01
          1   -1    0    0  501    0  0.00000000000E+00  0.00000000000E+00  0.22544330582E+04  0.22544330582E+04  0.00000000000E+00 0. -1.
         -1   -1    0    0    0  501 -0.00000000000E+00 -0.00000000000E+00 -0.26744942570E+03  0.26744942570E+03  0.00000000000E+00 0.  1.
         23    2    1    2    0    0  0.24155650092E+03  0.84050293562E+01 -0.61655540383E+02  0.26547145320E+03  0.90848770762E+02 0.  0.
        254    2    1    2    0    0 -0.24155650092E+03 -0.84050293562E+01  0.20486391728E+04  0.22564110307E+04  0.91435665424E+03 0.  0.
         23    2    4    4    0    0  0.23951543166E+02 -0.82306383497E+02 -0.51816141669E+02  0.13588743936E+03  0.91828462108E+02 0.  0.
         23    2    4    4    0    0 -0.26550804409E+03  0.73901354140E+02  0.21004553145E+04  0.21205235913E+04  0.93551276949E+02 0.  0.
          3    1    3    3  502    0  0.31185033732E+02  0.18716000206E+02 -0.39486356872E+02  0.53683958233E+02  0.00000000000E+00 0. -1.
         -3    1    3    3    0  502  0.21037146719E+03 -0.10310970849E+02 -0.22169183511E+02  0.21178749497E+03  0.00000000000E+00 0.  1.
         11    1    5    5    0    0  0.11966541703E+02  0.19532741230E+02 -0.67611622385E+01  0.23883873536E+02  0.00000000000E+00 0. -1.
        -11    1    5    5    0    0  0.11985001463E+02 -0.10183912473E+03 -0.45054979430E+02  0.11200356582E+03  0.00000000000E+00 0.  1.
          1    1    6    6  503    0  0.17170714325E+01 -0.93789565036E+01  0.38791514994E+02  0.39946148687E+02  0.00000000000E+00 0. -1.
         -1    1    6    6    0  503 -0.26722511552E+03  0.83280310644E+02  0.20616637995E+04  0.20805774426E+04  0.00000000000E+00 0.  1.
<mgrwt>
<rscale>  0 0.15529930E+04</rscale>
<asrwt>0</asrwt>
<pdfrwt beam="1">  1        1 0.34683584E+00 0.15529930E+04</pdfrwt>
<pdfrwt beam="2">  1       -1 0.41146067E-01 0.15529930E+04</pdfrwt>
<totfact> 0.11152812E+01</totfact>
</mgrwt>
</event>
<event>
12    2  0.3561489E-008  0.1049721E+04  0.7818608E-02  0.9255632E-01
         -1   -1    0    0    0  501 -0.00000000000E+00  0.00000000000E+00  0.28789472921E+03  0.28789472921E+03  0.00000000000E+00 0.  1.
          1   -1    0    0  501    0  0.00000000000E+00 -0.00000000000E+00 -0.95687250653E+03  0.95687250653E+03  0.00000000000E+00 0. -1.
         23    2    1    2    0    0 -0.56618627299E+02 -0.26353452185E+02 -0.12077553728E+03  0.18352451909E+03  0.12326534510E+03 0.  0.
        254    2    1    2    0    0  0.56618627299E+02  0.26353452185E+02 -0.54820224004E+03  0.10612427166E+04  0.90653749743E+03 0.  0.
         23    2    4    4    0    0 -0.16250835316E+03  0.41058565101E+03 -0.32884317565E+03  0.55916357661E+03  0.97655156421E+02 0.  0.
         23    2    4    4    0    0  0.21912698046E+03 -0.38423219882E+03 -0.21935906439E+03  0.50207914003E+03  0.91181399148E+02 0.  0.
          3    1    3    3  502    0 -0.35873736766E+02 -0.40607527181E+02 -0.14111737892E+03  0.15116220059E+03  0.00000000000E+00 0. -1.
         -3    1    3    3    0  502 -0.20744890533E+02  0.14254074996E+02  0.20341841644E+02  0.32362318499E+02  0.00000000000E+00 0.  1.
         11    1    5    5    0    0 -0.19398109791E+02  0.16537805587E+03 -0.14610465254E+03  0.22152371774E+03  0.00000000000E+00 0. -1.
        -11    1    5    5    0    0 -0.14311024337E+03  0.24520759514E+03 -0.18273852311E+03  0.33763985887E+03  0.00000000000E+00 0.  1.
          1    1    6    6  503    0  0.21775579846E+02 -0.18848375241E+02 -0.41042859043E+02  0.50139339897E+02  0.00000000000E+00 0. -1.
         -1    1    6    6    0  503  0.19735140061E+03 -0.36538382358E+03 -0.17831620534E+03  0.45193980014E+03  0.00000000000E+00 0.  1.
<mgrwt>
<rscale>  0 0.10497210E+04</rscale>
<asrwt>0</asrwt>
<pdfrwt beam="1">  1        1 0.14721116E+00 0.10497210E+04</pdfrwt>
<pdfrwt beam="2">  1       -1 0.44291496E-01 0.10497210E+04</pdfrwt>
<totfact> 0.82481575E+01</totfact>
</mgrwt>
</event>
<event>
12    2  0.3561489E-008  0.1841297E+04  0.7818608E-02  0.8684641E-01
         -2   -1    0    0    0  501 -0.00000000000E+00  0.00000000000E+00  0.55935732158E+03  0.55935732158E+03  0.00000000000E+00 0.  1.
          2   -1    0    0  501    0  0.00000000000E+00 -0.00000000000E+00 -0.15152989259E+04  0.15152989259E+04  0.00000000000E+00 0. -1.
         23    2    1    2    0    0  0.16113698203E+03  0.52673386487E+03 -0.84436498755E+03  0.10127280833E+04  0.96188601664E+02 0.  0.
        254    2    1    2    0    0 -0.16113698203E+03 -0.52673386487E+03 -0.11157661678E+03  0.10619281642E+04  0.90101520140E+03 0.  0.
         23    2    4    4    0    0  0.23741708606E+03 -0.54073202348E+03 -0.22486216255E+03  0.63836960838E+03  0.90524973307E+02 0.  0.
         23    2    4    4    0    0 -0.39855406809E+03  0.13998158613E+02  0.11328554578E+03  0.42355855583E+03  0.86757948899E+02 0.  0.
          3    1    3    3  502    0  0.14106640694E+03  0.46989145968E+03 -0.79769904600E+03  0.93649425146E+03  0.00000000000E+00 0. -1.
         -3    1    3    3    0  502  0.20070575089E+02  0.56842405191E+02 -0.46665941556E+02  0.76233831817E+02  0.00000000000E+00 0.  1.
         11    1    5    5    0    0  0.19172005783E+03 -0.43516498754E+03 -0.21804797509E+03  0.52313484533E+03  0.00000000000E+00 0. -1.
        -11    1    5    5    0    0  0.45697028231E+02 -0.10556703594E+03 -0.68141874629E+01  0.11523476306E+03  0.00000000000E+00 0.  1.
          4    1    6    6  503    0 -0.24494064539E+03  0.20743671234E+02  0.27143656688E+02  0.24731153988E+03  0.00000000000E+00 0.  1.
         -4    1    6    6    0  503 -0.15361342270E+03 -0.67455126207E+01  0.86141889088E+02  0.17624701595E+03  0.00000000000E+00 0. -1.
<mgrwt>
<rscale>  0 0.18412969E+04</rscale>
<asrwt>0</asrwt>
<pdfrwt beam="1">  1        2 0.23312291E+00 0.18412969E+04</pdfrwt>
<pdfrwt beam="2">  1       -2 0.86054974E-01 0.18412969E+04</pdfrwt>
<totfact> 0.13716892E+01</totfact>
</mgrwt>
</event>
<event>
12    2  0.3561489E-008  0.1229192E+04  0.7818608E-02  0.9087681E-01
         -2   -1    0    0    0  501 -0.00000000000E+00  0.00000000000E+00  0.33408752312E+03  0.33408752312E+03  0.00000000000E+00 0.  1.
          2   -1    0    0  501    0  0.00000000000E+00 -0.00000000000E+00 -0.11306274545E+04  0.11306274545E+04  0.00000000000E+00 0. -1.
         23    2    1    2    0    0 -0.68283168401E+02 -0.13579735231E+02  0.11732820012E+03  0.16645302572E+03  0.95360908821E+02 0.  0.
        254    2    1    2    0    0  0.68283168401E+02  0.13579735231E+02 -0.91386813149E+03  0.12982619519E+04  0.91950102429E+03 0.  0.
         23    2    4    4    0    0 -0.15424276662E+03 -0.39075957283E+03 -0.58185275789E+03  0.72333446140E+03  0.90422543522E+02 0.  0.
         23    2    4    4    0    0  0.22252593502E+03  0.40433930806E+03 -0.33201537361E+03  0.57492749050E+03  0.85436193851E+02 0.  0.
          1    1    3    3  502    0  0.17083420476E+02 -0.56142083457E+01  0.61659675342E+02  0.64228328281E+02  0.00000000000E+00 0. -1.
         -1    1    3    3    0  502 -0.85366588877E+02 -0.79655268852E+01  0.55668524783E+02  0.10222469744E+03  0.00000000000E+00 0.  1.
         11    1    5    5    0    0 -0.14847008599E+03 -0.26450185446E+03 -0.41281368732E+03  0.51226920450E+03  0.00000000000E+00 0. -1.
        -11    1    5    5    0    0 -0.57726806269E+01 -0.12625771837E+03 -0.16903907057E+03  0.21106525690E+03  0.00000000000E+00 0.  1.
          3    1    6    6  503    0  0.21388154642E+03  0.35235815350E+03 -0.31742412277E+03  0.52024961120E+03  0.00000000000E+00 0. -1.
         -3    1    6    6    0  503  0.86443885963E+01  0.51981154557E+02 -0.14591250840E+02  0.54677879296E+02  0.00000000000E+00 0.  1.
<mgrwt>
<rscale>  0 0.12291925E+04</rscale>
<asrwt>0</asrwt>
<pdfrwt beam="1">  1        2 0.17394268E+00 0.12291925E+04</pdfrwt>
<pdfrwt beam="2">  1       -2 0.51398082E-01 0.12291925E+04</pdfrwt>
<totfact> 0.73466469E+01</totfact>
</mgrwt>
</event>
<event>
12    2  0.3561489E-008  0.1742091E+04  0.7818608E-02  0.8737716E-01
         -2   -1    0    0    0  501 -0.00000000000E+00  0.00000000000E+00  0.42278313219E+03  0.42278313219E+03  0.00000000000E+00 0.  1.
          2   -1    0    0  501    0  0.00000000000E+00 -0.00000000000E+00 -0.17945850706E+04  0.17945850706E+04  0.00000000000E+00 0. -1.
         23    2    1    2    0    0 -0.16352407803E+03  0.15812018001E+03 -0.13150316064E+04  0.13376350311E+04  0.90648966270E+02 0.  0.
        254    2    1    2    0    0  0.16352407803E+03 -0.15812018001E+03 -0.56770331945E+02  0.87973317166E+03  0.84791831406E+03 0.  0.
         23    2    4    4    0    0  0.27452267900E+03  0.26055343139E+02  0.32192720473E+03  0.43321368834E+03  0.89416958265E+02 0.  0.
         23    2    4    4    0    0 -0.11099860097E+03 -0.18417552315E+03 -0.37869753668E+03  0.44651948332E+03  0.98623080236E+02 0.  0.
          3    1    3    3  502    0 -0.67415848193E+02  0.51143639816E+02 -0.74302510478E+03  0.74782810513E+03  0.00000000000E+00 0. -1.
         -3    1    3    3    0  502 -0.96108229839E+02  0.10697654020E+03 -0.57200650164E+03  0.58980692597E+03  0.00000000000E+00 0.  1.
         11    1    5    5    0    0  0.19888756117E+02  0.22457409751E+02  0.12577022336E+02  0.32528131878E+02  0.00000000000E+00 0.  1.
        -11    1    5    5    0    0  0.25463392288E+03  0.35979333881E+01  0.30935018240E+03  0.40068555646E+03  0.00000000000E+00 0. -1.
          1    1    6    6  503    0 -0.10456340052E+03 -0.19475872855E+03 -0.37121841967E+03  0.43205043939E+03  0.00000000000E+00 0. -1.
         -1    1    6    6    0  503 -0.64352004505E+01  0.10583205392E+02 -0.74791170107E+01  0.14469043938E+02  0.00000000000E+00 0.  1.
<mgrwt>
<rscale>  0 0.17420910E+04</rscale>
<asrwt>0</asrwt>
<pdfrwt beam="1">  1        2 0.27609001E+00 0.17420910E+04</pdfrwt>
<pdfrwt beam="2">  1       -2 0.65043559E-01 0.17420910E+04</pdfrwt>
<totfact> 0.17962552E+01</totfact>
</mgrwt>
</event>
<event>
12    2  0.3561489E-008  0.1558439E+04  0.7818608E-02  0.8846495E-01
          2   -1    0    0  501    0  0.00000000000E+00  0.00000000000E+00  0.16452699867E+04  0.16452699867E+04  0.00000000000E+00 0. -1.
         -2   -1    0    0    0  501 -0.00000000000E+00 -0.00000000000E+00 -0.36904782295E+03  0.36904782295E+03  0.00000000000E+00 0.  1.
         23    2    1    2    0    0 -0.22120092548E+03 -0.11713517062E+03 -0.15321839423E+03  0.30814948154E+03  0.93966637765E+02 0.  0.
        254    2    1    2    0    0  0.22120092548E+03  0.11713517062E+03  0.14294405580E+04  0.17061683281E+04  0.89725111169E+03 0.  0.
         23    2    4    4    0    0  0.34575846796E+03  0.13845202072E+03  0.14907169236E+04  0.15392125244E+04  0.90666248962E+02 0.  0.
         23    2    4    4    0    0 -0.12455754248E+03 -0.21316850102E+02 -0.61276365612E+02  0.16695580374E+03  0.90279886655E+02 0.  0.
          4    1    3    3  502    0 -0.17610513526E+03 -0.45893471692E+02 -0.91750666123E+02  0.20380729659E+03  0.00000000000E+00 0. -1.
         -4    1    3    3    0  502 -0.45095790222E+02 -0.71241698926E+02 -0.61467728102E+02  0.10434218495E+03  0.00000000000E+00 0.  1.
         11    1    5    5    0    0  0.23553760765E+03  0.63602065600E+02  0.82613913508E+03  0.86141108530E+03  0.00000000000E+00 0.  1.
        -11    1    5    5    0    0  0.11022086031E+03  0.74849955121E+02  0.66457778850E+03  0.67780143906E+03  0.00000000000E+00 0. -1.
          3    1    6    6  503    0 -0.39453893631E+02  0.17443688123E+02  0.15626550126E+02  0.45881162222E+02  0.00000000000E+00 0. -1.
         -3    1    6    6    0  503 -0.85103648844E+02 -0.38760538225E+02 -0.76902915737E+02  0.12107464152E+03  0.00000000000E+00 0.  1.
<mgrwt>
<rscale>  0 0.15584394E+04</rscale>
<asrwt>0</asrwt>
<pdfrwt beam="1">  1        2 0.25311845E+00 0.15584394E+04</pdfrwt>
<pdfrwt beam="2">  1       -2 0.56776589E-01 0.15584394E+04</pdfrwt>
<totfact> 0.29439045E+01</totfact>
</mgrwt>
</event>
<event>
12    2  0.3561489E-008  0.3207569E+04  0.7818608E-02  0.8186821E-01
         -3   -1    0    0    0  501 -0.00000000000E+00  0.00000000000E+00  0.19685069863E+04  0.19685069863E+04  0.00000000000E+00 0.  1.
          3   -1    0    0  501    0  0.00000000000E+00 -0.00000000000E+00 -0.13066373063E+04  0.13066373063E+04  0.00000000000E+00 0. -1.
         23    2    1    2    0    0  0.11742670838E+04  0.80770093208E+03 -0.78124141929E+02  0.14323311306E+04  0.11910124404E+03 0.  0.
        254    2    1    2    0    0 -0.11742670838E+04 -0.80770093208E+03  0.73999382198E+03  0.18428131619E+04  0.90392782534E+03 0.  0.
         23    2    4    4    0    0 -0.92459386356E+03 -0.10853277816E+03  0.34410897026E+03  0.99643938289E+03  0.88471938398E+02 0.  0.
         23    2    4    4    0    0 -0.24967322027E+03 -0.69916815392E+03  0.39588485172E+03  0.84637377906E+03  0.91928959959E+02 0.  0.
          4    1    3    3  502    0  0.11008558090E+04  0.71863448882E+03 -0.66709693645E+02  0.13163469239E+04  0.00000000000E+00 0. -1.
         -4    1    3    3    0  502  0.73411274826E+02  0.89066443260E+02 -0.11414448284E+02  0.11598420675E+03  0.00000000000E+00 0.  1.
         11    1    5    5    0    0 -0.28118549752E+02 -0.57437242452E+01 -0.45807654147E+01  0.29062460669E+02  0.00000000000E+00 0.  1.
        -11    1    5    5    0    0 -0.89647531381E+03 -0.10278905392E+03  0.34868973567E+03  0.96737692222E+03  0.00000000000E+00 0. -1.
          2    1    6    6  503    0 -0.14671835521E+03 -0.53098497523E+03  0.29027653403E+03  0.62268112697E+03  0.00000000000E+00 0. -1.
         -2    1    6    6    0  503 -0.10295486505E+03 -0.16818317869E+03  0.10560831769E+03  0.22369265209E+03  0.00000000000E+00 0.  1.
<mgrwt>
<rscale>  0 0.32075690E+04</rscale>
<asrwt>0</asrwt>
<pdfrwt beam="1">  1        3 0.20102113E+00 0.32075690E+04</pdfrwt>
<pdfrwt beam="2">  1       -3 0.30284723E+00 0.32075690E+04</pdfrwt>
<totfact> 0.11582727E-02</totfact>
</mgrwt>
</event>
<event>
12    2  0.3561489E-008  0.3382861E+04  0.7818608E-02  0.8142126E-01
          1   -1    0    0  501    0  0.00000000000E+00  0.00000000000E+00  0.16234437407E+04  0.16234437407E+04  0.00000000000E+00 0. -1.
         -1   -1    0    0    0  501 -0.00000000000E+00 -0.00000000000E+00 -0.17622648331E+04  0.17622648331E+04  0.00000000000E+00 0.  1.
         23    2    1    2    0    0 -0.95584103562E+03 -0.65994214858E+03  0.98908300426E+03  0.15283776516E+04  0.92180972610E+02 0.  0.
        254    2    1    2    0    0  0.95584103562E+03  0.65994214858E+03 -0.11279040966E+04  0.18573309222E+04  0.91013997744E+03 0.  0.
         23    2    4    4    0    0  0.20333610684E+03  0.55963431523E+03 -0.85523631533E+03  0.10459420927E+04  0.89607851322E+02 0.  0.
         23    2    4    4    0    0  0.75250492878E+03  0.10030783335E+03 -0.27266778131E+03  0.81138882954E+03  0.87628673840E+02 0.  0.
          1    1    3    3  502    0 -0.80586856632E+03 -0.55897719991E+03  0.78914343883E+03  0.12588196945E+04  0.00000000000E+00 0. -1.
         -1    1    3    3    0  502 -0.14997246930E+03 -0.10096494867E+03  0.19993956542E+03  0.26955795709E+03  0.00000000000E+00 0.  1.
         11    1    5    5    0    0  0.12250009891E+03  0.43908436772E+03 -0.67538622363E+03  0.81482998674E+03  0.00000000000E+00 0. -1.
        -11    1    5    5    0    0  0.80836007939E+02  0.12054994751E+03 -0.17985009170E+03  0.23111210593E+03  0.00000000000E+00 0.  1.
          4    1    6    6  503    0  0.46958938040E+03  0.90501613641E+02 -0.20506950088E+03  0.52034433642E+03  0.00000000000E+00 0. -1.
         -4    1    6    6    0  503  0.28291554838E+03  0.98062197047E+01 -0.67598280428E+02  0.29104449312E+03  0.00000000000E+00 0.  1.
<mgrwt>
<rscale>  0 0.33828614E+04</rscale>
<asrwt>0</asrwt>
<pdfrwt beam="1">  1        1 0.24976058E+00 0.33828614E+04</pdfrwt>
<pdfrwt beam="2">  1       -1 0.27111767E+00 0.33828614E+04</pdfrwt>
<totfact> 0.22510020E-01</totfact>
</mgrwt>
</event>
<event>
12    2  0.3561489E-008  0.4005718E+04  0.7818608E-02  0.8003394E-01
          1   -1    0    0  501    0  0.00000000000E+00  0.00000000000E+00  0.20489139281E+04  0.20489139281E+04  0.00000000000E+00 0. -1.
         -1   -1    0    0    0  501 -0.00000000000E+00 -0.00000000000E+00 -0.19578388256E+04  0.19578388256E+04  0.00000000000E+00 0.  1.
         23    2    1    2    0    0 -0.15874533124E+04  0.78338507751E+03  0.76513445940E+03  0.19303847894E+04  0.85173326669E+02 0.  0.
        254    2    1    2    0    0  0.15874533124E+04 -0.78338507751E+03 -0.67405935695E+03  0.20763679643E+04  0.85043971444E+03 0.  0.
         23    2    4    4    0    0  0.11294704056E+04 -0.10850699705E+03 -0.32985026395E+03  0.11855399150E+04  0.96054816664E+02 0.  0.
         23    2    4    4    0    0  0.45798290675E+03 -0.67487808046E+03 -0.34420909300E+03  0.89082804933E+03  0.99428101672E+02 0.  0.
          2    1    3    3  502    0 -0.96738130263E+03  0.50556296416E+03  0.43570196300E+03  0.11752687761E+04  0.00000000000E+00 0. -1.
         -2    1    3    3    0  502 -0.62007200973E+03  0.27782211335E+03  0.32943249640E+03  0.75511601334E+03  0.00000000000E+00 0.  1.
         11    1    5    5    0    0  0.12857263355E+03 -0.20933175996E+02 -0.79361006043E+01  0.13050709425E+03  0.00000000000E+00 0. -1.
        -11    1    5    5    0    0  0.10008977721E+04 -0.87573821054E+02 -0.32191416334E+03  0.10550328207E+04  0.00000000000E+00 0.  1.
          2    1    6    6  503    0  0.15805446064E+03 -0.20863464939E+03 -0.15936269825E+03  0.30644102050E+03  0.00000000000E+00 0. -1.
         -2    1    6    6    0  503  0.29992844611E+03 -0.46624343108E+03 -0.18484639475E+03  0.58438702883E+03  0.00000000000E+00 0.  1.
<mgrwt>
<rscale>  0 0.40057175E+04</rscale>
<asrwt>0</asrwt>
<pdfrwt beam="1">  1        1 0.31521753E+00 0.40057175E+04</pdfrwt>
<pdfrwt beam="2">  1       -1 0.30120597E+00 0.40057175E+04</pdfrwt>
<totfact> 0.70045049E-02</totfact>
</mgrwt>
</event>
<event>
12    2  0.3561489E-008  0.1085599E+04  0.7818608E-02  0.9219342E-01
          2   -1    0    0  501    0  0.00000000000E+00  0.00000000000E+00  0.85416653155E+03  0.85416653155E+03  0.00000000000E+00 0. -1.
         -2   -1    0    0    0  501 -0.00000000000E+00 -0.00000000000E+00 -0.34493453219E+03  0.34493453219E+03  0.00000000000E+00 0.  1.
         23    2    1    2    0    0  0.96074613531E+02  0.11177378277E+03  0.47101040581E+02  0.17807240424E+03  0.88133780398E+02 0.  0.
        254    2    1    2    0    0 -0.96074613531E+02 -0.11177378277E+03  0.46213095878E+03  0.10210286595E+04  0.89844910295E+03 0.  0.
         23    2    4    4    0    0 -0.31312224166E+03 -0.15106495591E+03  0.63274751508E+03  0.72775966278E+03  0.91643602029E+02 0.  0.
         23    2    4    4    0    0  0.21704762813E+03  0.39291173145E+02 -0.17061655630E+03  0.29326899673E+03  0.90792213280E+02 0.  0.
          4    1    3    3  502    0 -0.10729545938E+02 -0.18125362050E+01  0.15581319255E+02  0.19004892877E+02  0.00000000000E+00 0. -1.
         -4    1    3    3    0  502  0.10680415947E+03  0.11358631897E+03  0.31519721326E+02  0.15906751136E+03  0.00000000000E+00 0.  1.
         11    1    5    5    0    0 -0.31452019935E+03 -0.13949610892E+03  0.62592107550E+03  0.71425437552E+03  0.00000000000E+00 0.  1.
        -11    1    5    5    0    0  0.13979576875E+01 -0.11568846990E+02  0.68264395872E+01  0.13505287254E+02  0.00000000000E+00 0. -1.
          2    1    6    6  503    0  0.33156081213E+02 -0.25337272122E+02 -0.16856913685E+02  0.45005095478E+02  0.00000000000E+00 0. -1.
         -2    1    6    6    0  503  0.18389154692E+03  0.64628445267E+02 -0.15375964262E+03  0.24826390125E+03  0.00000000000E+00 0.  1.
<mgrwt>
<rscale>  0 0.10855994E+04</rscale>
<asrwt>0</asrwt>
<pdfrwt beam="1">  1        2 0.13141024E+00 0.10855994E+04</pdfrwt>
<pdfrwt beam="2">  1       -2 0.53066851E-01 0.10855994E+04</pdfrwt>
<totfact> 0.10491016E+02</totfact>
</mgrwt>
</event>
<event>
12    2  0.3561489E-008  0.1640091E+04  0.7818608E-02  0.8796290E-01
          2   -1    0    0  501    0  0.00000000000E+00  0.00000000000E+00  0.19971087468E+04  0.19971087468E+04  0.00000000000E+00 0.  1.
         -2   -1    0    0    0  501 -0.00000000000E+00 -0.00000000000E+00 -0.33672429231E+03  0.33672429231E+03  0.00000000000E+00 0. -1.
         23    2    1    2    0    0 -0.49855511038E+03 -0.24382675179E+03  0.77343891390E+03  0.95581724527E+03  0.85849693287E+02 0.  0.
        254    2    1    2    0    0  0.49855511038E+03  0.24382675179E+03  0.88694554059E+03  0.13780157939E+04  0.89679788870E+03 0.  0.
         23    2    4    4    0    0  0.35814588558E+03  0.45706158952E+03  0.93388874029E+03  0.11033310373E+04  0.89540084367E+02 0.  0.
         23    2    4    4    0    0  0.14040922480E+03 -0.21323483774E+03 -0.46943199698E+02  0.27468475653E+03  0.89800918927E+02 0.  0.
          1    1    3    3  502    0 -0.46716294376E+03 -0.21106928184E+03  0.73633143404E+03  0.89720423456E+03  0.00000000000E+00 0. -1.
         -1    1    3    3    0  502 -0.31392166620E+02 -0.32757469943E+02  0.37107479864E+02  0.58613010706E+02  0.00000000000E+00 0.  1.
         11    1    5    5    0    0  0.20215525069E+03  0.32691590486E+03  0.61344555269E+03  0.72391726070E+03  0.00000000000E+00 0.  1.
        -11    1    5    5    0    0  0.15599063488E+03  0.13014568466E+03  0.32044318760E+03  0.37941377662E+03  0.00000000000E+00 0. -1.
          1    1    6    6  503    0  0.11732182367E+03 -0.20272562763E+03 -0.65549409314E+02  0.24322585280E+03  0.00000000000E+00 0.  1.
         -1    1    6    6    0  503  0.23087401130E+02 -0.10509210106E+02  0.18606209615E+02  0.31458903736E+02  0.00000000000E+00 0. -1.
<mgrwt>
<rscale>  0 0.16400915E+04</rscale>
<asrwt>0</asrwt>
<pdfrwt beam="1">  1        2 0.30724749E+00 0.16400915E+04</pdfrwt>
<pdfrwt beam="2">  1       -2 0.51803738E-01 0.16400915E+04</pdfrwt>
<totfact> 0.22563986E+01</totfact>
</mgrwt>
</event>
<event>
12    2  0.3561489E-008  0.1797899E+04  0.7818608E-02  0.8707418E-01
          2   -1    0    0  501    0  0.00000000000E+00  0.00000000000E+00  0.10434759568E+04  0.10434759568E+04  0.00000000000E+00 0. -1.
         -2   -1    0    0    0  501 -0.00000000000E+00 -0.00000000000E+00 -0.77444056880E+03  0.77444056880E+03  0.00000000000E+00 0.  1.
         23    2    1    2    0    0  0.43689844071E+03  0.32188220744E+03  0.53357201108E+03  0.76858384574E+03  0.10739475760E+03 0.  0.
        254    2    1    2    0    0 -0.43689844071E+03 -0.32188220744E+03 -0.26453662312E+03  0.10493326798E+04  0.85827212760E+03 0.  0.
         23    2    4    4    0    0 -0.66941858425E+03 -0.19990720139E+03 -0.65256349029E+02  0.70749076791E+03  0.90557525822E+02 0.  0.
         23    2    4    4    0    0  0.23252014354E+03 -0.12197500605E+03 -0.19928027409E+03  0.34184191191E+03  0.90552448029E+02 0.  0.
          1    1    3    3  502    0  0.61292988335E+02  0.84544038595E+01  0.82832835230E+02  0.10339045389E+03  0.00000000000E+00 0. -1.
         -1    1    3    3    0  502  0.37560545238E+03  0.31342780358E+03  0.45073917585E+03  0.66519339185E+03  0.00000000000E+00 0.  1.
         11    1    5    5    0    0 -0.35118150290E+03 -0.14976082239E+03 -0.21716872566E+02  0.38239818835E+03  0.00000000000E+00 0.  1.
        -11    1    5    5    0    0 -0.31823708135E+03 -0.50146379005E+02 -0.43539476463E+02  0.32509257956E+03  0.00000000000E+00 0. -1.
          3    1    6    6  503    0  0.23087133846E+03 -0.12458700643E+03 -0.20658078360E+03  0.33391483532E+03  0.00000000000E+00 0. -1.
         -3    1    6    6    0  503  0.16488050824E+01  0.26120003842E+01  0.73005095085E+01  0.79270765917E+01  0.00000000000E+00 0.  1.
<mgrwt>
<rscale>  0 0.17978989E+04</rscale>
<asrwt>0</asrwt>
<pdfrwt beam="1">  1        2 0.16053476E+00 0.17978989E+04</pdfrwt>
<pdfrwt beam="2">  1       -2 0.11914470E+00 0.17978989E+04</pdfrwt>
<totfact> 0.12062072E+01</totfact>
</mgrwt>
</event>
<event>
12    2  0.3561489E-008  0.2466614E+04  0.7818608E-02  0.8414977E-01
         -2   -1    0    0    0  501 -0.00000000000E+00  0.00000000000E+00  0.60155294047E+03  0.60155294047E+03  0.00000000000E+00 0.  1.
          2   -1    0    0  501    0  0.00000000000E+00 -0.00000000000E+00 -0.25285334284E+04  0.25285334284E+04  0.00000000000E+00 0. -1.
         23    2    1    2    0    0  0.13526919490E+03  0.92604750682E+03 -0.18483506573E+03  0.95797728310E+03  0.87719629685E+02 0.  0.
        254    2    1    2    0    0 -0.13526919490E+03 -0.92604750682E+03 -0.17421454222E+04  0.21721090858E+04  0.89840161865E+03 0.  0.
         23    2    4    4    0    0 -0.69934378887E+02 -0.16434019533E+03 -0.12335840283E+04  0.12497275763E+04  0.90503828678E+02 0.  0.
         23    2    4    4    0    0 -0.65334816015E+02 -0.76170731149E+03 -0.50856139392E+03  0.92238150946E+03  0.87671495091E+02 0.  0.
          1    1    3    3  502    0  0.55393401783E+02  0.29791202815E+03 -0.10018373659E+03  0.31915010036E+03  0.00000000000E+00 0. -1.
         -1    1    3    3    0  502  0.79875793119E+02  0.62813547866E+03 -0.84651329140E+02  0.63882718274E+03  0.00000000000E+00 0.  1.
         11    1    5    5    0    0  0.45887551361E+01 -0.72393407987E+01 -0.29796697017E+03  0.29809022131E+03  0.00000000000E+00 0. -1.
        -11    1    5    5    0    0 -0.74523134023E+02 -0.15710085453E+03 -0.93561705810E+03  0.95163735499E+03  0.00000000000E+00 0.  1.
          1    1    6    6  503    0  0.21843375118E+02 -0.16163929441E+03 -0.11159327111E+03  0.19762958456E+03  0.00000000000E+00 0. -1.
         -1    1    6    6    0  503 -0.87178191133E+02 -0.60006801707E+03 -0.39696812281E+03  0.72475192490E+03  0.00000000000E+00 0.  1.
<mgrwt>
<rscale>  0 0.24666145E+04</rscale>
<asrwt>0</asrwt>
<pdfrwt beam="1">  1        2 0.38900514E+00 0.24666145E+04</pdfrwt>
<pdfrwt beam="2">  1       -2 0.92546607E-01 0.24666145E+04</pdfrwt>
<totfact> 0.29681602E+00</totfact>
</mgrwt>
</event>
<event>
12    2  0.3561489E-008  0.1939014E+04  0.7818608E-02  0.8635677E-01
          1   -1    0    0  501    0  0.00000000000E+00  0.00000000000E+00  0.31303575220E+04  0.31303575220E+04  0.00000000000E+00 0. -1.
         -1   -1    0    0    0  501 -0.00000000000E+00 -0.00000000000E+00 -0.30026732886E+03  0.30026732886E+03  0.00000000000E+00 0.  1.
         23    2    1    2    0    0 -0.23297184923E+03 -0.34864846418E+03  0.22549860489E+04  0.22954209882E+04  0.90353739021E+02 0.  0.
        254    2    1    2    0    0  0.23297184923E+03  0.34864846418E+03  0.57510414423E+03  0.11352038627E+04  0.88437062309E+03 0.  0.
         23    2    4    4    0    0  0.49913083962E+03  0.44694684337E+03  0.34443974767E+03  0.75857230188E+03  0.88882627915E+02 0.  0.
         23    2    4    4    0    0 -0.26615899039E+03 -0.98298379187E+02  0.23066439657E+03  0.37663156079E+03  0.90233526028E+02 0.  0.
          1    1    3    3  502    0 -0.19033749603E+03 -0.21976900833E+03  0.14180032702E+04  0.14475013138E+04  0.00000000000E+00 0. -1.
         -1    1    3    3    0  502 -0.42634353196E+02 -0.12887945585E+03  0.83698277875E+03  0.84791967435E+03  0.00000000000E+00 0.  1.
         11    1    5    5    0    0  0.33667808735E+03  0.25358515343E+03  0.24211671765E+03  0.48608442632E+03  0.00000000000E+00 0. -1.
        -11    1    5    5    0    0  0.16245275227E+03  0.19336168993E+03  0.10232303002E+03  0.27248787556E+03  0.00000000000E+00 0.  1.
          3    1    6    6  503    0 -0.73902361114E+02  0.94113842494E+01  0.82076065505E+02  0.11084499836E+03  0.00000000000E+00 0. -1.
         -3    1    6    6    0  503 -0.19225662928E+03 -0.10770976344E+03  0.14858833106E+03  0.26578656243E+03  0.00000000000E+00 0.  1.
<mgrwt>
<rscale>  0 0.19390143E+04</rscale>
<asrwt>0</asrwt>
<pdfrwt beam="1">  1        1 0.48159344E+00 0.19390143E+04</pdfrwt>
<pdfrwt beam="2">  1       -1 0.46194976E-01 0.19390143E+04</pdfrwt>
<totfact> 0.20892987E+00</totfact>
</mgrwt>
</event>
<event>
12    2  0.3561489E-008  0.2483494E+04  0.7818608E-02  0.8408889E-01
         -2   -1    0    0    0  501 -0.00000000000E+00  0.00000000000E+00  0.85413103581E+03  0.85413103581E+03  0.00000000000E+00 0.  1.
          2   -1    0    0  501    0  0.00000000000E+00 -0.00000000000E+00 -0.18052684949E+04  0.18052684949E+04  0.00000000000E+00 0. -1.
         23    2    1    2    0    0  0.58798255062E+03  0.54595414355E+03 -0.11741946710E+04  0.14249713346E+04  0.89558765264E+02 0.  0.
        254    2    1    2    0    0 -0.58798255062E+03 -0.54595414355E+03  0.22305721190E+03  0.12344281961E+04  0.91119100346E+03 0.  0.
         23    2    4    4    0    0  0.10469086205E+02 -0.55615400724E+03 -0.59484413042E+02  0.56634881013E+03  0.88293248907E+02 0.  0.
         23    2    4    4    0    0 -0.59845163682E+03  0.10199863693E+02  0.28254162494E+03  0.66807938595E+03  0.90839954121E+02 0.  0.
          2    1    3    3  502    0  0.88144948134E+02  0.63107826179E+02 -0.21117165139E+03  0.23737227293E+03  0.00000000000E+00 0. -1.
         -2    1    3    3    0  502  0.49983760249E+03  0.48284631737E+03 -0.96302301958E+03  0.11875990617E+04  0.00000000000E+00 0.  1.
         11    1    5    5    0    0  0.26572828805E+02 -0.43721453711E+03 -0.14784749945E+02  0.43827075596E+03  0.00000000000E+00 0. -1.
        -11    1    5    5    0    0 -0.16103742600E+02 -0.11893947013E+03 -0.44699663097E+02  0.12807805417E+03  0.00000000000E+00 0.  1.
          4    1    6    6  503    0 -0.46231174358E+03  0.26138670569E+02  0.17960757603E+03  0.49666312498E+03  0.00000000000E+00 0. -1.
         -4    1    6    6    0  503 -0.13613989325E+03 -0.15938806876E+02  0.10293404891E+03  0.17141626096E+03  0.00000000000E+00 0.  1.
<mgrwt>
<rscale>  0 0.24834942E+04</rscale>
<asrwt>0</asrwt>
<pdfrwt beam="1">  1        2 0.27773361E+00 0.24834942E+04</pdfrwt>
<pdfrwt beam="2">  1       -2 0.13140478E+00 0.24834942E+04</pdfrwt>
<totfact> 0.32352877E+00</totfact>
</mgrwt>
</event>
<event>
12    2  0.3561489E-008  0.3352368E+04  0.7818608E-02  0.8149697E-01
         -1   -1    0    0    0  501 -0.00000000000E+00  0.00000000000E+00  0.15616120715E+04  0.15616120715E+04  0.00000000000E+00 0.  1.
          1   -1    0    0  501    0  0.00000000000E+00 -0.00000000000E+00 -0.17991620043E+04  0.17991620043E+04  0.00000000000E+00 0. -1.
         23    2    1    2    0    0 -0.14037170180E+04  0.16319719532E+03 -0.76068299948E+03  0.16075018771E+04  0.91481516855E+02 0.  0.
        254    2    1    2    0    0  0.14037170180E+04 -0.16319719532E+03  0.52313306664E+03  0.17532721987E+04  0.89623680251E+03 0.  0.
         23    2    4    4    0    0 -0.56928525771E+02 -0.76761441413E+02 -0.94528063804E+02  0.16265223718E+03  0.91580671974E+02 0.  0.
         23    2    4    4    0    0  0.14606455438E+04 -0.86435753904E+02  0.61766113044E+03  0.15906199616E+04  0.87235576733E+02 0.  0.
          3    1    3    3  502    0 -0.10649922372E+04  0.15114802406E+03 -0.54613622159E+03  0.12063660154E+04  0.00000000000E+00 0. -1.
         -3    1    3    3    0  502 -0.33872478082E+03  0.12049171255E+02 -0.21454677789E+03  0.40113586174E+03  0.00000000000E+00 0.  1.
         11    1    5    5    0    0 -0.89371222033E+01 -0.68918420647E+02 -0.90150348758E+02  0.11382752848E+03  0.00000000000E+00 0.  1.
        -11    1    5    5    0    0 -0.47991403568E+02 -0.78430207659E+01 -0.43777150468E+01  0.48824708706E+02  0.00000000000E+00 0. -1.
          3    1    6    6  503    0  0.68292510607E+03 -0.64016228856E+02  0.24972447619E+03  0.72996376079E+03  0.00000000000E+00 0. -1.
         -3    1    6    6    0  503  0.77772043773E+03 -0.22419525048E+02  0.36793665425E+03  0.86065620076E+03  0.00000000000E+00 0.  1.
<mgrwt>
<rscale>  0 0.33523682E+04</rscale>
<asrwt>0</asrwt>
<pdfrwt beam="1">  1        1 0.27679415E+00 0.33523682E+04</pdfrwt>
<pdfrwt beam="2">  1       -1 0.24024801E+00 0.33523682E+04</pdfrwt>
<totfact> 0.27217069E-01</totfact>
</mgrwt>
</event>
<event>
12    2  0.3561489E-008  0.1447706E+04  0.7818608E-02  0.8919993E-01
          2   -1    0    0  501    0  0.00000000000E+00  0.00000000000E+00  0.99037262141E+03  0.99037262141E+03  0.00000000000E+00 0. -1.
         -2   -1    0    0    0  501 -0.00000000000E+00 -0.00000000000E+00 -0.52905639387E+03  0.52905639387E+03  0.00000000000E+00 0.  1.
         23    2    1    2    0    0  0.28700450833E+03  0.76566079968E+02 -0.18010258011E+03  0.35926172082E+03  0.91641105845E+02 0.  0.
        254    2    1    2    0    0 -0.28700450833E+03 -0.76566079968E+02  0.64141880766E+03  0.11601672944E+04  0.91996527754E+03 0.  0.
         23    2    4    4    0    0 -0.32706465186E+03 -0.98144575337E+01  0.85144043930E+03  0.91647241621E+03  0.88900269569E+02 0.  0.
         23    2    4    4    0    0  0.40060143529E+02 -0.66751622434E+02 -0.21002163164E+03  0.24369487824E+03  0.96007883652E+02 0.  0.
          4    1    3    3  502    0  0.75942471278E+02  0.63953128554E+02 -0.62505767936E+02  0.11732106640E+03  0.00000000000E+00 0. -1.
         -4    1    3    3    0  502  0.21106203706E+03  0.12612951414E+02 -0.11759681218E+03  0.24194065443E+03  0.00000000000E+00 0.  1.
         11    1    5    5    0    0 -0.31531061345E+03  0.10073793013E+02  0.80486049998E+03  0.86447827543E+03  0.00000000000E+00 0.  1.
        -11    1    5    5    0    0 -0.11754038410E+02 -0.19888250547E+02  0.46579939321E+02  0.51994140784E+02  0.00000000000E+00 0. -1.
          1    1    6    6  503    0  0.18421024675E+02 -0.80344077372E+02 -0.94579599282E+02  0.12545838162E+03  0.00000000000E+00 0.  1.
         -1    1    6    6    0  503  0.21639118854E+02  0.13592454938E+02 -0.11544203236E+03  0.11823649661E+03  0.00000000000E+00 0. -1.
<mgrwt>
<rscale>  0 0.14477057E+04</rscale>
<asrwt>0</asrwt>
<pdfrwt beam="1">  1        2 0.15236502E+00 0.14477057E+04</pdfrwt>
<pdfrwt beam="2">  1       -2 0.81393292E-01 0.14477057E+04</pdfrwt>
<totfact> 0.32957866E+01</totfact>
</mgrwt>
</event>
<event>
12    2  0.3561489E-008  0.1731804E+04  0.7818608E-02  0.8743430E-01
          2   -1    0    0  501    0  0.00000000000E+00  0.00000000000E+00  0.84049135532E+03  0.84049135532E+03  0.00000000000E+00 0. -1.
         -2   -1    0    0    0  501 -0.00000000000E+00 -0.00000000000E+00 -0.89208108554E+03  0.89208108554E+03  0.00000000000E+00 0.  1.
         23    2    1    2    0    0 -0.50124816281E+02  0.34573714399E+03 -0.53809031872E+03  0.64763267579E+03  0.88545026438E+02 0.  0.
        254    2    1    2    0    0  0.50124816281E+02 -0.34573714399E+03  0.48650058849E+03  0.10849397651E+04  0.90463517580E+03 0.  0.
         23    2    4    4    0    0 -0.28658649095E+03 -0.48192463805E+03  0.16995655424E+03  0.59308037630E+03  0.92064807974E+02 0.  0.
         23    2    4    4    0    0  0.33671130724E+03  0.13618749406E+03  0.31654403425E+03  0.49185938877E+03  0.99015123833E+02 0.  0.
          3    1    3    3  502    0 -0.17402246905E+02  0.88714992784E+02 -0.77090394712E+02  0.11881126672E+03  0.00000000000E+00 0. -1.
         -3    1    3    3    0  502 -0.32722569376E+02  0.25702215121E+03 -0.46099992400E+03  0.52882140907E+03  0.00000000000E+00 0.  1.
         11    1    5    5    0    0 -0.56547366308E+02 -0.14456904370E+03  0.13539441520E+02  0.15582403380E+03  0.00000000000E+00 0. -1.
        -11    1    5    5    0    0 -0.23003912465E+03 -0.33735559436E+03  0.15641711272E+03  0.43725634251E+03  0.00000000000E+00 0.  1.
          3    1    6    6  503    0  0.96745035807E+02  0.80646263366E+02  0.14296425638E+03  0.19053136317E+03  0.00000000000E+00 0. -1.
         -3    1    6    6    0  503  0.23996627143E+03  0.55541230696E+02  0.17357977786E+03  0.30132802560E+03  0.00000000000E+00 0.  1.
<mgrwt>
<rscale>  0 0.17318042E+04</rscale>
<asrwt>0</asrwt>
<pdfrwt beam="1">  1        2 0.12930636E+00 0.17318042E+04</pdfrwt>
<pdfrwt beam="2">  1       -2 0.13724324E+00 0.17318042E+04</pdfrwt>
<totfact> 0.11566371E+01</totfact>
</mgrwt>
</event>
<event>
12    2  0.3561489E-008  0.1247262E+04  0.7818608E-02  0.9072465E-01
          1   -1    0    0  501    0  0.00000000000E+00  0.00000000000E+00  0.22803386626E+04  0.22803386626E+04  0.00000000000E+00 0. -1.
         -1   -1    0    0    0  501 -0.00000000000E+00 -0.00000000000E+00 -0.17055169585E+03  0.17055169585E+03  0.00000000000E+00 0.  1.
         23    2    1    2    0    0  0.24606950054E+03  0.24008103308E+01  0.82252713761E+03  0.86361488109E+03  0.93401326251E+02 0.  0.
        254    2    1    2    0    0 -0.24606950054E+03 -0.24008103308E+01  0.12872598291E+04  0.15872754773E+04  0.89546055764E+03 0.  0.
         23    2    4    4    0    0  0.21144714555E+03 -0.34824347655E+02  0.10279132639E+04  0.10538555820E+04  0.89907056947E+02 0.  0.
         23    2    4    4    0    0 -0.45751664609E+03  0.32423537324E+02  0.25934656515E+03  0.53341989535E+03  0.83086561315E+02 0.  0.
          1    1    3    3  502    0  0.19650638366E+03  0.38130358256E+02  0.67138768355E+03  0.70059268100E+03  0.00000000000E+00 0. -1.
         -1    1    3    3    0  502  0.49563116885E+02 -0.35729547925E+02  0.15113945406E+03  0.16302220009E+03  0.00000000000E+00 0.  1.
         11    1    5    5    0    0  0.43395629654E+02 -0.22802494915E+02  0.10750851562E+03  0.11815758705E+03  0.00000000000E+00 0. -1.
        -11    1    5    5    0    0  0.16805151590E+03 -0.12021852740E+02  0.92040474833E+03  0.93569799491E+03  0.00000000000E+00 0.  1.
          1    1    6    6  503    0 -0.19413081034E+03  0.35930690161E+02  0.71855418068E+02  0.21009756573E+03  0.00000000000E+00 0. -1.
         -1    1    6    6    0  503 -0.26338583575E+03 -0.35071528364E+01  0.18749114708E+03  0.32332232962E+03  0.00000000000E+00 0.  1.
<mgrwt>
<rscale>  0 0.12472620E+04</rscale>
<asrwt>0</asrwt>
<pdfrwt beam="1">  1        1 0.35082131E+00 0.12472620E+04</pdfrwt>
<pdfrwt beam="2">  1       -1 0.26238724E-01 0.12472620E+04</pdfrwt>
<totfact> 0.24488412E+01</totfact>
</mgrwt>
</event>
<event>
12    2  0.3561489E-008  0.1221094E+04  0.7818608E-02  0.9094591E-01
         -2   -1    0    0    0  501 -0.00000000000E+00  0.00000000000E+00  0.50929697069E+03  0.50929697069E+03  0.00000000000E+00 0.  1.
          2   -1    0    0  501    0  0.00000000000E+00 -0.00000000000E+00 -0.73192575518E+03  0.73192575518E+03  0.00000000000E+00 0. -1.
         23    2    1    2    0    0  0.34769430532E+02  0.78827046771E+02  0.18984892327E+03  0.22878809882E+03  0.94227192969E+02 0.  0.
        254    2    1    2    0    0 -0.34769430532E+02 -0.78827046771E+02 -0.41247770776E+03  0.10124346270E+04  0.92057775230E+03 0.  0.
         23    2    4    4    0    0  0.35247632795E+03  0.20927614118E+03 -0.10812380504E+03  0.43358160040E+03  0.90918545683E+02 0.  0.
         23    2    4    4    0    0 -0.38724575849E+03 -0.28810318795E+03 -0.30435390272E+03  0.57885302664E+03  0.97348877646E+02 0.  0.
          2    1    3    3  502    0 -0.10381059266E+02  0.31862558086E+02  0.64026633306E+01  0.34117196499E+02  0.00000000000E+00 0. -1.
         -2    1    3    3    0  502  0.45150489798E+02  0.46964488686E+02  0.18344625994E+03  0.19467090232E+03  0.00000000000E+00 0.  1.
         11    1    5    5    0    0  0.21509884901E+03  0.17492676844E+03 -0.85832618025E+02  0.29023116214E+03  0.00000000000E+00 0. -1.
        -11    1    5    5    0    0  0.13737747895E+03  0.34349372748E+02 -0.22291187016E+02  0.14335043826E+03  0.00000000000E+00 0.  1.
          3    1    6    6  503    0 -0.14450297020E+03 -0.13021097683E+03 -0.71397021143E+02  0.20720410592E+03  0.00000000000E+00 0. -1.
         -3    1    6    6    0  503 -0.24274278829E+03 -0.15789221113E+03 -0.23295688158E+03  0.37164892072E+03  0.00000000000E+00 0.  1.
<mgrwt>
<rscale>  0 0.12210939E+04</rscale>
<asrwt>0</asrwt>
<pdfrwt beam="1">  1        2 0.11260396E+00 0.12210939E+04</pdfrwt>
<pdfrwt beam="2">  1       -2 0.78353380E-01 0.12210939E+04</pdfrwt>
<totfact> 0.55264760E+01</totfact>
</mgrwt>
</event>
<event>
12    2  0.3561489E-008  0.1408785E+04  0.7818608E-02  0.8947484E-01
         -2   -1    0    0    0  501 -0.00000000000E+00  0.00000000000E+00  0.35484968410E+03  0.35484968410E+03  0.00000000000E+00 0.  1.
          2   -1    0    0  501    0  0.00000000000E+00 -0.00000000000E+00 -0.13982510911E+04  0.13982510911E+04  0.00000000000E+00 0. -1.
         23    2    1    2    0    0 -0.81663497739E+02 -0.25860646654E+03  0.75324925317E+02  0.29663459710E+03  0.93659000743E+02 0.  0.
        254    2    1    2    0    0  0.81663497739E+02  0.25860646654E+03 -0.11187263323E+04  0.14564661781E+04  0.89229977580E+03 0.  0.
         23    2    4    4    0    0  0.43999762711E+03 -0.79169039201E+01 -0.38389709403E+03  0.59119050619E+03  0.92025249633E+02 0.  0.
         23    2    4    4    0    0 -0.35833412937E+03  0.26652337046E+03 -0.73482923826E+03  0.86527567188E+03  0.96384250107E+02 0.  0.
          3    1    3    3  502    0 -0.40016004891E+02 -0.82655289742E+02 -0.17346883705E+02  0.93456363850E+02  0.00000000000E+00 0. -1.
         -3    1    3    3    0  502 -0.41647492848E+02 -0.17595117680E+03  0.92671809022E+02  0.20317823325E+03  0.00000000000E+00 0.  1.
         11    1    5    5    0    0  0.13668368250E+03 -0.14767644564E+02 -0.17632556639E+03  0.22358715918E+03  0.00000000000E+00 0.  1.
        -11    1    5    5    0    0  0.30331394462E+03  0.68507406442E+01 -0.20757152764E+03  0.36760334701E+03  0.00000000000E+00 0. -1.
          3    1    6    6  503    0 -0.30295799588E+03  0.18718740371E+03 -0.62117518785E+03  0.71601765717E+03  0.00000000000E+00 0. -1.
         -3    1    6    6    0  503 -0.55376133493E+02  0.79335966752E+02 -0.11365405041E+03  0.14925801471E+03  0.00000000000E+00 0.  1.
<mgrwt>
<rscale>  0 0.14087852E+04</rscale>
<asrwt>0</asrwt>
<pdfrwt beam="1">  1        2 0.21511555E+00 0.14087852E+04</pdfrwt>
<pdfrwt beam="2">  1       -2 0.54592259E-01 0.14087852E+04</pdfrwt>
<totfact> 0.44537981E+01</totfact>
</mgrwt>
</event>
<event>
12    2  0.3561489E-008  0.1951692E+04  0.7818608E-02  0.8629545E-01
          2   -1    0    0  501    0  0.00000000000E+00  0.00000000000E+00  0.80858745063E+03  0.80858745063E+03  0.00000000000E+00 0. -1.
         -2   -1    0    0    0  501 -0.00000000000E+00 -0.00000000000E+00 -0.11777029765E+04  0.11777029765E+04  0.00000000000E+00 0.  1.
         23    2    1    2    0    0  0.12177910777E+03 -0.15312909264E+02  0.62233535142E+03  0.64087679869E+03  0.91417422788E+02 0.  0.
        254    2    1    2    0    0 -0.12177910777E+03  0.15312909264E+02 -0.99145087728E+03  0.13454136284E+04  0.90116499780E+03 0.  0.
         23    2    4    4    0    0 -0.39341625116E+03  0.29813627992E+03 -0.50200677737E+03  0.70981513226E+03  0.90361105388E+02 0.  0.
         23    2    4    4    0    0  0.27163714339E+03 -0.28282337066E+03 -0.48944409991E+03  0.63559849619E+03  0.10321881978E+03 0.  0.
          4    1    3    3  502    0  0.38607774548E+02  0.34585735863E+02  0.29325609567E+03  0.29780173107E+03  0.00000000000E+00 0. -1.
         -4    1    3    3    0  502  0.83171333222E+02 -0.49898645127E+02  0.32907925575E+03  0.34307506761E+03  0.00000000000E+00 0.  1.
         11    1    5    5    0    0 -0.10295343913E+03  0.67991591819E+02 -0.74849187440E+02  0.14430754674E+03  0.00000000000E+00 0. -1.
        -11    1    5    5    0    0 -0.29046281204E+03  0.23014468810E+03 -0.42715758993E+03  0.56550758552E+03  0.00000000000E+00 0.  1.
          2    1    6    6  503    0  0.87156024270E+01 -0.56411010242E+02 -0.89144356008E+02  0.10585310581E+03  0.00000000000E+00 0. -1.
         -2    1    6    6    0  503  0.26292154097E+03 -0.22641236041E+03 -0.40029974390E+03  0.52974539037E+03  0.00000000000E+00 0.  1.
<mgrwt>
<rscale>  0 0.19516924E+04</rscale>
<asrwt>0</asrwt>
<pdfrwt beam="1">  1        2 0.12439807E+00 0.19516924E+04</pdfrwt>
<pdfrwt beam="2">  1       -2 0.18118507E+00 0.19516924E+04</pdfrwt>
<totfact> 0.56330601E+00</totfact>
</mgrwt>
</event>
<event>
12    2  0.3561489E-008  0.1298113E+04  0.7818608E-02  0.9031063E-01
          1   -1    0    0  501    0  0.00000000000E+00  0.00000000000E+00  0.77226596222E+03  0.77226596222E+03  0.00000000000E+00 0. -1.
         -1   -1    0    0    0  501 -0.00000000000E+00 -0.00000000000E+00 -0.54550391748E+03  0.54550391748E+03  0.00000000000E+00 0.  1.
         23    2    1    2    0    0  0.18323808290E+03  0.27001234225E+03 -0.16762605387E+02  0.33915829964E+03  0.90909335527E+02 0.  0.
        254    2    1    2    0    0 -0.18323808290E+03 -0.27001234225E+03  0.24352465013E+03  0.97861158006E+03  0.88988398649E+03 0.  0.
         23    2    4    4    0    0 -0.10659229267E+03  0.30582170150E+03  0.19217586519E+03  0.38838174549E+03  0.94973612683E+02 0.  0.
         23    2    4    4    0    0 -0.76645790230E+02 -0.57583404375E+03  0.51348784944E+02  0.59022983457E+03  0.90967778912E+02 0.  0.
          3    1    3    3  502    0  0.87817310383E+02  0.12291413288E+03  0.37443758934E+02  0.15563354121E+03  0.00000000000E+00 0. -1.
         -3    1    3    3    0  502  0.95420772514E+02  0.14709820937E+03 -0.54206364321E+02  0.18352475844E+03  0.00000000000E+00 0.  1.
         11    1    5    5    0    0 -0.55293257423E+02  0.26015262567E+03  0.17223916018E+03  0.31686442094E+03  0.00000000000E+00 0. -1.
        -11    1    5    5    0    0 -0.51299035244E+02  0.45669075833E+02  0.19936705004E+02  0.71517324550E+02  0.00000000000E+00 0.  1.
          1    1    6    6  503    0 -0.94771597857E+02 -0.47237874439E+03  0.27812656962E+02  0.48259390568E+03  0.00000000000E+00 0. -1.
         -1    1    6    6    0  503  0.18125807626E+02 -0.10345529935E+03  0.23536127981E+02  0.10763592888E+03  0.00000000000E+00 0.  1.
<mgrwt>
<rscale>  0 0.12981126E+04</rscale>
<asrwt>0</asrwt>
<pdfrwt beam="1">  1        1 0.11881015E+00 0.12981126E+04</pdfrwt>
<pdfrwt beam="2">  1       -1 0.83923679E-01 0.12981126E+04</pdfrwt>
<totfact> 0.32364615E+01</totfact>
</mgrwt>
</event>
<event>
12    2  0.3561489E-008  0.1813779E+04  0.7818608E-02  0.8699006E-01
         -1   -1    0    0    0  501 -0.00000000000E+00  0.00000000000E+00  0.35282480989E+03  0.35282480989E+03  0.00000000000E+00 0.  1.
          1   -1    0    0  501    0  0.00000000000E+00 -0.00000000000E+00 -0.23310398678E+04  0.23310398678E+04  0.00000000000E+00 0. -1.
         23    2    1    2    0    0  0.92723864964E+02 -0.63776609843E+03 -0.41144898618E+03  0.76997641646E+03  0.90719910887E+02 0.  0.
        254    2    1    2    0    0 -0.92723864964E+02  0.63776609843E+03 -0.15667660717E+04  0.19138882612E+04  0.89043194096E+03 0.  0.
         23    2    4    4    0    0  0.76345879435E+02 -0.14411571485E+03 -0.54389474891E+02  0.20057551724E+03  0.10331645833E+03 0.  0.
         23    2    4    4    0    0 -0.16906974440E+03  0.78188181328E+03 -0.15123765968E+04  0.17133127440E+04  0.90740507119E+02 0.  0.
          1    1    3    3  502    0  0.71591052588E+01 -0.47613295675E+02 -0.52129131016E+01  0.48429878961E+02  0.00000000000E+00 0. -1.
         -1    1    3    3    0  502  0.85564759706E+02 -0.59015280275E+03 -0.40623607308E+03  0.72154653750E+03  0.00000000000E+00 0.  1.
         11    1    5    5    0    0  0.97504093707E+02 -0.10347889115E+03 -0.60189743320E+02  0.15439473568E+03  0.00000000000E+00 0. -1.
        -11    1    5    5    0    0 -0.21158214273E+02 -0.40636823701E+02  0.58002684294E+01  0.46180781561E+02  0.00000000000E+00 0.  1.
          3    1    6    6  503    0 -0.11377334242E+03  0.40609424751E+03 -0.71548734242E+03  0.83052937845E+03  0.00000000000E+00 0. -1.
         -3    1    6    6    0  503 -0.55296401975E+02  0.37578756577E+03 -0.79688925440E+03  0.88278336551E+03  0.00000000000E+00 0.  1.
<mgrwt>
<rscale>  0 0.18137791E+04</rscale>
<asrwt>0</asrwt>
<pdfrwt beam="1">  1        1 0.35862152E+00 0.18137791E+04</pdfrwt>
<pdfrwt beam="2">  1       -1 0.54280739E-01 0.18137791E+04</pdfrwt>
<totfact> 0.57282369E+00</totfact>
</mgrwt>
</event>
<event>
12    2  0.3561489E-008  0.1811144E+04  0.7818608E-02  0.8700395E-01
         -1   -1    0    0    0  501 -0.00000000000E+00  0.00000000000E+00  0.73223568377E+03  0.73223568377E+03  0.00000000000E+00 0.  1.
          1   -1    0    0  501    0  0.00000000000E+00 -0.00000000000E+00 -0.11199413363E+04  0.11199413363E+04  0.00000000000E+00 0. -1.
         23    2    1    2    0    0 -0.21998473104E+03 -0.39558819214E+03  0.36810515073E+03  0.59001205708E+03  0.87917722084E+02 0.  0.
        254    2    1    2    0    0  0.21998473104E+03  0.39558819214E+03 -0.75581080327E+03  0.12621649630E+04  0.90384020925E+03 0.  0.
         23    2    4    4    0    0  0.11136927083E+03  0.58396967920E+03 -0.82151997967E+03  0.10182560108E+04  0.92339188741E+02 0.  0.
         23    2    4    4    0    0  0.10861546022E+03 -0.18838148706E+03  0.65709176396E+02  0.24390895224E+03  0.88819920363E+02 0.  0.
          3    1    3    3  502    0 -0.41366226853E+01 -0.71977600296E+02  0.59105309266E+02  0.93227271628E+02  0.00000000000E+00 0. -1.
         -3    1    3    3    0  502 -0.21584810836E+03 -0.32361059184E+03  0.30899984146E+03  0.49678478545E+03  0.00000000000E+00 0.  1.
         11    1    5    5    0    0  0.12629091474E+03  0.48881432983E+03 -0.70377772187E+03  0.86613620522E+03  0.00000000000E+00 0.  1.
        -11    1    5    5    0    0 -0.14921643913E+02  0.95155349366E+02 -0.11774225780E+03  0.15211980555E+03  0.00000000000E+00 0. -1.
          2    1    6    6  503    0 -0.10363892719E+02  0.18249648218E+01  0.23931953130E+01  0.10792041174E+02  0.00000000000E+00 0. -1.
         -2    1    6    6    0  503  0.11897935294E+03 -0.19020645188E+03  0.63315981083E+02  0.23311691106E+03  0.00000000000E+00 0.  1.
<mgrwt>
<rscale>  0 0.18111444E+04</rscale>
<asrwt>0</asrwt>
<pdfrwt beam="1">  1        1 0.17229867E+00 0.18111444E+04</pdfrwt>
<pdfrwt beam="2">  1       -1 0.11265164E+00 0.18111444E+04</pdfrwt>
<totfact> 0.83284232E+00</totfact>
</mgrwt>
</event>
<event>
12    2  0.3561489E-008  0.1580272E+04  0.7818608E-02  0.8832760E-01
          2   -1    0    0  501    0  0.00000000000E+00  0.00000000000E+00  0.87950966235E+03  0.87950966235E+03  0.00000000000E+00 0. -1.
         -2   -1    0    0    0  501 -0.00000000000E+00 -0.00000000000E+00 -0.70984465229E+03  0.70984465229E+03  0.00000000000E+00 0.  1.
         23    2    1    2    0    0 -0.30851176587E+02 -0.44603973288E+03  0.32629065461E+03  0.56065954947E+03  0.89276540698E+02 0.  0.
        254    2    1    2    0    0  0.30851176587E+02  0.44603973288E+03 -0.15662564455E+03  0.10286947652E+04  0.91311449936E+03 0.  0.
         23    2    4    4    0    0  0.35678590278E+03  0.32792657381E+03 -0.36537997069E+03  0.61405152032E+03  0.93406254607E+02 0.  0.
         23    2    4    4    0    0 -0.32593472619E+03  0.11811315907E+03  0.20875432614E+03  0.41464324484E+03  0.90368621372E+02 0.  0.
          3    1    3    3  502    0  0.88910442733E+01 -0.34795512826E+03  0.27183891596E+03  0.44164263628E+03  0.00000000000E+00 0. -1.
         -3    1    3    3    0  502 -0.39742220860E+02 -0.98084604620E+02  0.54451738646E+02  0.11901691318E+03  0.00000000000E+00 0.  1.
         11    1    5    5    0    0  0.58802712143E+02  0.96653076120E+02 -0.56181290359E+02  0.12631671887E+03  0.00000000000E+00 0. -1.
        -11    1    5    5    0    0  0.29798319064E+03  0.23127349769E+03 -0.30919868033E+03  0.48773480146E+03  0.00000000000E+00 0.  1.
          1    1    6    6  503    0 -0.20652420279E+03  0.27656331840E+02  0.12598362399E+03  0.24349331108E+03  0.00000000000E+00 0. -1.
         -1    1    6    6    0  503 -0.11941052341E+03  0.90456827232E+02  0.82770702148E+02  0.17114993376E+03  0.00000000000E+00 0.  1.
<mgrwt>
<rscale>  0 0.15802724E+04</rscale>
<asrwt>0</asrwt>
<pdfrwt beam="1">  1        2 0.13530918E+00 0.15802724E+04</pdfrwt>
<pdfrwt beam="2">  1       -2 0.10920687E+00 0.15802724E+04</pdfrwt>
<totfact> 0.19446404E+01</totfact>
</mgrwt>
</event>
<event>
12    2  0.3561489E-008  0.1810129E+04  0.7818608E-02  0.8700931E-01
          1   -1    0    0  501    0  0.00000000000E+00  0.00000000000E+00  0.15819157125E+04  0.15819157125E+04  0.00000000000E+00 0. -1.
         -1   -1    0    0    0  501 -0.00000000000E+00 -0.00000000000E+00 -0.51781642403E+03  0.51781642403E+03  0.00000000000E+00 0.  1.
         23    2    1    2    0    0  0.23227982198E+01 -0.67115770136E+03  0.39234480394E+03  0.78279031619E+03  0.91477748430E+02 0.  0.
        254    2    1    2    0    0 -0.23227982198E+01  0.67115770136E+03  0.67175448451E+03  0.13169418203E+04  0.91248211773E+03 0.  0.
         23    2    4    4    0    0 -0.32768451747E+03  0.31278095450E+03  0.68172574175E+03  0.82431593864E+03  0.97661206458E+02 0.  0.
         23    2    4    4    0    0  0.32536171925E+03  0.35837674686E+03 -0.99712572442E+01  0.49262588168E+03  0.91031270939E+02 0.  0.
          1    1    3    3  502    0  0.72716775787E+00 -0.65667853834E+03  0.36373748697E+03  0.75068781189E+03  0.00000000000E+00 0. -1.
         -1    1    3    3    0  502  0.15956304620E+01 -0.14479163018E+02  0.28607316969E+02  0.32102504302E+02  0.00000000000E+00 0.  1.
         11    1    5    5    0    0 -0.22327760393E+02  0.25410834954E+01  0.69984093846E+02  0.73503465095E+02  0.00000000000E+00 0. -1.
        -11    1    5    5    0    0 -0.30535675708E+03  0.31023987100E+03  0.61174164790E+03  0.75081247355E+03  0.00000000000E+00 0.  1.
          4    1    6    6  503    0  0.30978921553E+03  0.33477962837E+03  0.12834449331E+02  0.45630196221E+03  0.00000000000E+00 0.  1.
         -4    1    6    6    0  503  0.15572503720E+02  0.23597118488E+02 -0.22805706576E+02  0.36323919467E+02  0.00000000000E+00 0. -1.
<mgrwt>
<rscale>  0 0.18101292E+04</rscale>
<asrwt>0</asrwt>
<pdfrwt beam="1">  1        1 0.24337165E+00 0.18101292E+04</pdfrwt>
<pdfrwt beam="2">  1       -1 0.79664066E-01 0.18101292E+04</pdfrwt>
<totfact> 0.85204523E+00</totfact>
</mgrwt>
</event>
<event>
12    2  0.3561489E-008  0.1775755E+04  0.7818608E-02  0.8719300E-01
         -2   -1    0    0    0  501 -0.00000000000E+00  0.00000000000E+00  0.38912995096E+03  0.38912995096E+03  0.00000000000E+00 0.  1.
          2   -1    0    0  501    0  0.00000000000E+00 -0.00000000000E+00 -0.20258700433E+04  0.20258700433E+04  0.00000000000E+00 0. -1.
         23    2    1    2    0    0  0.40545646819E+03 -0.31534846766E+03 -0.56457889452E+02  0.52455260146E+03  0.90157277896E+02 0.  0.
        254    2    1    2    0    0 -0.40545646819E+03  0.31534846766E+03 -0.15802822029E+04  0.18904473928E+04  0.90147651134E+03 0.  0.
         23    2    4    4    0    0 -0.60887496903E+03  0.20979742294E+02 -0.12574218914E+04  0.14003535588E+04  0.93334875863E+02 0.  0.
         23    2    4    4    0    0  0.20341850084E+03  0.29436872537E+03 -0.32286031143E+03  0.49009383398E+03  0.89000856479E+02 0.  0.
          4    1    3    3  502    0  0.39910934764E+03 -0.31024847946E+03 -0.41112728098E+02  0.50718107890E+03  0.00000000000E+00 0.  1.
         -4    1    3    3    0  502  0.63471205494E+01 -0.50999882022E+01 -0.15345161354E+02  0.17371522556E+02  0.00000000000E+00 0. -1.
         11    1    5    5    0    0 -0.29666837650E+03 -0.36448512345E+02 -0.61095573470E+03  0.68015257805E+03  0.00000000000E+00 0.  1.
        -11    1    5    5    0    0 -0.31220659253E+03  0.57428254640E+02 -0.64646615673E+03  0.72020098073E+03  0.00000000000E+00 0. -1.
          2    1    6    6  503    0  0.20345400804E+01  0.13723322845E+02  0.41010787667E+01  0.14466782306E+02  0.00000000000E+00 0. -1.
         -2    1    6    6    0  503  0.20138396076E+03  0.28064540252E+03 -0.32696139020E+03  0.47562705168E+03  0.00000000000E+00 0.  1.
<mgrwt>
<rscale>  0 0.17757553E+04</rscale>
<asrwt>0</asrwt>
<pdfrwt beam="1">  1        2 0.31167232E+00 0.17757553E+04</pdfrwt>
<pdfrwt beam="2">  1       -2 0.59866145E-01 0.17757553E+04</pdfrwt>
<totfact> 0.15909429E+01</totfact>
</mgrwt>
</event>
<event>
12    2  0.3561489E-008  0.1838376E+04  0.7818608E-02  0.8686154E-01
          2   -1    0    0  501    0  0.00000000000E+00  0.00000000000E+00  0.13019036993E+04  0.13019036993E+04  0.00000000000E+00 0. -1.
         -2   -1    0    0    0  501 -0.00000000000E+00 -0.00000000000E+00 -0.64897796087E+03  0.64897796087E+03  0.00000000000E+00 0.  1.
         23    2    1    2    0    0  0.59537156074E+03 -0.18485619030E+03 -0.79158529578E+02  0.63331567780E+03  0.78635669466E+02 0.  0.
        254    2    1    2    0    0 -0.59537156074E+03  0.18485619030E+03  0.73208426804E+03  0.13175659824E+04  0.90077390950E+03 0.  0.
         23    2    4    4    0    0 -0.35119498890E+02 -0.64803232365E+02 -0.17933125285E+03  0.21430163005E+03  0.91283362477E+02 0.  0.
         23    2    4    4    0    0 -0.56025206185E+03  0.24965942267E+03  0.91141552089E+03  0.11032643524E+04  0.10149768136E+03 0.  0.
          4    1    3    3  502    0  0.45295265950E+03 -0.14132758306E+03 -0.26037433435E+02  0.47520263616E+03  0.00000000000E+00 0. -1.
         -4    1    3    3    0  502  0.14241890124E+03 -0.43528607243E+02 -0.53121096143E+02  0.15811304164E+03  0.00000000000E+00 0.  1.
         11    1    5    5    0    0 -0.82846888824E+01 -0.66523108146E+02 -0.17456267398E+03  0.18699221143E+03  0.00000000000E+00 0. -1.
        -11    1    5    5    0    0 -0.26834810008E+02  0.17198757814E+01 -0.47685788671E+01  0.27309418618E+02  0.00000000000E+00 0.  1.
          2    1    6    6  503    0 -0.52608119973E+03  0.23522152087E+03  0.80081063246E+03  0.98660440991E+03  0.00000000000E+00 0. -1.
         -2    1    6    6    0  503 -0.34170862114E+02  0.14437901798E+02  0.11060488843E+03  0.11665994244E+03  0.00000000000E+00 0.  1.
<mgrwt>
<rscale>  0 0.18383762E+04</rscale>
<asrwt>0</asrwt>
<pdfrwt beam="1">  1        2 0.20029288E+00 0.18383762E+04</pdfrwt>
<pdfrwt beam="2">  1       -2 0.99842763E-01 0.18383762E+04</pdfrwt>
<totfact> 0.12869058E+01</totfact>
</mgrwt>
</event>
<event>
12    2  0.3561489E-008  0.1517948E+04  0.7818608E-02  0.8872605E-01
          1   -1    0    0  501    0  0.00000000000E+00  0.00000000000E+00  0.37406463882E+03  0.37406463882E+03  0.00000000000E+00 0. -1.
         -1   -1    0    0    0  501 -0.00000000000E+00 -0.00000000000E+00 -0.15399521042E+04  0.15399521042E+04  0.00000000000E+00 0.  1.
         23    2    1    2    0    0 -0.42255132605E+03  0.17124976873E+03 -0.15590240433E+03  0.49065664522E+03  0.92532574760E+02 0.  0.
        254    2    1    2    0    0  0.42255132605E+03 -0.17124976873E+03 -0.10099850610E+04  0.14233600977E+04  0.89331295635E+03 0.  0.
         23    2    4    4    0    0  0.23289771661E+03  0.31612534368E+03 -0.18951014197E+03  0.44601821794E+03  0.94029662870E+02 0.  0.
         23    2    4    4    0    0  0.18965360943E+03 -0.48737511241E+03 -0.82047491904E+03  0.97734187981E+03  0.92277112552E+02 0.  0.
          3    1    3    3  502    0  0.16001250668E+01 -0.21708481733E+01 -0.90842138801E+01  0.94760711183E+01  0.00000000000E+00 0. -1.
         -3    1    3    3    0  502 -0.42415145111E+03  0.17342061690E+03 -0.14681819045E+03  0.48118057411E+03  0.00000000000E+00 0.  1.
         11    1    5    5    0    0  0.44158891300E+02  0.85253989811E+02 -0.67073123119E+01  0.96245719375E+02  0.00000000000E+00 0.  1.
        -11    1    5    5    0    0  0.18873882531E+03  0.23087135387E+03 -0.18280282965E+03  0.34977249856E+03  0.00000000000E+00 0. -1.
          2    1    6    6  503    0  0.84827001578E+02 -0.15018982535E+03 -0.20641943472E+03  0.26900109083E+03  0.00000000000E+00 0.  1.
         -2    1    6    6    0  503  0.10482660786E+03 -0.33718528706E+03 -0.61405548431E+03  0.70834078898E+03  0.00000000000E+00 0. -1.
<mgrwt>
<rscale>  0 0.15179481E+04</rscale>
<asrwt>0</asrwt>
<pdfrwt beam="1">  1        1 0.57548406E-01 0.15179481E+04</pdfrwt>
<pdfrwt beam="2">  1       -1 0.23691571E+00 0.15179481E+04</pdfrwt>
<totfact> 0.53840374E+00</totfact>
</mgrwt>
</event>
<event>
12    2  0.3561489E-008  0.2236885E+04  0.7818608E-02  0.8503231E-01
         -1   -1    0    0    0  501 -0.00000000000E+00  0.00000000000E+00  0.57348419705E+03  0.57348419705E+03  0.00000000000E+00 0.  1.
          1   -1    0    0  501    0  0.00000000000E+00 -0.00000000000E+00 -0.21812526152E+04  0.21812526152E+04  0.00000000000E+00 0. -1.
         23    2    1    2    0    0  0.61447246589E+03  0.21688312182E+02 -0.15580367513E+04  0.16772301127E+04  0.87037568217E+02 0.  0.
        254    2    1    2    0    0 -0.61447246589E+03 -0.21688312182E+02 -0.49731666837E+02  0.10775066995E+04  0.88345948105E+03 0.  0.
         23    2    4    4    0    0  0.15480978587E+03  0.15703609399E+03  0.11697578956E+03  0.26512051066E+03  0.89326061235E+02 0.  0.
         23    2    4    4    0    0 -0.76928225176E+03 -0.17872440617E+03 -0.16670745640E+03  0.81238618888E+03  0.91882248710E+02 0.  0.
          3    1    3    3  502    0  0.42195655089E+03 -0.23478738195E+02 -0.10255545961E+04  0.11092163051E+04  0.00000000000E+00 0. -1.
         -3    1    3    3    0  502  0.19251591501E+03  0.45167050377E+02 -0.53248215525E+03  0.56801380760E+03  0.00000000000E+00 0.  1.
         11    1    5    5    0    0 -0.10647750405E+02  0.34293749632E+01  0.80001528629E+00  0.11214955452E+02  0.00000000000E+00 0.  1.
        -11    1    5    5    0    0  0.16545753627E+03  0.15360671902E+03  0.11617577428E+03  0.25390555521E+03  0.00000000000E+00 0. -1.
          3    1    6    6  503    0 -0.68935885296E+03 -0.13073082377E+03 -0.15335144913E+03  0.71820807806E+03  0.00000000000E+00 0. -1.
         -3    1    6    6    0  503 -0.79923398801E+02 -0.47993582404E+02 -0.13356007270E+02  0.94178110823E+02  0.00000000000E+00 0.  1.
<mgrwt>
<rscale>  0 0.22368852E+04</rscale>
<asrwt>0</asrwt>
<pdfrwt beam="1">  1        1 0.33557732E+00 0.22368852E+04</pdfrwt>
<pdfrwt beam="2">  1       -1 0.88228339E-01 0.22368852E+04</pdfrwt>
<totfact> 0.25728693E+00</totfact>
</mgrwt>
</event>
<event>
12    2  0.3561489E-008  0.1529193E+04  0.7818608E-02  0.8865269E-01
         -2   -1    0    0    0  501 -0.00000000000E+00  0.00000000000E+00  0.42875239776E+03  0.42875239776E+03  0.00000000000E+00 0.  1.
          2   -1    0    0  501    0  0.00000000000E+00 -0.00000000000E+00 -0.13635087705E+04  0.13635087705E+04  0.00000000000E+00 0. -1.
         23    2    1    2    0    0  0.15561897622E+03  0.13044843405E+03 -0.84152820330E+03  0.87030013171E+03  0.89546315376E+02 0.  0.
        254    2    1    2    0    0 -0.15561897622E+03 -0.13044843405E+03 -0.93228169404E+02  0.92196103652E+03  0.89447560145E+03 0.  0.
         23    2    4    4    0    0  0.22196469177E+03 -0.38444632832E+03 -0.69338426878E+02  0.45747409450E+03  0.86066404291E+02 0.  0.
         23    2    4    4    0    0 -0.37758366799E+03  0.25399789428E+03 -0.23889742526E+02  0.46448694202E+03  0.89961341022E+02 0.  0.
          3    1    3    3  502    0  0.15882108660E+03  0.13271181700E+03 -0.73188305579E+03  0.76058488762E+03  0.00000000000E+00 0. -1.
         -3    1    3    3    0  502 -0.32021103801E+01 -0.22633829554E+01 -0.10964514750E+03  0.10971524408E+03  0.00000000000E+00 0.  1.
         11    1    5    5    0    0  0.20075037377E+03 -0.27434147155E+03 -0.56526533278E+02  0.34461457390E+03  0.00000000000E+00 0. -1.
        -11    1    5    5    0    0  0.21214317999E+02 -0.11010485677E+03 -0.12811893600E+02  0.11285952060E+03  0.00000000000E+00 0.  1.
          1    1    6    6  503    0 -0.23455203437E+03  0.14781630165E+03 -0.57663027358E+02  0.28317722469E+03  0.00000000000E+00 0. -1.
         -1    1    6    6    0  503 -0.14303163362E+03  0.10618159262E+03  0.33773284832E+02  0.18130971733E+03  0.00000000000E+00 0.  1.
<mgrwt>
<rscale>  0 0.15291928E+04</rscale>
<asrwt>0</asrwt>
<pdfrwt beam="1">  1        2 0.20977058E+00 0.15291928E+04</pdfrwt>
<pdfrwt beam="2">  1       -2 0.65961906E-01 0.15291928E+04</pdfrwt>
<totfact> 0.30966172E+01</totfact>
</mgrwt>
</event>
<event>
12    2  0.3561489E-008  0.1247942E+04  0.7818608E-02  0.9071898E-01
          2   -1    0    0  501    0  0.00000000000E+00  0.00000000000E+00  0.16474998809E+04  0.16474998809E+04  0.00000000000E+00 0.  1.
         -2   -1    0    0    0  501 -0.00000000000E+00 -0.00000000000E+00 -0.23632169639E+03  0.23632169639E+03  0.00000000000E+00 0. -1.
         23    2    1    2    0    0 -0.20238908901E+02  0.54341265091E+02 -0.82824791952E+02  0.13816512922E+03  0.94165122240E+02 0.  0.
        254    2    1    2    0    0  0.20238908901E+02 -0.54341265091E+02  0.14940029764E+04  0.17456564481E+04  0.90105990615E+03 0.  0.
         23    2    4    4    0    0  0.78665830166E+02  0.12127575697E+03  0.15278304920E+04  0.15367685415E+04  0.80594141293E+02 0.  0.
         23    2    4    4    0    0 -0.58426921264E+02 -0.17561702206E+03 -0.33827515566E+02  0.20888790660E+03  0.90745871247E+02 0.  0.
          3    1    3    3  502    0 -0.42970826226E+02  0.24433114826E+02 -0.87309906274E+02  0.10033189294E+03  0.00000000000E+00 0. -1.
         -3    1    3    3    0  502  0.22731917325E+02  0.29908150265E+02  0.44851143217E+01  0.37833236288E+02  0.00000000000E+00 0.  1.
         11    1    5    5    0    0  0.24977583081E+01 -0.72262742571E+01  0.17869363449E+02  0.19436357330E+02  0.00000000000E+00 0.  1.
        -11    1    5    5    0    0  0.76168071858E+02  0.12850203123E+03  0.15099611286E+04  0.15173321841E+04  0.00000000000E+00 0. -1.
          3    1    6    6  503    0 -0.42225318154E+02 -0.64036282362E+02 -0.54713596041E+02  0.94218896957E+02  0.00000000000E+00 0. -1.
         -3    1    6    6    0  503 -0.16201603111E+02 -0.11158073970E+03  0.20886080475E+02  0.11466900964E+03  0.00000000000E+00 0.  1.
<mgrwt>
<rscale>  0 0.12479423E+04</rscale>
<asrwt>0</asrwt>
<pdfrwt beam="1">  1        2 0.25346151E+00 0.12479423E+04</pdfrwt>
<pdfrwt beam="2">  1       -2 0.36357185E-01 0.12479423E+04</pdfrwt>
<totfact> 0.73455756E+01</totfact>
</mgrwt>
</event>
<event>
12    2  0.3561489E-008  0.1507108E+04  0.7818608E-02  0.8879740E-01
         -1   -1    0    0    0  501 -0.00000000000E+00  0.00000000000E+00  0.88102571625E+03  0.88102571625E+03  0.00000000000E+00 0.  1.
          1   -1    0    0  501    0  0.00000000000E+00 -0.00000000000E+00 -0.64452567990E+03  0.64452567990E+03  0.00000000000E+00 0. -1.
         23    2    1    2    0    0  0.11801746548E+03  0.48639187656E+03  0.42940196252E+02  0.51078235321E+03  0.92463896496E+02 0.  0.
        254    2    1    2    0    0 -0.11801746548E+03 -0.48639187656E+03  0.19355984010E+03  0.10147690429E+04  0.86126977135E+03 0.  0.
         23    2    4    4    0    0 -0.34141625975E+03 -0.46178056310E+03  0.39179161100E+03  0.70142202262E+03  0.93197835189E+02 0.  0.
         23    2    4    4    0    0  0.22339879428E+03 -0.24611313463E+02 -0.19823177091E+03  0.31334702031E+03  0.91530225081E+02 0.  0.
          1    1    3    3  502    0  0.12306903794E+03  0.48026366109E+03  0.52271038742E+02  0.49852927071E+03  0.00000000000E+00 0. -1.
         -1    1    3    3    0  502 -0.50515724637E+01  0.61282154722E+01 -0.93308424901E+01  0.12253082502E+02  0.00000000000E+00 0.  1.
         11    1    5    5    0    0 -0.18020455780E+03 -0.25447276338E+03  0.26770015091E+03  0.41096647157E+03  0.00000000000E+00 0. -1.
        -11    1    5    5    0    0 -0.16121170195E+03 -0.20730779972E+03  0.12409146010E+03  0.29045555105E+03  0.00000000000E+00 0.  1.
          3    1    6    6  503    0  0.20998264993E+03 -0.45803058533E+01 -0.19884793703E+03  0.28923034857E+03  0.00000000000E+00 0. -1.
         -3    1    6    6    0  503  0.13416144341E+02 -0.20031007610E+02  0.61616611959E+00  0.24116671734E+02  0.00000000000E+00 0.  1.
<mgrwt>
<rscale>  0 0.15071081E+04</rscale>
<asrwt>0</asrwt>
<pdfrwt beam="1">  1        1 0.99157796E-01 0.15071081E+04</pdfrwt>
<pdfrwt beam="2">  1       -1 0.13554242E+00 0.15071081E+04</pdfrwt>
<totfact> 0.13596758E+01</totfact>
</mgrwt>
</event>
<event>
12    2  0.3561489E-008  0.2011546E+04  0.7818608E-02  0.8601241E-01
          2   -1    0    0  501    0  0.00000000000E+00  0.00000000000E+00  0.38855179569E+04  0.38855179569E+04  0.00000000000E+00 0. -1.
         -2   -1    0    0    0  501 -0.00000000000E+00 -0.00000000000E+00 -0.26034614588E+03  0.26034614588E+03  0.00000000000E+00 0.  1.
         23    2    1    2    0    0 -0.64128418876E+03 -0.32987274097E+03  0.73694036644E+03  0.10352172030E+04  0.92369463123E+02 0.  0.
        254    2    1    2    0    0  0.64128418876E+03  0.32987274097E+03  0.28882314446E+04  0.31106468998E+04  0.90232024342E+03 0.  0.
         23    2    4    4    0    0  0.61114307117E+03  0.47740516535E+03  0.28125951784E+04  0.29189055913E+04  0.88919446977E+02 0.  0.
         23    2    4    4    0    0  0.30141117590E+02 -0.14753242438E+03  0.75636266216E+02  0.19174130851E+03  0.91485416377E+02 0.  0.
          4    1    3    3  502    0 -0.12532147551E+03 -0.29973240254E+02  0.10720892434E+03  0.16762344948E+03  0.00000000000E+00 0. -1.
         -4    1    3    3    0  502 -0.51596271324E+03 -0.29989950071E+03  0.62973144210E+03  0.86759375352E+03  0.00000000000E+00 0.  1.
         11    1    5    5    0    0  0.10839295748E+03  0.86750450523E+02  0.64309842478E+03  0.65791356412E+03  0.00000000000E+00 0. -1.
        -11    1    5    5    0    0  0.50275011368E+03  0.39065471483E+03  0.21694967536E+04  0.22609920272E+04  0.00000000000E+00 0.  1.
          3    1    6    6  503    0  0.52070061392E+02 -0.69037167429E+02  0.99059390842E+01  0.87037632143E+02  0.00000000000E+00 0. -1.
         -3    1    6    6    0  503 -0.21928943803E+02 -0.78495256953E+02  0.65730327132E+02  0.10470367637E+03  0.00000000000E+00 0.  1.
<mgrwt>
<rscale>  0 0.20115463E+04</rscale>
<asrwt>0</asrwt>
<pdfrwt beam="1">  1        2 0.59777195E+00 0.20115463E+04</pdfrwt>
<pdfrwt beam="2">  1       -2 0.40053256E-01 0.20115463E+04</pdfrwt>
<totfact> 0.23313671E+00</totfact>
</mgrwt>
</event>
<event>
12    2  0.3561489E-008  0.1397961E+04  0.7818608E-02  0.8955296E-01
          2   -1    0    0  501    0  0.00000000000E+00  0.00000000000E+00  0.50820884931E+03  0.50820884931E+03  0.00000000000E+00 0. -1.
         -2   -1    0    0    0  501 -0.00000000000E+00 -0.00000000000E+00 -0.96136352769E+03  0.96136352769E+03  0.00000000000E+00 0.  1.
         23    2    1    2    0    0 -0.15295172978E+03 -0.34107396192E+03  0.30109902617E+02  0.38597567539E+03  0.91350624626E+02 0.  0.
        254    2    1    2    0    0  0.15295172978E+03  0.34107396192E+03 -0.48326458100E+03  0.10835967016E+04  0.89493657728E+03 0.  0.
         23    2    4    4    0    0  0.28383027312E+03 -0.10677995720E+03 -0.51789112533E+03  0.60696016564E+03  0.90707451612E+02 0.  0.
         23    2    4    4    0    0 -0.13087854334E+03  0.44785391912E+03  0.34626544339E+02  0.47663653597E+03  0.91000350931E+02 0.  0.
          3    1    3    3  502    0 -0.67807977198E+02 -0.20583115136E+03  0.56601061757E+02  0.22398228687E+03  0.00000000000E+00 0. -1.
         -3    1    3    3    0  502 -0.85143752586E+02 -0.13524281056E+03 -0.26491159139E+02  0.16199338852E+03  0.00000000000E+00 0.  1.
         11    1    5    5    0    0  0.10770268144E+03 -0.81561723520E+02 -0.17969124791E+03  0.22481353810E+03  0.00000000000E+00 0. -1.
        -11    1    5    5    0    0  0.17612759168E+03 -0.25218233683E+02 -0.33819987742E+03  0.38214662755E+03  0.00000000000E+00 0.  1.
          4    1    6    6  503    0 -0.17418562947E+02  0.10178894340E+02 -0.95889582791E+01  0.22337509843E+02  0.00000000000E+00 0. -1.
         -4    1    6    6    0  503 -0.11345998039E+03  0.43767502478E+03  0.44215502618E+02  0.45429902612E+03  0.00000000000E+00 0.  1.
<mgrwt>
<rscale>  0 0.13979606E+04</rscale>
<asrwt>0</asrwt>
<pdfrwt beam="1">  1        2 0.78185978E-01 0.13979606E+04</pdfrwt>
<pdfrwt beam="2">  1       -2 0.14790208E+00 0.13979606E+04</pdfrwt>
<totfact> 0.18276745E+01</totfact>
</mgrwt>
</event>
<event>
12    2  0.3561489E-008  0.1227808E+04  0.7818608E-02  0.9088858E-01
          1   -1    0    0  501    0  0.00000000000E+00  0.00000000000E+00  0.40108875929E+03  0.40108875929E+03  0.00000000000E+00 0. -1.
         -1   -1    0    0    0  501 -0.00000000000E+00 -0.00000000000E+00 -0.93963825322E+03  0.93963825322E+03  0.00000000000E+00 0.  1.
         23    2    1    2    0    0 -0.26368903364E+03 -0.62975292114E+02 -0.10636057799E+03  0.30490856556E+03  0.90326446419E+02 0.  0.
        254    2    1    2    0    0  0.26368903364E+03  0.62975292114E+02 -0.43218891594E+03  0.10358184470E+04  0.90146259052E+03 0.  0.
         23    2    4    4    0    0 -0.15430178345E+03 -0.95876004979E+02 -0.53214102767E+03  0.56963176244E+03  0.91131897488E+02 0.  0.
         23    2    4    4    0    0  0.41799081709E+03  0.15885129709E+03  0.99952111732E+02  0.46618668452E+03  0.85962447750E+02 0.  0.
          4    1    3    3  502    0 -0.24075657938E+02  0.36102287002E+01 -0.41143559213E+02  0.47806521742E+02  0.00000000000E+00 0.  1.
         -4    1    3    3    0  502 -0.23961337570E+03 -0.66585520814E+02 -0.65217018779E+02  0.25710204382E+03  0.00000000000E+00 0. -1.
         11    1    5    5    0    0 -0.12913413774E+03 -0.36984955640E+02 -0.41402742497E+03  0.43527258253E+03  0.00000000000E+00 0. -1.
        -11    1    5    5    0    0 -0.25167645715E+02 -0.58891049339E+02 -0.11811360270E+03  0.13435917991E+03  0.00000000000E+00 0.  1.
          2    1    6    6  503    0  0.29897487354E+03  0.75420766929E+02  0.86359390836E+02  0.32020651380E+03  0.00000000000E+00 0. -1.
         -2    1    6    6    0  503  0.11901594355E+03  0.83430530164E+02  0.13592720896E+02  0.14598017072E+03  0.00000000000E+00 0.  1.
<mgrwt>
<rscale>  0 0.12278084E+04</rscale>
<asrwt>0</asrwt>
<pdfrwt beam="1">  1        1 0.61705964E-01 0.12278084E+04</pdfrwt>
<pdfrwt beam="2">  1       -1 0.14455973E+00 0.12278084E+04</pdfrwt>
<totfact> 0.22746597E+01</totfact>
</mgrwt>
</event>
<event>
12    2  0.3561489E-008  0.2143942E+04  0.7818608E-02  0.8542130E-01
         -2   -1    0    0    0  501 -0.00000000000E+00  0.00000000000E+00  0.34332985031E+03  0.34332985031E+03  0.00000000000E+00 0.  1.
          2   -1    0    0  501    0  0.00000000000E+00 -0.00000000000E+00 -0.33469908774E+04  0.33469908774E+04  0.00000000000E+00 0. -1.
         23    2    1    2    0    0  0.36424743821E+03 -0.83039672666E+02  0.13258497346E+03  0.40655926286E+03  0.90221258906E+02 0.  0.
        254    2    1    2    0    0 -0.36424743821E+03  0.83039672666E+02 -0.31362460006E+04  0.32837614649E+04  0.89859812963E+03 0.  0.
         23    2    4    4    0    0  0.23036286659E+03 -0.95199996351E+02 -0.16415287266E+04  0.16628167714E+04  0.90625412709E+02 0.  0.
         23    2    4    4    0    0 -0.59461030480E+03  0.17823966902E+03 -0.14947172740E+04  0.16209446935E+04  0.89169366657E+02 0.  0.
          1    1    3    3  502    0  0.10755462415E+02 -0.16717364230E+02  0.23374336767E+02  0.30684032621E+02  0.00000000000E+00 0. -1.
         -1    1    3    3    0  502  0.35349197579E+03 -0.66322308436E+02  0.10921063669E+03  0.37587523024E+03  0.00000000000E+00 0.  1.
         11    1    5    5    0    0  0.37085655481E+02  0.15224968236E+02 -0.17815042183E+03  0.18260536219E+03  0.00000000000E+00 0. -1.
        -11    1    5    5    0    0  0.19327721111E+03 -0.11042496459E+03 -0.14633783047E+04  0.14802114092E+04  0.00000000000E+00 0.  1.
          4    1    6    6  503    0 -0.48529551903E+02  0.14641751221E+02 -0.19928687670E+03  0.20563257891E+03  0.00000000000E+00 0. -1.
         -4    1    6    6    0  503 -0.54608075290E+03  0.16359791780E+03 -0.12954303973E+04  0.14153121146E+04  0.00000000000E+00 0.  1.
<mgrwt>
<rscale>  0 0.21439420E+04</rscale>
<asrwt>0</asrwt>
<pdfrwt beam="1">  1        2 0.51492167E+00 0.21439420E+04</pdfrwt>
<pdfrwt beam="2">  1       -2 0.52819978E-01 0.21439420E+04</pdfrwt>
<totfact> 0.32258887E+00</totfact>
</mgrwt>
</event>
<event>
12    2  0.3561489E-008  0.1759597E+04  0.7818608E-02  0.8728086E-01
         -2   -1    0    0    0  501 -0.00000000000E+00  0.00000000000E+00  0.33368894565E+03  0.33368894565E+03  0.00000000000E+00 0.  1.
          2   -1    0    0  501    0  0.00000000000E+00 -0.00000000000E+00 -0.23196607058E+04  0.23196607058E+04  0.00000000000E+00 0. -1.
         23    2    1    2    0    0 -0.10448945263E+03 -0.39755565899E+03  0.81933712297E+01  0.42207801232E+03  0.95468159311E+02 0.  0.
        254    2    1    2    0    0  0.10448945263E+03  0.39755565899E+03 -0.19941651313E+04  0.22312716391E+04  0.91263903525E+03 0.  0.
         23    2    4    4    0    0 -0.45856582134E+02  0.60543793097E+03 -0.81521977336E+03  0.10212209239E+04  0.98239412228E+02 0.  0.
         23    2    4    4    0    0  0.15034603477E+03 -0.20788227198E+03 -0.11789453580E+04  0.12100507152E+04  0.92149916453E+02 0.  0.
          4    1    3    3  502    0  0.60521990282E+01 -0.96450897982E+02  0.28284778855E+02  0.10069475433E+03  0.00000000000E+00 0. -1.
         -4    1    3    3    0  502 -0.11054165166E+03 -0.30110476101E+03 -0.20091407625E+02  0.32138325799E+03  0.00000000000E+00 0.  1.
         11    1    5    5    0    0 -0.52952699442E+02  0.60320202230E+03 -0.81245960910E+03  0.10132853914E+04  0.00000000000E+00 0.  1.
        -11    1    5    5    0    0  0.70961173077E+01  0.22359086763E+01 -0.27601642579E+01  0.79355324449E+01  0.00000000000E+00 0. -1.
          2    1    6    6  503    0 -0.10441081427E+02 -0.32733527371E+02 -0.17435043918E+03  0.17770361740E+03  0.00000000000E+00 0. -1.
         -2    1    6    6    0  503  0.16078711620E+03 -0.17514874461E+03 -0.10045949188E+04  0.10323470978E+04  0.00000000000E+00 0.  1.
<mgrwt>
<rscale>  0 0.17595967E+04</rscale>
<asrwt>0</asrwt>
<pdfrwt beam="1">  1        2 0.35687089E+00 0.17595967E+04</pdfrwt>
<pdfrwt beam="2">  1       -2 0.51336759E-01 0.17595967E+04</pdfrwt>
<totfact> 0.15013453E+01</totfact>
</mgrwt>
</event>
<event>
12    2  0.3561489E-008  0.1852363E+04  0.7818608E-02  0.8678939E-01
         -2   -1    0    0    0  501 -0.00000000000E+00  0.00000000000E+00  0.46495687421E+03  0.46495687421E+03  0.00000000000E+00 0.  1.
          2   -1    0    0  501    0  0.00000000000E+00 -0.00000000000E+00 -0.18449285990E+04  0.18449285990E+04  0.00000000000E+00 0. -1.
         23    2    1    2    0    0 -0.64900366234E+01  0.28063463755E+02 -0.14030829481E+04  0.14065707847E+04  0.94709738952E+02 0.  0.
        254    2    1    2    0    0  0.64900366234E+01 -0.28063463755E+02  0.23111223340E+02  0.90331468844E+03  0.90255948233E+03 0.  0.
         23    2    4    4    0    0  0.18003809903E+03 -0.36417679410E+03 -0.19131388150E+03  0.45870328684E+03  0.93644271781E+02 0.  0.
         23    2    4    4    0    0 -0.17354806241E+03  0.33611333034E+03  0.21442510484E+03  0.44461140161E+03  0.92790473916E+02 0.  0.
          1    1    3    3  502    0  0.23242878929E+02  0.37452890595E+01 -0.11779020692E+04  0.11781373194E+04  0.00000000000E+00 0. -1.
         -1    1    3    3    0  502 -0.29732915552E+02  0.24318174695E+02 -0.22518087885E+03  0.22843346534E+03  0.00000000000E+00 0.  1.
         11    1    5    5    0    0  0.17889286224E+03 -0.28607230137E+03 -0.16959364309E+03  0.37762682843E+03  0.00000000000E+00 0.  1.
        -11    1    5    5    0    0  0.11452367913E+01 -0.78104492725E+02 -0.21720238411E+02  0.81076458407E+02  0.00000000000E+00 0. -1.
          2    1    6    6  503    0 -0.91489681481E+02  0.16630924004E+03  0.16019285831E+03  0.24837648237E+03  0.00000000000E+00 0.  1.
         -2    1    6    6    0  503 -0.82058380930E+02  0.16980409030E+03  0.54232246534E+02  0.19623491924E+03  0.00000000000E+00 0. -1.
<mgrwt>
<rscale>  0 0.18523631E+04</rscale>
<asrwt>0</asrwt>
<pdfrwt beam="1">  1        2 0.28383517E+00 0.18523631E+04</pdfrwt>
<pdfrwt beam="2">  1       -2 0.71531826E-01 0.18523631E+04</pdfrwt>
<totfact> 0.13577103E+01</totfact>
</mgrwt>
</event>
<event>
12    2  0.3561489E-008  0.2294385E+04  0.7818608E-02  0.8480138E-01
          2   -1    0    0  501    0  0.00000000000E+00  0.00000000000E+00  0.30314312696E+04  0.30314312696E+04  0.00000000000E+00 0. -1.
         -2   -1    0    0    0  501 -0.00000000000E+00 -0.00000000000E+00 -0.43413492881E+03  0.43413492881E+03  0.00000000000E+00 0.  1.
         23    2    1    2    0    0 -0.80395972099E+03  0.46705756635E+03  0.14949202255E+04  0.17627958474E+04  0.90380946915E+02 0.  0.
        254    2    1    2    0    0  0.80395972099E+03 -0.46705756635E+03  0.11023761153E+04  0.17027703511E+04  0.90537272195E+03 0.  0.
         23    2    4    4    0    0  0.48259689692E+03 -0.52548009004E+03  0.21247922764E+03  0.75053614840E+03  0.95540556474E+02 0.  0.
         23    2    4    4    0    0  0.32136282407E+03  0.58422523689E+02  0.88989688769E+03  0.95223420269E+03  0.90256579223E+02 0.  0.
          1    1    3    3  502    0 -0.74098785647E+03  0.44371124188E+03  0.14213321188E+04  0.16631679595E+04  0.00000000000E+00 0. -1.
         -1    1    3    3    0  502 -0.62971864515E+02  0.23346324471E+02  0.73588106675E+02  0.99627887817E+02  0.00000000000E+00 0.  1.
         11    1    5    5    0    0  0.36551585814E+03 -0.43941701779E+03  0.14152217139E+03  0.58882737969E+03  0.00000000000E+00 0.  1.
        -11    1    5    5    0    0  0.11708103878E+03 -0.86063072252E+02  0.70957056250E+02  0.16170876871E+03  0.00000000000E+00 0. -1.
          3    1    6    6  503    0  0.47298515670E+02 -0.20800375341E+02  0.17656101207E+03  0.18396629089E+03  0.00000000000E+00 0. -1.
         -3    1    6    6    0  503  0.27406430840E+03  0.79222899030E+02  0.71333587562E+03  0.76826791180E+03  0.00000000000E+00 0.  1.
<mgrwt>
<rscale>  0 0.22943846E+04</rscale>
<asrwt>0</asrwt>
<pdfrwt beam="1">  1        2 0.46637403E+00 0.22943846E+04</pdfrwt>
<pdfrwt beam="2">  1       -2 0.66789991E-01 0.22943846E+04</pdfrwt>
<totfact> 0.31095319E+00</totfact>
</mgrwt>
</event>
<event>
12    2  0.3561489E-008  0.1536509E+04  0.7818608E-02  0.8860531E-01
          1   -1    0    0  501    0  0.00000000000E+00  0.00000000000E+00  0.10248139409E+04  0.10248139409E+04  0.00000000000E+00 0. -1.
         -1   -1    0    0    0  501 -0.00000000000E+00 -0.00000000000E+00 -0.57592433520E+03  0.57592433520E+03  0.00000000000E+00 0.  1.
         23    2    1    2    0    0 -0.42163903668E+03 -0.22526415624E+03  0.16679977603E+01  0.48696695230E+03  0.92793389166E+02 0.  0.
        254    2    1    2    0    0  0.42163903668E+03  0.22526415624E+03  0.44722160794E+03  0.11137713238E+04  0.90108599909E+03 0.  0.
         23    2    4    4    0    0  0.30061802650E+03  0.52875127555E+03  0.89239518682E+02  0.62053494423E+03  0.84562497955E+02 0.  0.
         23    2    4    4    0    0  0.12102101018E+03 -0.30348711931E+03  0.35798208926E+03  0.49323637956E+03  0.91544707105E+02 0.  0.
          3    1    3    3  502    0  0.45856405531E+01 -0.60674961354E+01  0.10749371768E+01  0.76810219742E+01  0.00000000000E+00 0. -1.
         -3    1    3    3    0  502 -0.42622467724E+03 -0.21919666010E+03  0.59306058350E+00  0.47928593033E+03  0.00000000000E+00 0.  1.
         11    1    5    5    0    0  0.20279816984E+03  0.41989721409E+03  0.49748214660E+02  0.46895165311E+03  0.00000000000E+00 0. -1.
        -11    1    5    5    0    0  0.97819856660E+02  0.10885406146E+03  0.39491304022E+02  0.15158329112E+03  0.00000000000E+00 0.  1.
          2    1    6    6  503    0  0.78326110882E+02 -0.27392674340E+03  0.32260946198E+03  0.43040411865E+03  0.00000000000E+00 0. -1.
         -2    1    6    6    0  503  0.42694899298E+02 -0.29560375917E+02  0.35372627280E+02  0.62832260910E+02  0.00000000000E+00 0.  1.
<mgrwt>
<rscale>  0 0.15365094E+04</rscale>
<asrwt>0</asrwt>
<pdfrwt beam="1">  1        1 0.15766368E+00 0.15365094E+04</pdfrwt>
<pdfrwt beam="2">  1       -1 0.88603744E-01 0.15365094E+04</pdfrwt>
<totfact> 0.17456476E+01</totfact>
</mgrwt>
</event>
<event>
12    2  0.3561489E-008  0.3472920E+04  0.7818608E-02  0.8120238E-01
          1   -1    0    0  501    0  0.00000000000E+00  0.00000000000E+00  0.11333509207E+04  0.11333509207E+04  0.00000000000E+00 0. -1.
         -1   -1    0    0    0  501 -0.00000000000E+00 -0.00000000000E+00 -0.26605118491E+04  0.26605118491E+04  0.00000000000E+00 0.  1.
         23    2    1    2    0    0 -0.88643116822E+03 -0.54468169735E+03 -0.20692512009E+04  0.23180093576E+04  0.94490645333E+02 0.  0.
        254    2    1    2    0    0  0.88643116822E+03  0.54468169735E+03  0.54209027258E+03  0.14758534121E+04  0.89545690182E+03 0.  0.
         23    2    4    4    0    0  0.40379029489E+03 -0.17344870577E+03 -0.39363600015E+01  0.44866717083E+03  0.90308800611E+02 0.  0.
         23    2    4    4    0    0  0.48264087332E+03  0.71813040311E+03  0.54602663258E+03  0.10271862413E+04  0.91175667411E+02 0.  0.
          3    1    3    3  502    0 -0.37850968527E+03 -0.24783184135E+03 -0.10004250203E+04  0.10979710491E+04  0.00000000000E+00 0. -1.
         -3    1    3    3    0  502 -0.50792148295E+03 -0.29684985600E+03 -0.10688261806E+04  0.12200383085E+04  0.00000000000E+00 0.  1.
         11    1    5    5    0    0  0.27472117117E+03 -0.16233571184E+03 -0.36100354249E+01  0.31912009899E+03  0.00000000000E+00 0. -1.
        -11    1    5    5    0    0  0.12906912373E+03 -0.11112993927E+02 -0.32632457662E+00  0.12954707184E+03  0.00000000000E+00 0.  1.
          4    1    6    6  503    0  0.30596154857E+03  0.52960405623E+03  0.37985873220E+03  0.71998998744E+03  0.00000000000E+00 0.  1.
         -4    1    6    6    0  503  0.17667932475E+03  0.18852634688E+03  0.16616790038E+03  0.30719625385E+03  0.00000000000E+00 0. -1.
<mgrwt>
<rscale>  0 0.34729201E+04</rscale>
<asrwt>0</asrwt>
<pdfrwt beam="1">  1        1 0.17436168E+00 0.34729201E+04</pdfrwt>
<pdfrwt beam="2">  1       -1 0.40930951E+00 0.34729201E+04</pdfrwt>
<totfact> 0.60393252E-02</totfact>
</mgrwt>
</event>
<event>
12    2  0.3561489E-008  0.1757570E+04  0.7818608E-02  0.8729195E-01
         -1   -1    0    0    0  501 -0.00000000000E+00  0.00000000000E+00  0.14945685008E+04  0.14945685008E+04  0.00000000000E+00 0.  1.
          1   -1    0    0  501    0  0.00000000000E+00 -0.00000000000E+00 -0.51671300062E+03  0.51671300062E+03  0.00000000000E+00 0. -1.
         23    2    1    2    0    0  0.42561477376E+03 -0.16939963879E+03 -0.15863791380E+03  0.49342646184E+03  0.91975606995E+02 0.  0.
        254    2    1    2    0    0 -0.42561477376E+03  0.16939963879E+03  0.11364934140E+04  0.15178550396E+04  0.89578036810E+03 0.  0.
         23    2    4    4    0    0  0.19533433935E+03  0.25136246309E+03  0.61219160693E+03  0.69603651028E+03  0.91376518151E+02 0.  0.
         23    2    4    4    0    0 -0.62094911311E+03 -0.81962824301E+02  0.52430180705E+03  0.82181852929E+03  0.90540623914E+02 0.  0.
          3    1    3    3  502    0  0.38267136252E+03 -0.18014624865E+03 -0.14446067360E+03  0.44694398846E+03  0.00000000000E+00 0. -1.
         -3    1    3    3    0  502  0.42943411238E+02  0.10746609862E+02 -0.14177240196E+02  0.46482473383E+02  0.00000000000E+00 0.  1.
         11    1    5    5    0    0  0.60952065124E+02  0.96948427532E+02  0.13652823876E+03  0.17819683449E+03  0.00000000000E+00 0. -1.
        -11    1    5    5    0    0  0.13438227422E+03  0.15441403556E+03  0.47566336817E+03  0.51783967579E+03  0.00000000000E+00 0.  1.
          3    1    6    6  503    0 -0.49399236076E+03 -0.93163063651E+02  0.44743720312E+03  0.67298429376E+03  0.00000000000E+00 0. -1.
         -3    1    6    6    0  503 -0.12695675235E+03  0.11200239350E+02  0.76864603930E+02  0.14883423553E+03  0.00000000000E+00 0.  1.
<mgrwt>
<rscale>  0 0.17575699E+04</rscale>
<asrwt>0</asrwt>
<pdfrwt beam="1">  1        1 0.79494308E-01 0.17575699E+04</pdfrwt>
<pdfrwt beam="2">  1       -1 0.22993361E+00 0.17575699E+04</pdfrwt>
<totfact> 0.37887405E+00</totfact>
</mgrwt>
</event>
<event>
12    2  0.3561489E-008  0.1701188E+04  0.7818608E-02  0.8760687E-01
          1   -1    0    0  501    0  0.00000000000E+00  0.00000000000E+00  0.27824480331E+03  0.27824480331E+03  0.00000000000E+00 0. -1.
         -1   -1    0    0    0  501 -0.00000000000E+00 -0.00000000000E+00 -0.26002638273E+04  0.26002638273E+04  0.00000000000E+00 0.  1.
         23    2    1    2    0    0  0.16044532246E+03 -0.46406816652E+03 -0.14571337928E+04  0.15402006634E+04  0.88753754311E+02 0.  0.
        254    2    1    2    0    0 -0.16044532246E+03  0.46406816652E+03 -0.86488523125E+03  0.13383079672E+04  0.89551090848E+03 0.  0.
         23    2    4    4    0    0 -0.20012507851E+03  0.63940125464E+03 -0.30210737266E+03  0.74075533305E+03  0.92550458387E+02 0.  0.
         23    2    4    4    0    0  0.39679756052E+02 -0.17533308812E+03 -0.56277785859E+03  0.59755263416E+03  0.89632904933E+02 0.  0.
          4    1    3    3  502    0  0.53768884465E+02 -0.23301804180E+03 -0.81880640661E+03  0.85301373509E+03  0.00000000000E+00 0. -1.
         -4    1    3    3    0  502  0.10667643799E+03 -0.23105012472E+03 -0.63832738614E+03  0.68718692832E+03  0.00000000000E+00 0.  1.
         11    1    5    5    0    0 -0.15161752387E+03  0.57547182566E+03 -0.25287484868E+03  0.64660759721E+03  0.00000000000E+00 0. -1.
        -11    1    5    5    0    0 -0.48507554644E+02  0.63929428976E+02 -0.49232523982E+02  0.94147735842E+02  0.00000000000E+00 0.  1.
          2    1    6    6  503    0  0.45024504084E+02 -0.17904168046E+03 -0.56130014595E+03  0.59088153056E+03  0.00000000000E+00 0. -1.
         -2    1    6    6    0  503 -0.53447480315E+01  0.37085923360E+01 -0.14777126333E+01  0.66711036015E+01  0.00000000000E+00 0.  1.
<mgrwt>
<rscale>  0 0.17011877E+04</rscale>
<asrwt>0</asrwt>
<pdfrwt beam="1">  1        1 0.42806892E-01 0.17011877E+04</pdfrwt>
<pdfrwt beam="2">  1       -1 0.40004059E+00 0.17011877E+04</pdfrwt>
<totfact> 0.66070404E-01</totfact>
</mgrwt>
</event>
<event>
12    2  0.3561489E-008  0.1830045E+04  0.7818608E-02  0.8690483E-01
          1   -1    0    0  501    0  0.00000000000E+00  0.00000000000E+00  0.68524346286E+03  0.68524346286E+03  0.00000000000E+00 0. -1.
         -1   -1    0    0    0  501 -0.00000000000E+00 -0.00000000000E+00 -0.12218523996E+04  0.12218523996E+04  0.00000000000E+00 0.  1.
         23    2    1    2    0    0 -0.24272835835E+03 -0.62729610478E+03 -0.33442032713E+03  0.75569247962E+03  0.82563366789E+02 0.  0.
        254    2    1    2    0    0  0.24272835835E+03  0.62729610478E+03 -0.20218860961E+03  0.11514033829E+04  0.91237714634E+03 0.  0.
         23    2    4    4    0    0  0.42756763637E+03 -0.11367664007E+02  0.35590310699E+02  0.43961555932E+03  0.95141275627E+02 0.  0.
         23    2    4    4    0    0 -0.18483927802E+03  0.63866376879E+03 -0.23777892031E+03  0.71178782353E+03  0.89700181226E+02 0.  0.
          4    1    3    3  502    0 -0.14941140991E+03 -0.40860376450E+03 -0.17244320800E+03  0.46799301892E+03  0.00000000000E+00 0. -1.
         -4    1    3    3    0  502 -0.93316948437E+02 -0.21869234028E+03 -0.16197711913E+03  0.28769946070E+03  0.00000000000E+00 0.  1.
         11    1    5    5    0    0  0.41620580058E+03  0.15071922742E+01  0.20430255270E+02  0.41670965359E+03  0.00000000000E+00 0.  1.
        -11    1    5    5    0    0  0.11361835786E+02 -0.12874856281E+02  0.15160055428E+02  0.22905905729E+02  0.00000000000E+00 0. -1.
          4    1    6    6  503    0 -0.35425121102E+01  0.57790864505E+01  0.66887296158E+01  0.95229373686E+01  0.00000000000E+00 0. -1.
         -4    1    6    6    0  503 -0.18129676591E+03  0.63288468234E+03 -0.24446764993E+03  0.70226488616E+03  0.00000000000E+00 0.  1.
<mgrwt>
<rscale>  0 0.18300452E+04</rscale>
<asrwt>0</asrwt>
<pdfrwt beam="1">  1        1 0.10542207E+00 0.18300452E+04</pdfrwt>
<pdfrwt beam="2">  1       -1 0.18797729E+00 0.18300452E+04</pdfrwt>
<totfact> 0.48352098E+00</totfact>
</mgrwt>
</event>
<event>
12    2  0.3561489E-008  0.1704642E+04  0.7818608E-02  0.8758722E-01
         -4   -1    0    0    0  501 -0.00000000000E+00  0.00000000000E+00  0.21705712131E+04  0.21705712131E+04  0.00000000000E+00 0.  1.
          4   -1    0    0  501    0  0.00000000000E+00 -0.00000000000E+00 -0.33468181798E+03  0.33468181798E+03  0.00000000000E+00 0. -1.
         23    2    1    2    0    0  0.38045763291E+03 -0.37902464770E+03  0.23838453520E+03  0.59436754042E+03  0.89654294243E+02 0.  0.
        254    2    1    2    0    0 -0.38045763291E+03  0.37902464770E+03  0.15975048600E+04  0.19108854907E+04  0.90058530245E+03 0.  0.
         23    2    4    4    0    0 -0.53314153971E+03  0.57083942952E+03  0.12175100156E+04  0.14493280142E+04  0.90130455781E+02 0.  0.
         23    2    4    4    0    0  0.15268390680E+03 -0.19181478182E+03  0.37999484436E+03  0.46155747649E+03  0.92379307427E+02 0.  0.
          4    1    3    3  502    0  0.32940981577E+03 -0.30371900364E+03  0.22819678377E+03  0.50282186907E+03  0.00000000000E+00 0. -1.
         -4    1    3    3    0  502  0.51047817146E+02 -0.75305644064E+02  0.10187751427E+02  0.91545671347E+02  0.00000000000E+00 0.  1.
         11    1    5    5    0    0 -0.84599198022E+01 -0.34003874455E+00  0.28424007329E+02  0.29658220818E+02  0.00000000000E+00 0. -1.
        -11    1    5    5    0    0 -0.52468161991E+03  0.57117946826E+03  0.11890860083E+04  0.14196697934E+04  0.00000000000E+00 0.  1.
          2    1    6    6  503    0  0.22841075563E+02 -0.93899966890E+02  0.17479498077E+03  0.19973032773E+03  0.00000000000E+00 0. -1.
         -2    1    6    6    0  503  0.12984283124E+03 -0.97914814927E+02  0.20519986359E+03  0.26182714875E+03  0.00000000000E+00 0.  1.
<mgrwt>
<rscale>  0 0.17046416E+04</rscale>
<asrwt>0</asrwt>
<pdfrwt beam="1">  1        4 0.51489512E-01 0.17046416E+04</pdfrwt>
<pdfrwt beam="2">  1       -4 0.33393402E+00 0.17046416E+04</pdfrwt>
<totfact> 0.13093340E-01</totfact>
</mgrwt>
</event>
<event>
12    2  0.3561489E-008  0.1174710E+04  0.7818608E-02  0.9135285E-01
          1   -1    0    0  501    0  0.00000000000E+00  0.00000000000E+00  0.17813244100E+04  0.17813244100E+04  0.00000000000E+00 0. -1.
         -1   -1    0    0    0  501 -0.00000000000E+00 -0.00000000000E+00 -0.19366832325E+03  0.19366832325E+03  0.00000000000E+00 0.  1.
         23    2    1    2    0    0  0.12521242808E+03  0.17660536250E+03  0.21101386095E+03  0.31542063528E+03  0.89976227082E+02 0.  0.
        254    2    1    2    0    0 -0.12521242808E+03 -0.17660536250E+03  0.13766422258E+04  0.16595720980E+04  0.90120370856E+03 0.  0.
         23    2    4    4    0    0  0.28662414666E+03 -0.31780550525E+03  0.93246939878E+03  0.10308325282E+04  0.99813731095E+02 0.  0.
         23    2    4    4    0    0 -0.41183657474E+03  0.14120014275E+03  0.44417282704E+03  0.62873956980E+03  0.92071177606E+02 0.  0.
          3    1    3    3  502    0  0.68917810885E+02  0.38275330520E+02  0.40087466804E+02  0.88440209059E+02  0.00000000000E+00 0. -1.
         -3    1    3    3    0  502  0.56294617191E+02  0.13833003198E+03  0.17092639415E+03  0.22698042623E+03  0.00000000000E+00 0.  1.
         11    1    5    5    0    0  0.22505079979E+03 -0.29349780628E+03  0.83217549965E+03  0.91066178518E+03  0.00000000000E+00 0. -1.
        -11    1    5    5    0    0  0.61573346867E+02 -0.24307698967E+02  0.10029389913E+03  0.12017074301E+03  0.00000000000E+00 0.  1.
          1    1    6    6  503    0 -0.32133996281E+03  0.10308138748E+03  0.39299618214E+03  0.51800689505E+03  0.00000000000E+00 0. -1.
         -1    1    6    6    0  503 -0.90496611922E+02  0.38118755272E+02  0.51176644899E+02  0.11073267474E+03  0.00000000000E+00 0.  1.
<mgrwt>
<rscale>  0 0.11747104E+04</rscale>
<asrwt>0</asrwt>
<pdfrwt beam="1">  1        1 0.27404990E+00 0.11747104E+04</pdfrwt>
<pdfrwt beam="2">  1       -1 0.29795128E-01 0.11747104E+04</pdfrwt>
<totfact> 0.42987587E+01</totfact>
</mgrwt>
</event>
<event>
12    2  0.3561489E-008  0.1590442E+04  0.7818608E-02  0.8826441E-01
         -1   -1    0    0    0  501 -0.00000000000E+00  0.00000000000E+00  0.15141738454E+04  0.15141738454E+04  0.00000000000E+00 0.  1.
          1   -1    0    0  501    0  0.00000000000E+00 -0.00000000000E+00 -0.41763813691E+03  0.41763813691E+03  0.00000000000E+00 0. -1.
         23    2    1    2    0    0  0.38244413058E+03 -0.15026567001E+03  0.79503969911E+03  0.89911855849E+03  0.86503031486E+02 0.  0.
        254    2    1    2    0    0 -0.38244413058E+03  0.15026567001E+03  0.30149600939E+03  0.10326934238E+04  0.89817179834E+03 0.  0.
         23    2    4    4    0    0  0.23781881933E+03  0.19364520357E+03 -0.31099363559E+02  0.32142925552E+03  0.91067778054E+02 0.  0.
         23    2    4    4    0    0 -0.62026294991E+03 -0.43379533555E+02  0.33259537295E+03  0.71126416830E+03  0.93108130955E+02 0.  0.
          2    1    3    3  502    0  0.26785549120E+03 -0.11962175250E+03  0.48067295544E+03  0.56311847592E+03  0.00000000000E+00 0.  1.
         -2    1    3    3    0  502  0.11458863937E+03 -0.30643917514E+02  0.31436674368E+03  0.33600008257E+03  0.00000000000E+00 0. -1.
         11    1    5    5    0    0  0.21846989177E+03  0.20134566708E+03 -0.19858566676E+02  0.29776422540E+03  0.00000000000E+00 0. -1.
        -11    1    5    5    0    0  0.19348927561E+02 -0.77004635071E+01 -0.11240796884E+02  0.23665030120E+02  0.00000000000E+00 0.  1.
          2    1    6    6  503    0 -0.39347419970E+03 -0.64964729539E+02  0.18345397096E+03  0.43897348596E+03  0.00000000000E+00 0. -1.
         -2    1    6    6    0  503 -0.22678875020E+03  0.21585195984E+02  0.14914140198E+03  0.27229068234E+03  0.00000000000E+00 0.  1.
<mgrwt>
<rscale>  0 0.15904424E+04</rscale>
<asrwt>0</asrwt>
<pdfrwt beam="1">  1        1 0.64252022E-01 0.15904424E+04</pdfrwt>
<pdfrwt beam="2">  1       -1 0.23294982E+00 0.15904424E+04</pdfrwt>
<totfact> 0.49075558E+00</totfact>
</mgrwt>
</event>
<event>
12    2  0.3561489E-008  0.1118092E+04  0.7818608E-02  0.9187736E-01
         -1   -1    0    0    0  501 -0.00000000000E+00  0.00000000000E+00  0.31696489086E+03  0.31696489086E+03  0.00000000000E+00 0.  1.
          1   -1    0    0  501    0  0.00000000000E+00 -0.00000000000E+00 -0.98601510439E+03  0.98601510439E+03  0.00000000000E+00 0. -1.
         23    2    1    2    0    0  0.57547650540E+01 -0.10139600539E+03 -0.31156513069E+03  0.34024126379E+03  0.91526060206E+02 0.  0.
        254    2    1    2    0    0 -0.57547650540E+01  0.10139600539E+03 -0.35748508285E+03  0.96273873146E+03  0.88811936888E+03 0.  0.
         23    2    4    4    0    0 -0.10348823401E+03  0.10950417676E+03  0.26906621156E+03  0.32146964594E+03  0.90802685793E+02 0.  0.
         23    2    4    4    0    0  0.97733468961E+02 -0.81081713627E+01 -0.62655129441E+03  0.64126908553E+03  0.95089127316E+02 0.  0.
          4    1    3    3  502    0  0.18721417276E+02 -0.84880835332E+02 -0.30657541877E+03  0.31865927739E+03  0.00000000000E+00 0. -1.
         -4    1    3    3    0  502 -0.12966652222E+02 -0.16515170062E+02 -0.49897119120E+01  0.21581986400E+02  0.00000000000E+00 0.  1.
         11    1    5    5    0    0 -0.92419648188E+02  0.74976096098E+02  0.25706573300E+03  0.28327653881E+03  0.00000000000E+00 0. -1.
        -11    1    5    5    0    0 -0.11068585827E+02  0.34528080658E+02  0.12000478560E+02  0.38193107124E+02  0.00000000000E+00 0.  1.
          1    1    6    6  503    0  0.10329132428E+03  0.19679502133E+02 -0.54169664053E+03  0.55180760309E+03  0.00000000000E+00 0. -1.
         -1    1    6    6    0  503 -0.55578553188E+01 -0.27787673496E+02 -0.84854653881E+02  0.89461482434E+02  0.00000000000E+00 0.  1.
<mgrwt>
<rscale>  0 0.11180915E+04</rscale>
<asrwt>0</asrwt>
<pdfrwt beam="1">  1        1 0.15169463E+00 0.11180915E+04</pdfrwt>
<pdfrwt beam="2">  1       -1 0.48763830E-01 0.11180915E+04</pdfrwt>
<totfact> 0.64995165E+01</totfact>
</mgrwt>
</event>
<event>
12    2  0.3561489E-008  0.1799760E+04  0.7818608E-02  0.8706427E-01
          1   -1    0    0  501    0  0.00000000000E+00  0.00000000000E+00  0.22020434113E+04  0.22020434113E+04  0.00000000000E+00 0. -1.
         -1   -1    0    0    0  501 -0.00000000000E+00 -0.00000000000E+00 -0.36774224884E+03  0.36774224884E+03  0.00000000000E+00 0.  1.
         23    2    1    2    0    0  0.65202364771E+03 -0.18674735013E+03  0.65317018484E+03  0.94643673684E+03  0.95403336034E+02 0.  0.
        254    2    1    2    0    0 -0.65202364771E+03  0.18674735013E+03  0.11811309776E+04  0.16233489233E+04  0.88327907851E+03 0.  0.
         23    2    4    4    0    0 -0.31026419066E+03  0.12221553389E+02  0.11847858400E+04  0.12281233322E+04  0.90311672121E+02 0.  0.
         23    2    4    4    0    0 -0.34175945705E+03  0.17452579674E+03 -0.36548623663E+01  0.39522559109E+03  0.94504653968E+02 0.  0.
          4    1    3    3  502    0  0.50577365267E+03 -0.16423455979E+03  0.46012299962E+03  0.70320207135E+03  0.00000000000E+00 0.  1.
         -4    1    3    3    0  502  0.14624999504E+03 -0.22512790335E+02  0.19304718522E+03  0.24323466550E+03  0.00000000000E+00 0. -1.
         11    1    5    5    0    0 -0.15263081784E+03  0.42695090584E+02  0.48851346457E+03  0.51358002529E+03  0.00000000000E+00 0. -1.
        -11    1    5    5    0    0 -0.15763337282E+03 -0.30473537195E+02  0.69627237542E+03  0.71454330692E+03  0.00000000000E+00 0.  1.
          1    1    6    6  503    0 -0.19373533669E+03  0.48622962677E+02 -0.16841522810E+02  0.20045251326E+03  0.00000000000E+00 0. -1.
         -1    1    6    6    0  503 -0.14802412036E+03  0.12590283406E+03  0.13186660443E+02  0.19477307783E+03  0.00000000000E+00 0.  1.
<mgrwt>
<rscale>  0 0.17997604E+04</rscale>
<asrwt>0</asrwt>
<pdfrwt beam="1">  1        1 0.33877590E+00 0.17997604E+04</pdfrwt>
<pdfrwt beam="2">  1       -1 0.56575732E-01 0.17997604E+04</pdfrwt>
<totfact> 0.64821499E+00</totfact>
</mgrwt>
</event>
<event>
12    2  0.3561489E-008  0.2057095E+04  0.7818608E-02  0.8580382E-01
         -2   -1    0    0    0  501 -0.00000000000E+00  0.00000000000E+00  0.56597116079E+03  0.56597116079E+03  0.00000000000E+00 0.  1.
          2   -1    0    0  501    0  0.00000000000E+00 -0.00000000000E+00 -0.18691946495E+04  0.18691946495E+04  0.00000000000E+00 0. -1.
         23    2    1    2    0    0  0.47487799215E+02  0.74436756683E+03 -0.95216207403E+03  0.12131243648E+04  0.93380638179E+02 0.  0.
        254    2    1    2    0    0 -0.47487799215E+02 -0.74436756683E+03 -0.35106141464E+03  0.12220414455E+04  0.90211031033E+03 0.  0.
         23    2    4    4    0    0  0.11783816677E+03  0.17497171864E+03 -0.34380653216E+02  0.23132337057E+03  0.88473366538E+02 0.  0.
         23    2    4    4    0    0 -0.16532596599E+03 -0.91933928546E+03 -0.31668076143E+03  0.99071807491E+03  0.93371314989E+02 0.  0.
          2    1    3    3  502    0  0.77606721071E+00  0.58451072704E+03 -0.71960021306E+03  0.92708028721E+03  0.00000000000E+00 0. -1.
         -2    1    3    3    0  502  0.46711732004E+02  0.15985683979E+03 -0.23256186096E+03  0.28604407756E+03  0.00000000000E+00 0.  1.
         11    1    5    5    0    0  0.61284261407E+02  0.80645894628E+02  0.27729877581E+02  0.10501650883E+03  0.00000000000E+00 0.  1.
        -11    1    5    5    0    0  0.56553905365E+02  0.94325824009E+02 -0.62110530797E+02  0.12630686174E+03  0.00000000000E+00 0. -1.
          1    1    6    6  503    0 -0.53700145952E+02 -0.35841349048E+03 -0.76457181908E+02  0.37039119387E+03  0.00000000000E+00 0. -1.
         -1    1    6    6    0  503 -0.11162582003E+03 -0.56092579499E+03 -0.24022357952E+03  0.62032688104E+03  0.00000000000E+00 0.  1.
<mgrwt>
<rscale>  0 0.20570953E+04</rscale>
<asrwt>0</asrwt>
<pdfrwt beam="1">  1        2 0.28756840E+00 0.20570953E+04</pdfrwt>
<pdfrwt beam="2">  1       -2 0.87072487E-01 0.20570953E+04</pdfrwt>
<totfact> 0.83289109E+00</totfact>
</mgrwt>
</event>
<event>
12    2  0.3561489E-008  0.2155490E+04  0.7818608E-02  0.8537186E-01
         -1   -1    0    0    0  501 -0.00000000000E+00  0.00000000000E+00  0.34658830968E+03  0.34658830968E+03  0.00000000000E+00 0.  1.
          1   -1    0    0  501    0  0.00000000000E+00 -0.00000000000E+00 -0.33513363930E+04  0.33513363930E+04  0.00000000000E+00 0. -1.
         23    2    1    2    0    0 -0.85420618081E+03 -0.17579090357E+03 -0.10028257302E+04  0.13321264680E+04  0.91273438023E+02 0.  0.
        254    2    1    2    0    0  0.85420618081E+03  0.17579090357E+03 -0.20019223532E+04  0.23657982347E+04  0.91035022833E+03 0.  0.
         23    2    4    4    0    0  0.49954021774E+03  0.45435626798E+03 -0.16556221245E+04  0.17904207350E+04  0.92421544291E+02 0.  0.
         23    2    4    4    0    0  0.35466596307E+03 -0.27856536441E+03 -0.34630022867E+03  0.57537749972E+03  0.88027332072E+02 0.  0.
          1    1    3    3  502    0 -0.26032388577E+03 -0.53307163310E+02 -0.37156046886E+03  0.45680122721E+03  0.00000000000E+00 0. -1.
         -1    1    3    3    0  502 -0.59388229505E+03 -0.12248374026E+03 -0.63126526134E+03  0.87532524080E+03  0.00000000000E+00 0.  1.
         11    1    5    5    0    0  0.38229391356E+03  0.29839519572E+03 -0.12324441120E+04  0.13244269774E+04  0.00000000000E+00 0.  1.
        -11    1    5    5    0    0  0.11724630418E+03  0.15596107226E+03 -0.42317801248E+03  0.46599375763E+03  0.00000000000E+00 0. -1.
          1    1    6    6  503    0  0.26356081434E+03 -0.15913407411E+03 -0.21126398179E+03  0.37339044766E+03  0.00000000000E+00 0. -1.
         -1    1    6    6    0  503  0.91105148726E+02 -0.11943129030E+03 -0.13503624689E+03  0.20198705206E+03  0.00000000000E+00 0.  1.
<mgrwt>
<rscale>  0 0.21554898E+04</rscale>
<asrwt>0</asrwt>
<pdfrwt beam="1">  1        1 0.51559023E+00 0.21554898E+04</pdfrwt>
<pdfrwt beam="2">  1       -1 0.53321277E-01 0.21554898E+04</pdfrwt>
<totfact> 0.10618583E+00</totfact>
</mgrwt>
</event>
<event>
12    2  0.3561489E-008  0.2504332E+04  0.7818608E-02  0.8401444E-01
          2   -1    0    0  501    0  0.00000000000E+00  0.00000000000E+00  0.91910419160E+03  0.91910419160E+03  0.00000000000E+00 0. -1.
         -2   -1    0    0    0  501 -0.00000000000E+00 -0.00000000000E+00 -0.17059220077E+04  0.17059220077E+04  0.00000000000E+00 0.  1.
         23    2    1    2    0    0  0.10363765817E+04  0.11635958956E+03 -0.88389497337E+01  0.10467858762E+04  0.89814088280E+02 0.  0.
        254    2    1    2    0    0 -0.10363765817E+04 -0.11635958956E+03 -0.77797886635E+03  0.15782403231E+04  0.89329470380E+03 0.  0.
         23    2    4    4    0    0 -0.10396119402E+03  0.65736115878E+02  0.17277100478E+03  0.23098300569E+03  0.91510447677E+02 0.  0.
         23    2    4    4    0    0 -0.93241538765E+03 -0.18209570544E+03 -0.95074987113E+03  0.13472573174E+04  0.92842128254E+02 0.  0.
          3    1    3    3  502    0  0.10321338260E+04  0.10974742630E+03 -0.12704805425E+02  0.10380299343E+04  0.00000000000E+00 0. -1.
         -3    1    3    3    0  502  0.42427556425E+01  0.66121632546E+01  0.38658556913E+01  0.87559419010E+01  0.00000000000E+00 0.  1.
         11    1    5    5    0    0 -0.99025669783E+02  0.35645799744E+02  0.76809878113E+02  0.13029375922E+03  0.00000000000E+00 0.  1.
        -11    1    5    5    0    0 -0.49355242323E+01  0.30090316134E+02  0.95961126664E+02  0.10068924647E+03  0.00000000000E+00 0. -1.
          3    1    6    6  503    0 -0.40274710203E+03 -0.35860243480E+02 -0.37709821222E+03  0.55289623521E+03  0.00000000000E+00 0. -1.
         -3    1    6    6    0  503 -0.52966828562E+03 -0.14623546196E+03 -0.57365165891E+03  0.79436108219E+03  0.00000000000E+00 0.  1.
<mgrwt>
<rscale>  0 0.25043323E+04</rscale>
<asrwt>0</asrwt>
<pdfrwt beam="1">  1        2 0.14140065E+00 0.25043323E+04</pdfrwt>
<pdfrwt beam="2">  1       -2 0.26244954E+00 0.25043323E+04</pdfrwt>
<totfact> 0.13677943E+00</totfact>
</mgrwt>
</event>
<event>
12    2  0.3561489E-008  0.2005918E+04  0.7818608E-02  0.8603859E-01
          1   -1    0    0  501    0  0.00000000000E+00  0.00000000000E+00  0.11232135556E+04  0.11232135556E+04  0.00000000000E+00 0. -1.
         -1   -1    0    0    0  501 -0.00000000000E+00 -0.00000000000E+00 -0.89557964606E+03  0.89557964606E+03  0.00000000000E+00 0.  1.
         23    2    1    2    0    0 -0.40330796211E+03  0.21934662433E+03 -0.56750899229E+03  0.73589343882E+03  0.93286885859E+02 0.  0.
        254    2    1    2    0    0  0.40330796211E+03 -0.21934662433E+03  0.79514290186E+03  0.12828997629E+04  0.89599626857E+03 0.  0.
         23    2    4    4    0    0 -0.26272735338E+03 -0.60584182277E+02  0.96230622356E+02  0.30070500104E+03  0.92016626865E+02 0.  0.
         23    2    4    4    0    0  0.66603531549E+03 -0.15876244205E+03  0.69891227950E+03  0.98219476182E+03  0.86137223269E+02 0.  0.
          4    1    3    3  502    0  0.10147750566E+01  0.46788720849E+01  0.20175678573E+01  0.51954010876E+01  0.00000000000E+00 0. -1.
         -4    1    3    3    0  502 -0.40432273717E+03  0.21466775225E+03 -0.56952656014E+03  0.73069803774E+03  0.00000000000E+00 0.  1.
         11    1    5    5    0    0  0.69661672265E+01  0.33355452696E+01  0.23806434154E+01  0.80821291220E+01  0.00000000000E+00 0. -1.
        -11    1    5    5    0    0 -0.26969352060E+03 -0.63919727546E+02  0.93849978941E+02  0.29262287192E+03  0.00000000000E+00 0.  1.
          3    1    6    6  503    0  0.30337173356E+02 -0.26483484183E+02  0.32415453985E+02  0.51696041229E+02  0.00000000000E+00 0. -1.
         -3    1    6    6    0  503  0.63569814213E+03 -0.13227895787E+03  0.66649682552E+03  0.93049872060E+03  0.00000000000E+00 0.  1.
<mgrwt>
<rscale>  0 0.20059184E+04</rscale>
<asrwt>0</asrwt>
<pdfrwt beam="1">  1        1 0.17280209E+00 0.20059184E+04</pdfrwt>
<pdfrwt beam="2">  1       -1 0.13778148E+00 0.20059184E+04</pdfrwt>
<totfact> 0.49354817E+00</totfact>
</mgrwt>
</event>
<event>
12    2  0.3561489E-008  0.1300171E+04  0.7818608E-02  0.9029429E-01
         -2   -1    0    0    0  501 -0.00000000000E+00  0.00000000000E+00  0.13147036201E+03  0.13147036201E+03  0.00000000000E+00 0. -1.
          2   -1    0    0  501    0  0.00000000000E+00 -0.00000000000E+00 -0.32144982994E+04  0.32144982994E+04  0.00000000000E+00 0.  1.
         23    2    1    2    0    0 -0.29103208885E+03  0.15916492152E+03 -0.83772395756E+03  0.90492755584E+03  0.84138595569E+02 0.  0.
        254    2    1    2    0    0  0.29103208885E+03 -0.15916492152E+03 -0.22453039798E+04  0.24410411056E+04  0.89847569151E+03 0.  0.
         23    2    4    4    0    0  0.52667944206E+03  0.15236502336E+03 -0.13506852122E+04  0.14606260881E+04  0.92041794611E+02 0.  0.
         23    2    4    4    0    0 -0.23564735321E+03 -0.31152994488E+03 -0.89461876765E+03  0.98041501741E+03  0.91051003865E+02 0.  0.
          3    1    3    3  502    0 -0.97898871846E+02  0.42901482826E+02 -0.17660075957E+03  0.20642808583E+03  0.00000000000E+00 0. -1.
         -3    1    3    3    0  502 -0.19313321700E+03  0.11626343870E+03 -0.66112319799E+03  0.69849947002E+03  0.00000000000E+00 0.  1.
         11    1    5    5    0    0  0.68083086632E+02  0.28435152647E+02 -0.27477701197E+03  0.28451058134E+03  0.00000000000E+00 0.  1.
        -11    1    5    5    0    0  0.45859635543E+03  0.12392987071E+03 -0.10759082002E+04  0.11761155068E+04  0.00000000000E+00 0. -1.
          3    1    6    6  503    0 -0.15081319345E+03 -0.13273678043E+03 -0.39843602540E+03  0.44622296952E+03  0.00000000000E+00 0. -1.
         -3    1    6    6    0  503 -0.84834159758E+02 -0.17879316445E+03 -0.49618274225E+03  0.53419204789E+03  0.00000000000E+00 0.  1.
<mgrwt>
<rscale>  0 0.13001712E+04</rscale>
<asrwt>0</asrwt>
<pdfrwt beam="1">  1        2 0.49453818E+00 0.13001712E+04</pdfrwt>
<pdfrwt beam="2">  1       -2 0.20226210E-01 0.13001712E+04</pdfrwt>
<totfact> 0.26457763E+01</totfact>
</mgrwt>
</event>
<event>
12    2  0.3561489E-008  0.1292470E+04  0.7818608E-02  0.9035558E-01
          1   -1    0    0  501    0  0.00000000000E+00  0.00000000000E+00  0.53759257870E+03  0.53759257870E+03  0.00000000000E+00 0. -1.
         -1   -1    0    0    0  501 -0.00000000000E+00 -0.00000000000E+00 -0.77683302314E+03  0.77683302314E+03  0.00000000000E+00 0.  1.
         23    2    1    2    0    0  0.12034364945E+03  0.31661440517E+02  0.23976313241E+03  0.28492971153E+03  0.90628583088E+02 0.  0.
        254    2    1    2    0    0 -0.12034364945E+03 -0.31661440517E+02 -0.47900357685E+03  0.10294958903E+04  0.90273601942E+03 0.  0.
         23    2    4    4    0    0 -0.20170179739E+03 -0.27585266899E+03 -0.62562791650E+03  0.71878209635E+03  0.91973376978E+02 0.  0.
         23    2    4    4    0    0  0.81358147940E+02  0.24419122847E+03  0.14662433965E+03  0.31071379396E+03  0.93786248910E+02 0.  0.
          4    1    3    3  502    0  0.77278238320E+02 -0.22533094147E+02  0.16147968275E+03  0.18043102392E+03  0.00000000000E+00 0. -1.
         -4    1    3    3    0  502  0.43065411132E+02  0.54194534664E+02  0.78283449655E+02  0.10449868762E+03  0.00000000000E+00 0.  1.
         11    1    5    5    0    0 -0.10601435110E+03 -0.20286122942E+03 -0.35224203784E+03  0.42007877150E+03  0.00000000000E+00 0. -1.
        -11    1    5    5    0    0 -0.95687446287E+02 -0.72991439562E+02 -0.27338587866E+03  0.29870332485E+03  0.00000000000E+00 0.  1.
          4    1    6    6  503    0  0.12466091217E+02  0.17490643302E+03  0.82051382739E+02  0.19359776123E+03  0.00000000000E+00 0. -1.
         -4    1    6    6    0  503  0.68892056723E+02  0.69284795444E+02  0.64572956911E+02  0.11711603273E+03  0.00000000000E+00 0.  1.
<mgrwt>
<rscale>  0 0.12924700E+04</rscale>
<asrwt>0</asrwt>
<pdfrwt beam="1">  1        1 0.82706551E-01 0.12924700E+04</pdfrwt>
<pdfrwt beam="2">  1       -1 0.11951277E+00 0.12924700E+04</pdfrwt>
<totfact> 0.24634897E+01</totfact>
</mgrwt>
</event>
<event>
12    2  0.3561489E-008  0.2867942E+04  0.7818608E-02  0.8282480E-01
         -3   -1    0    0    0  501 -0.00000000000E+00  0.00000000000E+00  0.22547901752E+04  0.22547901752E+04  0.00000000000E+00 0.  1.
          3   -1    0    0  501    0  0.00000000000E+00 -0.00000000000E+00 -0.91195751928E+03  0.91195751928E+03  0.00000000000E+00 0. -1.
         23    2    1    2    0    0 -0.93729980504E+03 -0.68226034395E+03  0.12290201707E+04  0.16922426230E+04  0.95835346146E+02 0.  0.
        254    2    1    2    0    0  0.93729980504E+03  0.68226034395E+03  0.11381248522E+03  0.14745050715E+04  0.90399215850E+03 0.  0.
         23    2    4    4    0    0  0.81820623227E+03  0.74663104666E+03 -0.18975857524E+03  0.11276081070E+04  0.92587081381E+02 0.  0.
         23    2    4    4    0    0  0.11909357278E+03 -0.64370702709E+02  0.30357106046E+03  0.34689696455E+03  0.99273605859E+02 0.  0.
          3    1    3    3  502    0 -0.53821685099E+01 -0.97999321970E+01  0.24906791768E+01  0.11454688634E+02  0.00000000000E+00 0. -1.
         -3    1    3    3    0  502 -0.93191763653E+03 -0.67246041175E+03  0.12265294915E+04  0.16807879343E+04  0.00000000000E+00 0.  1.
         11    1    5    5    0    0  0.35596782624E+03  0.34615213446E+03 -0.41194355836E+02  0.49822822929E+03  0.00000000000E+00 0.  1.
        -11    1    5    5    0    0  0.46223840602E+03  0.40047891220E+03 -0.14856421940E+03  0.62937987766E+03  0.00000000000E+00 0. -1.
          1    1    6    6  503    0  0.22213435771E+02  0.26773854044E+02  0.58923596873E+02  0.68427087163E+02  0.00000000000E+00 0. -1.
         -1    1    6    6    0  503  0.96880137006E+02 -0.91144556752E+02  0.24464746359E+03  0.27846987739E+03  0.00000000000E+00 0.  1.
<mgrwt>
<rscale>  0 0.28679420E+04</rscale>
<asrwt>0</asrwt>
<pdfrwt beam="1">  1        3 0.14030116E+00 0.28679420E+04</pdfrwt>
<pdfrwt beam="2">  1       -3 0.34689079E+00 0.28679420E+04</pdfrwt>
<totfact> 0.17972827E-02</totfact>
</mgrwt>
</event>
<event>
12    2  0.3561489E-008  0.1435103E+04  0.7818608E-02  0.8928794E-01
         -1   -1    0    0    0  501 -0.00000000000E+00  0.00000000000E+00  0.40916729836E+03  0.40916729836E+03  0.00000000000E+00 0.  1.
          1   -1    0    0  501    0  0.00000000000E+00 -0.00000000000E+00 -0.12583601572E+04  0.12583601572E+04  0.00000000000E+00 0. -1.
         23    2    1    2    0    0 -0.85543734887E+02 -0.10037871686E+03  0.21566030574E+03  0.26882940649E+03  0.91467288924E+02 0.  0.
        254    2    1    2    0    0  0.85543734887E+02  0.10037871686E+03 -0.10648531646E+04  0.13986980491E+04  0.89724598244E+03 0.  0.
         23    2    4    4    0    0  0.25529490477E+03 -0.25551534811E+02 -0.11277217898E+04  0.11601751069E+04  0.91768590967E+02 0.  0.
         23    2    4    4    0    0 -0.16975116988E+03  0.12593025167E+03  0.62868625168E+02  0.23852294216E+03  0.90922175220E+02 0.  0.
          4    1    3    3  502    0 -0.13275139944E+02 -0.85429672607E+02  0.10891373306E+03  0.13905631791E+03  0.00000000000E+00 0. -1.
         -4    1    3    3    0  502 -0.72268594943E+02 -0.14949044253E+02  0.10674657268E+03  0.12977308858E+03  0.00000000000E+00 0.  1.
         11    1    5    5    0    0  0.52407248462E+02 -0.35418305877E+02 -0.17609526090E+03  0.18711097508E+03  0.00000000000E+00 0. -1.
        -11    1    5    5    0    0  0.20288765630E+03  0.98667710660E+01 -0.95162652886E+03  0.97306413185E+03  0.00000000000E+00 0.  1.
          4    1    6    6  503    0 -0.19955308500E+02  0.53566717886E+02 -0.79584319233E+01  0.57714333064E+02  0.00000000000E+00 0. -1.
         -4    1    6    6    0  503 -0.14979586138E+03  0.72363533785E+02  0.70827057092E+02  0.18080860910E+03  0.00000000000E+00 0.  1.
<mgrwt>
<rscale>  0 0.14351025E+04</rscale>
<asrwt>0</asrwt>
<pdfrwt beam="1">  1        1 0.19359387E+00 0.14351025E+04</pdfrwt>
<pdfrwt beam="2">  1       -1 0.62948816E-01 0.14351025E+04</pdfrwt>
<totfact> 0.24119765E+01</totfact>
</mgrwt>
</event>
<event>
12    2  0.3561489E-008  0.1987146E+04  0.7818608E-02  0.8612654E-01
         -2   -1    0    0    0  501 -0.00000000000E+00  0.00000000000E+00  0.99093482052E+03  0.99093482052E+03  0.00000000000E+00 0.  1.
          2   -1    0    0  501    0  0.00000000000E+00 -0.00000000000E+00 -0.99621820297E+03  0.99621820297E+03  0.00000000000E+00 0. -1.
         23    2    1    2    0    0 -0.56449389954E+03  0.94371944684E+01 -0.55123731985E+03  0.79411926757E+03  0.89556714282E+02 0.  0.
        254    2    1    2    0    0  0.56449389954E+03 -0.94371944684E+01  0.54595393740E+03  0.11930337559E+04  0.89806537499E+03 0.  0.
         23    2    4    4    0    0  0.65393643939E+03  0.28999598387E+03  0.46529317568E+03  0.85912775704E+03  0.99359076921E+02 0.  0.
         23    2    4    4    0    0 -0.89442539842E+02 -0.29943317834E+03  0.80660761719E+02  0.33390599888E+03  0.85597087470E+02 0.  0.
          2    1    3    3  502    0 -0.20894928971E+03 -0.11508133171E+02 -0.14917612281E+03  0.25699369334E+03  0.00000000000E+00 0. -1.
         -2    1    3    3    0  502 -0.35554460984E+03  0.20945327639E+02 -0.40206119703E+03  0.53712557423E+03  0.00000000000E+00 0.  1.
         11    1    5    5    0    0  0.62798700021E+03  0.28680891631E+03  0.46606362414E+03  0.83297198551E+03  0.00000000000E+00 0. -1.
        -11    1    5    5    0    0  0.25949439179E+02  0.31870675631E+01 -0.77044846253E+00  0.26155771527E+02  0.00000000000E+00 0.  1.
          4    1    6    6  503    0 -0.94609091295E+02 -0.29558771552E+03  0.65167510105E+02  0.31712739096E+03  0.00000000000E+00 0. -1.
         -4    1    6    6    0  503  0.51665514529E+01 -0.38454628170E+01  0.15493251614E+02  0.16778607921E+02  0.00000000000E+00 0.  1.
<mgrwt>
<rscale>  0 0.19871460E+04</rscale>
<asrwt>0</asrwt>
<pdfrwt beam="1">  1        2 0.15326434E+00 0.19871460E+04</pdfrwt>
<pdfrwt beam="2">  1       -2 0.15245151E+00 0.19871460E+04</pdfrwt>
<totfact> 0.67595172E+00</totfact>
</mgrwt>
</event>
<event>
12    2  0.3561489E-008  0.1922444E+04  0.7818608E-02  0.8643765E-01
          2   -1    0    0  501    0  0.00000000000E+00  0.00000000000E+00  0.85391374491E+03  0.85391374491E+03  0.00000000000E+00 0.  1.
         -2   -1    0    0    0  501 -0.00000000000E+00 -0.00000000000E+00 -0.10820152858E+04  0.10820152858E+04  0.00000000000E+00 0. -1.
         23    2    1    2    0    0 -0.67762895993E+03  0.28629741389E+03  0.28810675505E+02  0.74203819746E+03  0.92969967910E+02 0.  0.
        254    2    1    2    0    0  0.67762895993E+03 -0.28629741389E+03 -0.25691221642E+03  0.11938908333E+04  0.90455747098E+03 0.  0.
         23    2    4    4    0    0  0.45797238649E+03  0.27889837580E+03 -0.19570861458E+03  0.57766371546E+03  0.88715813307E+02 0.  0.
         23    2    4    4    0    0  0.21965657344E+03 -0.56519578969E+03 -0.61203601839E+02  0.61622711782E+03  0.91075182780E+02 0.  0.
          1    1    3    3  502    0 -0.25169558189E+03  0.15561118466E+03  0.80864541395E+01  0.29602516359E+03  0.00000000000E+00 0. -1.
         -1    1    3    3    0  502 -0.42593337803E+03  0.13068622924E+03  0.20724221365E+02  0.44601303388E+03  0.00000000000E+00 0.  1.
         11    1    5    5    0    0  0.71928373951E+02  0.85469496340E+02 -0.39908735376E+02  0.11862307087E+03  0.00000000000E+00 0.  1.
        -11    1    5    5    0    0  0.38604401254E+03  0.19342887946E+03 -0.15579987921E+03  0.45904064459E+03  0.00000000000E+00 0. -1.
          3    1    6    6  503    0  0.43755984048E+02 -0.21013555011E+03 -0.47005392439E+02  0.21972947567E+03  0.00000000000E+00 0. -1.
         -3    1    6    6    0  503  0.17590058939E+03 -0.35506023958E+03 -0.14198209400E+02  0.39649764215E+03  0.00000000000E+00 0.  1.
<mgrwt>
<rscale>  0 0.19224440E+04</rscale>
<asrwt>0</asrwt>
<pdfrwt beam="1">  1        2 0.13137135E+00 0.19224440E+04</pdfrwt>
<pdfrwt beam="2">  1       -2 0.16646389E+00 0.19224440E+04</pdfrwt>
<totfact> 0.66594586E+00</totfact>
</mgrwt>
</event>
<event>
12    2  0.3561489E-008  0.1398611E+04  0.7818608E-02  0.8954824E-01
         -2   -1    0    0    0  501 -0.00000000000E+00  0.00000000000E+00  0.25132100728E+03  0.25132100728E+03  0.00000000000E+00 0.  1.
          2   -1    0    0  501    0  0.00000000000E+00 -0.00000000000E+00 -0.19458319619E+04  0.19458319619E+04  0.00000000000E+00 0. -1.
         23    2    1    2    0    0  0.26852839487E+03  0.27402102592E+03 -0.31043927696E+03  0.50170358573E+03  0.90215972855E+02 0.  0.
        254    2    1    2    0    0 -0.26852839487E+03 -0.27402102592E+03 -0.13840716777E+04  0.16954493835E+04  0.90094349518E+03 0.  0.
         23    2    4    4    0    0 -0.22691364997E+03  0.26158212551E+03 -0.25096220596E+03  0.43815369773E+03  0.95297539774E+02 0.  0.
         23    2    4    4    0    0 -0.41614744893E+02 -0.53560315143E+03 -0.11331094717E+04  0.12572956858E+04  0.90845163203E+02 0.  0.
          4    1    3    3  502    0  0.13360258174E+03  0.16547404573E+03 -0.11956400704E+03  0.24398127272E+03  0.00000000000E+00 0. -1.
         -4    1    3    3    0  502  0.13492581312E+03  0.10854698019E+03 -0.19087526992E+03  0.25772231301E+03  0.00000000000E+00 0.  1.
         11    1    5    5    0    0 -0.66024256076E+02  0.81753759616E+02 -0.13318029683E+03  0.16964631168E+03  0.00000000000E+00 0.  1.
        -11    1    5    5    0    0 -0.16088939390E+03  0.17982836590E+03 -0.11778190913E+03  0.26850738606E+03  0.00000000000E+00 0. -1.
          3    1    6    6  503    0 -0.65036875538E+02 -0.33497823326E+03 -0.66403446741E+03  0.74658019385E+03  0.00000000000E+00 0. -1.
         -3    1    6    6    0  503  0.23422130645E+02 -0.20062491817E+03 -0.46907500433E+03  0.51071549191E+03  0.00000000000E+00 0.  1.
<mgrwt>
<rscale>  0 0.13986114E+04</rscale>
<asrwt>0</asrwt>
<pdfrwt beam="1">  1        2 0.29935877E+00 0.13986114E+04</pdfrwt>
<pdfrwt beam="2">  1       -2 0.38664770E-01 0.13986114E+04</pdfrwt>
<totfact> 0.44073523E+01</totfact>
</mgrwt>
</event>
<event>
12    2  0.3561489E-008  0.1191181E+04  0.7818608E-02  0.9120611E-01
          2   -1    0    0  501    0  0.00000000000E+00  0.00000000000E+00  0.12452744674E+04  0.12452744674E+04  0.00000000000E+00 0. -1.
         -2   -1    0    0    0  501 -0.00000000000E+00 -0.00000000000E+00 -0.28485925393E+03  0.28485925393E+03  0.00000000000E+00 0.  1.
         23    2    1    2    0    0  0.13058681031E+03 -0.84024888400E+02  0.67201459530E+02  0.19241231832E+03  0.91615321749E+02 0.  0.
        254    2    1    2    0    0 -0.13058681031E+03  0.84024888400E+02  0.89321375393E+03  0.13377214030E+04  0.98364355584E+03 0.  0.
         23    2    4    4    0    0  0.24464972055E+03  0.12646893324E+03  0.90395882470E+03  0.94905994390E+03  0.87893933384E+02 0.  0.
         23    2    4    4    0    0 -0.37523653086E+03 -0.42444044843E+02 -0.10745070772E+02  0.38866145910E+03  0.91314414035E+02 0.  0.
          1    1    3    3  502    0  0.61116878267E+02 -0.80260538532E+02  0.69992893632E+02  0.12278449419E+03  0.00000000000E+00 0. -1.
         -1    1    3    3    0  502  0.69469932045E+02 -0.37643498676E+01 -0.27914341028E+01  0.69627824127E+02  0.00000000000E+00 0.  1.
         11    1    5    5    0    0  0.16603841650E+02 -0.13549608286E+02  0.62162083366E+02  0.65752597292E+02  0.00000000000E+00 0.  1.
        -11    1    5    5    0    0  0.22804587890E+03  0.14001854153E+03  0.84179674134E+03  0.88330734661E+03  0.00000000000E+00 0. -1.
          3    1    6    6  503    0 -0.20369591630E+03 -0.17778664696E+02  0.39434297352E+02  0.20823825547E+03  0.00000000000E+00 0. -1.
         -3    1    6    6    0  503 -0.17154061456E+03 -0.24665380147E+02 -0.50179368124E+02  0.18042320363E+03  0.00000000000E+00 0.  1.
<mgrwt>
<rscale>  0 0.11911809E+04</rscale>
<asrwt>0</asrwt>
<pdfrwt beam="1">  1        2 0.19158068E+00 0.11911809E+04</pdfrwt>
<pdfrwt beam="2">  1       -2 0.43824502E-01 0.11911809E+04</pdfrwt>
<totfact> 0.86735622E+01</totfact>
</mgrwt>
</event>
<event>
12    2  0.3561489E-008  0.1214067E+04  0.7818608E-02  0.9100632E-01
          1   -1    0    0  501    0  0.00000000000E+00  0.00000000000E+00  0.12358651719E+04  0.12358651719E+04  0.00000000000E+00 0. -1.
         -1   -1    0    0    0  501 -0.00000000000E+00 -0.00000000000E+00 -0.29816350133E+03  0.29816350133E+03  0.00000000000E+00 0.  1.
         23    2    1    2    0    0 -0.65641245887E+02  0.25229473240E+03  0.18873726600E+03  0.33910626603E+03  0.10681712844E+03 0.  0.
        254    2    1    2    0    0  0.65641245887E+02 -0.25229473240E+03  0.74896440455E+03  0.11949224072E+04  0.89382910823E+03 0.  0.
         23    2    4    4    0    0  0.69381315180E+02  0.29359620106E+03  0.49147307012E+03  0.58433379696E+03  0.94274659587E+02 0.  0.
         23    2    4    4    0    0 -0.37400692938E+01 -0.54589093346E+03  0.25749133443E+03  0.61058861021E+03  0.92226700377E+02 0.  0.
          3    1    3    3  502    0 -0.11537610318E+02  0.10158037615E+03  0.13676448376E+03  0.17075190567E+03  0.00000000000E+00 0. -1.
         -3    1    3    3    0  502 -0.54103635569E+02  0.15071435625E+03  0.51972782239E+02  0.16835436037E+03  0.00000000000E+00 0.  1.
         11    1    5    5    0    0  0.96744969606E+01  0.21889763475E+03  0.36598668999E+03  0.42656304064E+03  0.00000000000E+00 0.  1.
        -11    1    5    5    0    0  0.59706818220E+02  0.74698566312E+02  0.12548638013E+03  0.15777075632E+03  0.00000000000E+00 0. -1.
          4    1    6    6  503    0 -0.10968512236E+02 -0.17603584287E+02  0.27294832879E+02  0.34281224341E+02  0.00000000000E+00 0. -1.
         -4    1    6    6    0  503  0.72284429425E+01 -0.52828734917E+03  0.23019650155E+03  0.57630738587E+03  0.00000000000E+00 0.  1.
<mgrwt>
<rscale>  0 0.12140674E+04</rscale>
<asrwt>0</asrwt>
<pdfrwt beam="1">  1        1 0.19013310E+00 0.12140674E+04</pdfrwt>
<pdfrwt beam="2">  1       -1 0.45871309E-01 0.12140674E+04</pdfrwt>
<totfact> 0.46982680E+01</totfact>
</mgrwt>
</event>
<event>
12    2  0.3561489E-008  0.1196565E+04  0.7818608E-02  0.9115868E-01
          2   -1    0    0  501    0  0.00000000000E+00  0.00000000000E+00  0.78614587906E+03  0.78614587906E+03  0.00000000000E+00 0. -1.
         -2   -1    0    0    0  501 -0.00000000000E+00 -0.00000000000E+00 -0.45531267916E+03  0.45531267916E+03  0.00000000000E+00 0.  1.
         23    2    1    2    0    0  0.18102854672E+03 -0.16803025771E+03  0.95033744923E+01  0.26301142108E+03  0.89884321520E+02 0.  0.
        254    2    1    2    0    0 -0.18102854672E+03  0.16803025771E+03  0.32132982541E+03  0.97844713715E+03  0.89056186830E+03 0.  0.
         23    2    4    4    0    0 -0.20138328668E+03 -0.33395831727E+03  0.55596630388E+02  0.40314549863E+03  0.85743349180E+02 0.  0.
         23    2    4    4    0    0  0.20354739954E+02  0.50198857498E+03  0.26573319502E+03  0.57530163852E+03  0.89168377230E+02 0.  0.
          4    1    3    3  502    0  0.66701014194E+02 -0.85924888147E+02  0.45211552954E+02  0.11779726745E+03  0.00000000000E+00 0. -1.
         -4    1    3    3    0  502  0.11432753253E+03 -0.82105369567E+02 -0.35708178461E+02  0.14521415363E+03  0.00000000000E+00 0.  1.
         11    1    5    5    0    0 -0.11495159427E+03 -0.26453344951E+03  0.39561193391E+02  0.29113038824E+03  0.00000000000E+00 0. -1.
        -11    1    5    5    0    0 -0.86431692406E+02 -0.69424867760E+02  0.16035436997E+02  0.11201511039E+03  0.00000000000E+00 0.  1.
          1    1    6    6  503    0 -0.28531488985E+02  0.26505914961E+03  0.16299052192E+03  0.31246809260E+03  0.00000000000E+00 0. -1.
         -1    1    6    6    0  503  0.48886228938E+02  0.23692942537E+03  0.10274267310E+03  0.26283354592E+03  0.00000000000E+00 0.  1.
<mgrwt>
<rscale>  0 0.11965654E+04</rscale>
<asrwt>0</asrwt>
<pdfrwt beam="1">  1        2 0.12094552E+00 0.11965654E+04</pdfrwt>
<pdfrwt beam="2">  1       -2 0.70048104E-01 0.11965654E+04</pdfrwt>
<totfact> 0.64614016E+01</totfact>
</mgrwt>
</event>
<event>
12    2  0.3561489E-008  0.1293984E+04  0.7818608E-02  0.9034350E-01
          2   -1    0    0  501    0  0.00000000000E+00  0.00000000000E+00  0.14882734035E+04  0.14882734035E+04  0.00000000000E+00 0.  1.
         -2   -1    0    0    0  501 -0.00000000000E+00 -0.00000000000E+00 -0.28126461524E+03  0.28126461524E+03  0.00000000000E+00 0. -1.
         23    2    1    2    0    0 -0.27808567840E+03  0.14469272307E+03  0.41530055046E+03  0.52735826559E+03  0.85817040466E+02 0.  0.
        254    2    1    2    0    0  0.27808567840E+03 -0.14469272307E+03  0.79170823783E+03  0.12421797532E+04  0.90440089381E+03 0.  0.
         23    2    4    4    0    0  0.62475192756E+02  0.26527715615E+03 -0.35845359781E+02  0.28972197422E+03  0.91535857691E+02 0.  0.
         23    2    4    4    0    0  0.21561048564E+03 -0.40996987922E+03  0.82755359761E+03  0.95245777896E+03  0.88134444972E+02 0.  0.
          3    1    3    3  502    0 -0.90278527075E+02  0.28645165295E+02  0.18789461549E+03  0.21041659744E+03  0.00000000000E+00 0. -1.
         -3    1    3    3    0  502 -0.18780715132E+03  0.11604755777E+03  0.22740593497E+03  0.31694166815E+03  0.00000000000E+00 0.  1.
         11    1    5    5    0    0  0.73091230887E+02  0.26308299135E+03 -0.43446037944E+02  0.27648245258E+03  0.00000000000E+00 0.  1.
        -11    1    5    5    0    0 -0.10616038131E+02  0.21941647996E+01  0.76006781633E+01  0.13239521642E+02  0.00000000000E+00 0. -1.
          4    1    6    6  503    0  0.42567282220E+02 -0.43657862534E+02  0.66036605390E+02  0.89882232549E+02  0.00000000000E+00 0. -1.
         -4    1    6    6    0  503  0.17304320342E+03 -0.36631201669E+03  0.76151699222E+03  0.86257554641E+03  0.00000000000E+00 0.  1.
<mgrwt>
<rscale>  0 0.12939840E+04</rscale>
<asrwt>0</asrwt>
<pdfrwt beam="1">  1        2 0.22896514E+00 0.12939840E+04</pdfrwt>
<pdfrwt beam="2">  1       -2 0.43271480E-01 0.12939840E+04</pdfrwt>
<totfact> 0.63977710E+01</totfact>
</mgrwt>
</event>
<event>
12    2  0.3561489E-008  0.1738546E+04  0.7818608E-02  0.8739680E-01
         -2   -1    0    0    0  501 -0.00000000000E+00  0.00000000000E+00  0.90708440765E+03  0.90708440765E+03  0.00000000000E+00 0.  1.
          2   -1    0    0  501    0  0.00000000000E+00 -0.00000000000E+00 -0.83303797602E+03  0.83303797602E+03  0.00000000000E+00 0. -1.
         23    2    1    2    0    0  0.11745408637E+03 -0.62798866018E+03 -0.46883083269E+02  0.64620332619E+03  0.84944073149E+02 0.  0.
        254    2    1    2    0    0 -0.11745408637E+03  0.62798866018E+03  0.12092951490E+03  0.10939190575E+04  0.87969866263E+03 0.  0.
         23    2    4    4    0    0 -0.34493665724E+03 -0.74182951897E+01  0.19530531221E+03  0.40893933907E+03  0.10025412438E+03 0.  0.
         23    2    4    4    0    0  0.22748257087E+03  0.63540695537E+03 -0.74375797311E+02  0.68497971841E+03  0.90416461052E+02 0.  0.
          4    1    3    3  502    0 -0.16013004593E+01 -0.10125202164E+02 -0.12317884138E+02  0.16025422043E+02  0.00000000000E+00 0. -1.
         -4    1    3    3    0  502  0.11905538683E+03 -0.61786345802E+03 -0.34565199131E+02  0.63017790415E+03  0.00000000000E+00 0.  1.
         11    1    5    5    0    0 -0.27774955565E+03  0.41662362279E+00  0.10687008277E+03  0.29760074568E+03  0.00000000000E+00 0.  1.
        -11    1    5    5    0    0 -0.67187101589E+02 -0.78349188125E+01  0.88435229441E+02  0.11133859339E+03  0.00000000000E+00 0. -1.
          1    1    6    6  503    0  0.12723971356E+03  0.25311214297E+03 -0.59533845173E+02  0.28948226258E+03  0.00000000000E+00 0. -1.
         -1    1    6    6    0  503  0.10024285731E+03  0.38229481240E+03 -0.14841952138E+02  0.39549745583E+03  0.00000000000E+00 0.  1.
<mgrwt>
<rscale>  0 0.17385462E+04</rscale>
<asrwt>0</asrwt>
<pdfrwt beam="1">  1        2 0.12815969E+00 0.17385462E+04</pdfrwt>
<pdfrwt beam="2">  1       -2 0.13955145E+00 0.17385462E+04</pdfrwt>
<totfact> 0.11205531E+01</totfact>
</mgrwt>
</event>
<event>
12    2  0.3561489E-008  0.1678222E+04  0.7818608E-02  0.8773883E-01
         -2   -1    0    0    0  501 -0.00000000000E+00  0.00000000000E+00  0.36711223628E+03  0.36711223628E+03  0.00000000000E+00 0.  1.
          2   -1    0    0  501    0  0.00000000000E+00 -0.00000000000E+00 -0.19179621189E+04  0.19179621189E+04  0.00000000000E+00 0. -1.
         23    2    1    2    0    0  0.55923338731E+03 -0.11901124155E+03 -0.39183472852E+03  0.70053759972E+03  0.10155204109E+03 0.  0.
        254    2    1    2    0    0 -0.55923338731E+03  0.11901124155E+03 -0.11590151541E+04  0.15845367555E+04  0.91680692890E+03 0.  0.
         23    2    4    4    0    0 -0.68406474445E+03 -0.19969268271E+03 -0.67656017753E+03  0.98606913558E+03  0.82322075937E+02 0.  0.
         23    2    4    4    0    0  0.12483135714E+03  0.31870392426E+03 -0.48245497660E+03  0.59846761991E+03  0.90805443492E+02 0.  0.
          3    1    3    3  502    0  0.23491583453E+03 -0.69959652524E+02 -0.11245751312E+03  0.26967850220E+03  0.00000000000E+00 0. -1.
         -3    1    3    3    0  502  0.32431755278E+03 -0.49051589028E+02 -0.27937721540E+03  0.43085909752E+03  0.00000000000E+00 0.  1.
         11    1    5    5    0    0 -0.59589451210E+03 -0.17220452023E+03 -0.54735442386E+03  0.82724937695E+03  0.00000000000E+00 0.  1.
        -11    1    5    5    0    0 -0.88170232349E+02 -0.27488162481E+02 -0.12920575368E+03  0.15881975863E+03  0.00000000000E+00 0. -1.
          3    1    6    6  503    0 -0.13720726856E+02  0.25973387103E+02 -0.29404936855E+02  0.41563511576E+02  0.00000000000E+00 0. -1.
         -3    1    6    6    0  503  0.13855208400E+03  0.29273053716E+03 -0.45305003974E+03  0.55690410833E+03  0.00000000000E+00 0.  1.
<mgrwt>
<rscale>  0 0.16782221E+04</rscale>
<asrwt>0</asrwt>
<pdfrwt beam="1">  1        2 0.29507110E+00 0.16782221E+04</pdfrwt>
<pdfrwt beam="2">  1       -2 0.56478805E-01 0.16782221E+04</pdfrwt>
<totfact> 0.20806957E+01</totfact>
</mgrwt>
</event>
<event>
12    2  0.3561489E-008  0.2083772E+04  0.7818608E-02  0.8568426E-01
          1   -1    0    0  501    0  0.00000000000E+00  0.00000000000E+00  0.14498151372E+04  0.14498151372E+04  0.00000000000E+00 0. -1.
         -1   -1    0    0    0  501 -0.00000000000E+00 -0.00000000000E+00 -0.74873412587E+03  0.74873412587E+03  0.00000000000E+00 0.  1.
         23    2    1    2    0    0  0.13490307515E+03  0.59726166977E+03 -0.32616627827E+03  0.69973932251E+03  0.91270677229E+02 0.  0.
        254    2    1    2    0    0 -0.13490307515E+03 -0.59726166977E+03  0.10272472896E+04  0.14988099405E+04  0.90347877786E+03 0.  0.
         23    2    4    4    0    0 -0.23309284892E+03 -0.59653593005E+03  0.11476358158E+04  0.13173879041E+04  0.90859959274E+02 0.  0.
         23    2    4    4    0    0  0.98189773769E+02 -0.72573971344E+00 -0.12038852621E+03  0.18142203641E+03  0.93695248985E+02 0.  0.
          1    1    3    3  502    0  0.18087375234E+02  0.24578949577E+03 -0.15970362310E+03  0.29367478033E+03  0.00000000000E+00 0. -1.
         -1    1    3    3    0  502  0.11681569992E+03  0.35147217400E+03 -0.16646265517E+03  0.40606454217E+03  0.00000000000E+00 0.  1.
         11    1    5    5    0    0 -0.16167197542E+03 -0.32109147338E+03  0.57896017332E+03  0.68149280568E+03  0.00000000000E+00 0. -1.
        -11    1    5    5    0    0 -0.71420873503E+02 -0.27544445668E+03  0.56867564246E+03  0.63589509843E+03  0.00000000000E+00 0.  1.
          2    1    6    6  503    0  0.11486647077E+03 -0.11887122215E+02 -0.99177946629E+02  0.15222310889E+03  0.00000000000E+00 0. -1.
         -2    1    6    6    0  503 -0.16676697005E+02  0.11161382502E+02 -0.21210579578E+02  0.29198927521E+02  0.00000000000E+00 0.  1.
<mgrwt>
<rscale>  0 0.20837716E+04</rscale>
<asrwt>0</asrwt>
<pdfrwt beam="1">  1        1 0.22304848E+00 0.20837716E+04</pdfrwt>
<pdfrwt beam="2">  1       -1 0.11518987E+00 0.20837716E+04</pdfrwt>
<totfact> 0.44640028E+00</totfact>
</mgrwt>
</event>
<event>
12    2  0.3561489E-008  0.2453129E+04  0.7818608E-02  0.8419876E-01
         -1   -1    0    0    0  501 -0.00000000000E+00  0.00000000000E+00  0.10326873621E+04  0.10326873621E+04  0.00000000000E+00 0.  1.
          1   -1    0    0  501    0  0.00000000000E+00 -0.00000000000E+00 -0.14568403047E+04  0.14568403047E+04  0.00000000000E+00 0. -1.
         23    2    1    2    0    0  0.46508469614E+03  0.80192667694E+03  0.33394497277E+03  0.98932489878E+03  0.88624718510E+02 0.  0.
        254    2    1    2    0    0 -0.46508469614E+03 -0.80192667694E+03 -0.75809791544E+03  0.15002027681E+04  0.90360706400E+03 0.  0.
         23    2    4    4    0    0  0.15603979977E+03 -0.51300386464E+02  0.86945402654E+02  0.20767002609E+03  0.92667081163E+02 0.  0.
         23    2    4    4    0    0 -0.62112449591E+03 -0.75062629047E+03 -0.84504331810E+03  0.12925327420E+04  0.85482233318E+02 0.  0.
          2    1    3    3  502    0  0.41543520964E+03  0.65323038405E+03  0.28779235971E+03  0.82590604209E+03  0.00000000000E+00 0.  1.
         -2    1    3    3    0  502  0.49649486503E+02  0.14869629289E+03  0.46152613065E+02  0.16341885669E+03  0.00000000000E+00 0. -1.
         11    1    5    5    0    0  0.77147475619E+02 -0.50854770221E+02  0.89630725346E+02  0.12873075613E+03  0.00000000000E+00 0. -1.
        -11    1    5    5    0    0  0.78892324152E+02 -0.44561624317E+00 -0.26853226919E+01  0.78939269961E+02  0.00000000000E+00 0.  1.
          2    1    6    6  503    0 -0.50425442050E+03 -0.65723334525E+03 -0.71161252493E+03  0.10920716901E+04  0.00000000000E+00 0. -1.
         -2    1    6    6    0  503 -0.11687007541E+03 -0.93392945219E+02 -0.13343079317E+03  0.20046105185E+03  0.00000000000E+00 0.  1.
<mgrwt>
<rscale>  0 0.24531291E+04</rscale>
<asrwt>0</asrwt>
<pdfrwt beam="1">  1        1 0.22412928E+00 0.24531291E+04</pdfrwt>
<pdfrwt beam="2">  1       -1 0.15887498E+00 0.24531291E+04</pdfrwt>
<totfact> 0.18637983E+00</totfact>
</mgrwt>
</event>
<event>
12    2  0.3561489E-008  0.1936649E+04  0.7818608E-02  0.8636826E-01
          1   -1    0    0  501    0  0.00000000000E+00  0.00000000000E+00  0.28885790384E+04  0.28885790384E+04  0.00000000000E+00 0. -1.
         -1   -1    0    0    0  501 -0.00000000000E+00 -0.00000000000E+00 -0.32460692690E+03  0.32460692690E+03  0.00000000000E+00 0.  1.
         23    2    1    2    0    0 -0.63128414039E+03 -0.15568717870E+03  0.37556402395E+03  0.75631509278E+03  0.90587084958E+02 0.  0.
        254    2    1    2    0    0  0.63128414039E+03  0.15568717870E+03  0.21884080875E+04  0.24568708725E+04  0.90792420557E+03 0.  0.
         23    2    4    4    0    0  0.41296168050E+02  0.66048110125E+01 -0.64864278880E+02  0.12087345971E+03  0.93026993734E+02 0.  0.
         23    2    4    4    0    0  0.58998797234E+03  0.14908236769E+03  0.22532723664E+04  0.23359974128E+04  0.96623990236E+02 0.  0.
          3    1    3    3  502    0 -0.28739558644E+03 -0.81638420547E+02  0.22335673527E+03  0.37302719205E+03  0.00000000000E+00 0. -1.
         -3    1    3    3    0  502 -0.34388855395E+03 -0.74048758157E+02  0.15220728868E+03  0.38328790073E+03  0.00000000000E+00 0.  1.
         11    1    5    5    0    0  0.29168116990E+02  0.93057480912E+01 -0.88786387360E+02  0.93916977042E+02  0.00000000000E+00 0. -1.
        -11    1    5    5    0    0  0.12128051059E+02 -0.27009370787E+01  0.23922108480E+02  0.26956482666E+02  0.00000000000E+00 0.  1.
          1    1    6    6  503    0  0.52019758189E+03  0.98925925886E+02  0.18984185778E+04  0.19708843090E+04  0.00000000000E+00 0. -1.
         -1    1    6    6    0  503  0.69790390443E+02  0.50156441806E+02  0.35485378862E+03  0.36511310378E+03  0.00000000000E+00 0.  1.
<mgrwt>
<rscale>  0 0.19366494E+04</rscale>
<asrwt>0</asrwt>
<pdfrwt beam="1">  1        1 0.44439676E+00 0.19366494E+04</pdfrwt>
<pdfrwt beam="2">  1       -1 0.49939529E-01 0.19366494E+04</pdfrwt>
<totfact> 0.27066257E+00</totfact>
</mgrwt>
</event>
<event>
12    2  0.3561489E-008  0.3339117E+04  0.7818608E-02  0.8153013E-01
         -2   -1    0    0    0  501 -0.00000000000E+00  0.00000000000E+00  0.78533710897E+03  0.78533710897E+03  0.00000000000E+00 0.  1.
          2   -1    0    0  501    0  0.00000000000E+00 -0.00000000000E+00 -0.35493355862E+04  0.35493355862E+04  0.00000000000E+00 0. -1.
         23    2    1    2    0    0  0.70471930594E+03  0.13731244455E+04 -0.13663896685E+04  0.20633347355E+04  0.90716380275E+02 0.  0.
        254    2    1    2    0    0 -0.70471930594E+03 -0.13731244455E+04 -0.13976088088E+04  0.22713379597E+04  0.90750520749E+03 0.  0.
         23    2    4    4    0    0 -0.49633793090E+03 -0.16550773065E+03 -0.62349250569E+03  0.81895988153E+03  0.90599295455E+02 0.  0.
         23    2    4    4    0    0 -0.20838137504E+03 -0.12076167149E+04 -0.77411630308E+03  0.14523780781E+04  0.91570211772E+02 0.  0.
          4    1    3    3  502    0  0.31892362474E+02  0.56943344369E+02 -0.84263108645E+02  0.10658301333E+03  0.00000000000E+00 0. -1.
         -4    1    3    3    0  502  0.67282694346E+03  0.13161811012E+04 -0.12821265599E+04  0.19567517222E+04  0.00000000000E+00 0.  1.
         11    1    5    5    0    0 -0.40028292315E+03 -0.94315281654E+02 -0.49199636389E+03  0.64123491250E+03  0.00000000000E+00 0. -1.
        -11    1    5    5    0    0 -0.96055007750E+02 -0.71192449001E+02 -0.13149614180E+03  0.17772496903E+03  0.00000000000E+00 0.  1.
          3    1    6    6  503    0 -0.19388092280E+03 -0.98256452114E+03 -0.66199580028E+03  0.12005254225E+04  0.00000000000E+00 0. -1.
         -3    1    6    6    0  503 -0.14500452238E+02 -0.22505219373E+03 -0.11212050280E+03  0.25185265566E+03  0.00000000000E+00 0.  1.
<mgrwt>
<rscale>  0 0.33391166E+04</rscale>
<asrwt>0</asrwt>
<pdfrwt beam="1">  1        2 0.54605162E+00 0.33391166E+04</pdfrwt>
<pdfrwt beam="2">  1       -2 0.12082110E+00 0.33391166E+04</pdfrwt>
<totfact> 0.32565646E-01</totfact>
</mgrwt>
</event>
<event>
12    2  0.3561489E-008  0.1468549E+04  0.7818608E-02  0.8905641E-01
         -2   -1    0    0    0  501 -0.00000000000E+00  0.00000000000E+00  0.71240776038E+03  0.71240776038E+03  0.00000000000E+00 0.  1.
          2   -1    0    0  501    0  0.00000000000E+00 -0.00000000000E+00 -0.75681206230E+03  0.75681206230E+03  0.00000000000E+00 0. -1.
         23    2    1    2    0    0 -0.24853571637E+03 -0.31223240147E+03  0.13688023612E+03  0.43171060085E+03  0.91535616053E+02 0.  0.
        254    2    1    2    0    0  0.24853571637E+03  0.31223240147E+03 -0.18128453804E+03  0.10375092218E+04  0.94037345072E+03 0.  0.
         23    2    4    4    0    0  0.25018611194E+03 -0.92821154118E+02  0.29229348044E+03  0.40700470198E+03  0.94913073180E+02 0.  0.
         23    2    4    4    0    0 -0.16503955753E+01  0.40505355559E+03 -0.47357801848E+03  0.63050451986E+03  0.95857724117E+02 0.  0.
          3    1    3    3  502    0 -0.24186090683E+02 -0.30120038576E+01 -0.36596682338E+01  0.24646142119E+02  0.00000000000E+00 0. -1.
         -3    1    3    3    0  502 -0.22434962568E+03 -0.30922039761E+03  0.14053990435E+03  0.40706445873E+03  0.00000000000E+00 0.  1.
         11    1    5    5    0    0  0.12092648529E+03 -0.45130694844E+02  0.73752296881E+02  0.14865865517E+03  0.00000000000E+00 0. -1.
        -11    1    5    5    0    0  0.12925962665E+03 -0.47690459274E+02  0.21854118356E+03  0.25834604681E+03  0.00000000000E+00 0.  1.
          1    1    6    6  503    0 -0.13700515200E+01  0.38436848049E+03 -0.47342980997E+03  0.60981701420E+03  0.00000000000E+00 0. -1.
         -1    1    6    6    0  503 -0.28034405531E+00  0.20685075100E+02 -0.14820850775E+00  0.20687505660E+02  0.00000000000E+00 0.  1.
<mgrwt>
<rscale>  0 0.14685487E+04</rscale>
<asrwt>0</asrwt>
<pdfrwt beam="1">  1        2 0.11643263E+00 0.14685487E+04</pdfrwt>
<pdfrwt beam="2">  1       -2 0.10960119E+00 0.14685487E+04</pdfrwt>
<totfact> 0.23792216E+01</totfact>
</mgrwt>
</event>
<event>
12    2  0.3561489E-008  0.1807942E+04  0.7818608E-02  0.8702087E-01
         -2   -1    0    0    0  501 -0.00000000000E+00  0.00000000000E+00  0.13158247445E+04  0.13158247445E+04  0.00000000000E+00 0.  1.
          2   -1    0    0  501    0  0.00000000000E+00 -0.00000000000E+00 -0.62102782131E+03  0.62102782131E+03  0.00000000000E+00 0. -1.
         23    2    1    2    0    0 -0.48022827252E+03  0.33094679574E+03 -0.50807754420E+02  0.59179037964E+03  0.86541609538E+02 0.  0.
        254    2    1    2    0    0  0.48022827252E+03 -0.33094679574E+03  0.74560467761E+03  0.13450621862E+04  0.95557363613E+03 0.  0.
         23    2    4    4    0    0  0.46862156265E+03 -0.56979320794E+03  0.79133223433E+03  0.10848477382E+04  0.80108933303E+02 0.  0.
         23    2    4    4    0    0  0.11606709870E+02  0.23884641220E+03 -0.45727556721E+02  0.26021444797E+03  0.91859812511E+02 0.  0.
          1    1    3    3  502    0 -0.42262171382E+03  0.27231527421E+03 -0.69381763862E+02  0.50752197067E+03  0.00000000000E+00 0. -1.
         -1    1    3    3    0  502 -0.57606558703E+02  0.58631521528E+02  0.18574009442E+02  0.84268408962E+02  0.00000000000E+00 0.  1.
         11    1    5    5    0    0  0.20650739797E+03 -0.20112012374E+03  0.27508334134E+03  0.39845382953E+03  0.00000000000E+00 0. -1.
        -11    1    5    5    0    0  0.26211416469E+03 -0.36867308420E+03  0.51624889298E+03  0.68639390867E+03  0.00000000000E+00 0.  1.
          2    1    6    6  503    0 -0.11426840930E+02  0.32125679167E+00  0.88337236834E+01  0.14446818808E+02  0.00000000000E+00 0. -1.
         -2    1    6    6    0  503  0.23033550800E+02  0.23852515541E+03 -0.54561280405E+02  0.24576762917E+03  0.00000000000E+00 0.  1.
<mgrwt>
<rscale>  0 0.18079422E+04</rscale>
<asrwt>0</asrwt>
<pdfrwt beam="1">  1        2 0.95542742E-01 0.18079422E+04</pdfrwt>
<pdfrwt beam="2">  1       -2 0.20243458E+00 0.18079422E+04</pdfrwt>
<totfact> 0.57478857E+00</totfact>
</mgrwt>
</event>
<event>
12    2  0.3561489E-008  0.1792312E+04  0.7818608E-02  0.8710398E-01
          2   -1    0    0  501    0  0.00000000000E+00  0.00000000000E+00  0.35641079011E+04  0.35641079011E+04  0.00000000000E+00 0. -1.
         -2   -1    0    0    0  501 -0.00000000000E+00 -0.00000000000E+00 -0.22532873880E+03  0.22532873880E+03  0.00000000000E+00 0.  1.
         23    2    1    2    0    0 -0.13686272740E+03 -0.64598964705E+03  0.15065343957E+04  0.16474072465E+04  0.90943499268E+02 0.  0.
        254    2    1    2    0    0  0.13686272740E+03  0.64598964705E+03  0.18322447666E+04  0.21420293934E+04  0.89170343011E+03 0.  0.
         23    2    4    4    0    0  0.24587345942E+03 -0.13314594262E+03  0.32983537826E+03  0.44353553002E+03  0.98746086279E+02 0.  0.
         23    2    4    4    0    0 -0.10901073202E+03  0.77913558967E+03  0.15024093883E+04  0.16984938634E+04  0.93337168487E+02 0.  0.
          2    1    3    3  502    0 -0.84116067102E+02 -0.50738954362E+03  0.12392728144E+04  0.13417588346E+04  0.00000000000E+00 0. -1.
         -2    1    3    3    0  502 -0.52746660297E+02 -0.13860010343E+03  0.26726158138E+03  0.30564841195E+03  0.00000000000E+00 0.  1.
         11    1    5    5    0    0  0.89680234923E+02 -0.32491865417E+02  0.50188937557E+02  0.10778309379E+03  0.00000000000E+00 0.  1.
        -11    1    5    5    0    0  0.15619322450E+03 -0.10065407721E+03  0.27964644070E+03  0.33575243623E+03  0.00000000000E+00 0. -1.
          4    1    6    6  503    0 -0.10869896098E+03  0.63839568499E+03  0.11645818929E+04  0.13325222324E+04  0.00000000000E+00 0. -1.
         -4    1    6    6    0  503 -0.31177104114E+00  0.14073990468E+03  0.33782749544E+03  0.36597163093E+03  0.00000000000E+00 0.  1.
<mgrwt>
<rscale>  0 0.17923124E+04</rscale>
<asrwt>0</asrwt>
<pdfrwt beam="1">  1        2 0.54832425E+00 0.17923124E+04</pdfrwt>
<pdfrwt beam="2">  1       -2 0.34665962E-01 0.17923124E+04</pdfrwt>
<totfact> 0.54481750E+00</totfact>
</mgrwt>
</event>
<event>
12    2  0.3561489E-008  0.1557919E+04  0.7818608E-02  0.8846825E-01
         -1   -1    0    0    0  501 -0.00000000000E+00  0.00000000000E+00  0.18322623289E+03  0.18322623289E+03  0.00000000000E+00 0.  1.
          1   -1    0    0  501    0  0.00000000000E+00 -0.00000000000E+00 -0.33116325677E+04  0.33116325677E+04  0.00000000000E+00 0. -1.
         23    2    1    2    0    0 -0.31034655021E+03 -0.12735872412E+03 -0.17586699065E+03  0.38975671070E+03  0.91901410763E+02 0.  0.
        254    2    1    2    0    0  0.31034655021E+03  0.12735872412E+03 -0.29525393442E+04  0.31051020899E+04  0.90090797754E+03 0.  0.
         23    2    4    4    0    0  0.55921989917E+02  0.34072415923E+02 -0.27556917997E+04  0.27579679540E+04  0.90894126705E+02 0.  0.
         23    2    4    4    0    0  0.25442456029E+03  0.93286308196E+02 -0.19684754455E+03  0.34713413590E+03  0.91208334808E+02 0.  0.
          4    1    3    3  502    0 -0.29290911102E+03 -0.10320214751E+03 -0.13367356105E+03  0.33810508943E+03  0.00000000000E+00 0. -1.
         -4    1    3    3    0  502 -0.17437439185E+02 -0.24156576607E+02 -0.42193429605E+02  0.51651621277E+02  0.00000000000E+00 0.  1.
         11    1    5    5    0    0  0.12455548922E+02  0.38695545390E+02 -0.22564668579E+04  0.22568329949E+04  0.00000000000E+00 0. -1.
        -11    1    5    5    0    0  0.43466440995E+02 -0.46231294665E+01 -0.49922494173E+03  0.50113495914E+03  0.00000000000E+00 0.  1.
          1    1    6    6  503    0  0.23137444772E+03  0.49765825176E+02 -0.16176611504E+03  0.28666888284E+03  0.00000000000E+00 0. -1.
         -1    1    6    6    0  503  0.23050112573E+02  0.43520483020E+02 -0.35081429506E+02  0.60465253064E+02  0.00000000000E+00 0.  1.
<mgrwt>
<rscale>  0 0.15579191E+04</rscale>
<asrwt>0</asrwt>
<pdfrwt beam="1">  1        1 0.50948197E+00 0.15579191E+04</pdfrwt>
<pdfrwt beam="2">  1       -1 0.28188649E-01 0.15579191E+04</pdfrwt>
<totfact> 0.38658340E+00</totfact>
</mgrwt>
</event>
<event>
12    2  0.3561489E-008  0.2435157E+04  0.7818608E-02  0.8426457E-01
         -2   -1    0    0    0  501 -0.00000000000E+00  0.00000000000E+00  0.90688905006E+03  0.90688905006E+03  0.00000000000E+00 0.  1.
          2   -1    0    0  501    0  0.00000000000E+00 -0.00000000000E+00 -0.16347060565E+04  0.16347060565E+04  0.00000000000E+00 0. -1.
         23    2    1    2    0    0  0.83186144687E+03  0.56997448136E+03 -0.63825714762E+03  0.11965857412E+04  0.87068211332E+02 0.  0.
        254    2    1    2    0    0 -0.83186144687E+03 -0.56997448136E+03 -0.89559858807E+02  0.13450093653E+04  0.88553082853E+03 0.  0.
         23    2    4    4    0    0 -0.31813828813E+03 -0.18339363513E+03  0.38478643411E+03  0.54036028106E+03  0.95307070547E+02 0.  0.
         23    2    4    4    0    0 -0.51372315873E+03 -0.38658084624E+03 -0.47434629291E+03  0.80464908425E+03  0.95391344950E+02 0.  0.
          3    1    3    3  502    0  0.80894991997E+03  0.55351494996E+03 -0.60071274330E+03  0.11496236657E+04  0.00000000000E+00 0. -1.
         -3    1    3    3    0  502  0.22911526900E+02  0.16459531405E+02 -0.37544404324E+02  0.46962075497E+02  0.00000000000E+00 0.  1.
         11    1    5    5    0    0  0.20059947570E+01 -0.18689995339E+02  0.13216887530E+02  0.22978817566E+02  0.00000000000E+00 0. -1.
        -11    1    5    5    0    0 -0.32014428289E+03 -0.16470363979E+03  0.37156954658E+03  0.51738146350E+03  0.00000000000E+00 0.  1.
          3    1    6    6  503    0 -0.13873851665E+02 -0.85023804823E+01  0.33611721886E+01  0.16615405874E+02  0.00000000000E+00 0. -1.
         -3    1    6    6    0  503 -0.49984930707E+03 -0.37807846575E+03 -0.47770746510E+03  0.78803367838E+03  0.00000000000E+00 0.  1.
<mgrwt>
<rscale>  0 0.24351567E+04</rscale>
<asrwt>0</asrwt>
<pdfrwt beam="1">  1        2 0.25149324E+00 0.24351567E+04</pdfrwt>
<pdfrwt beam="2">  1       -2 0.13952139E+00 0.24351567E+04</pdfrwt>
<totfact> 0.34656516E+00</totfact>
</mgrwt>
</event>
<event>
12    2  0.3561489E-008  0.1721064E+04  0.7818608E-02  0.8749441E-01
         -4   -1    0    0    0  501 -0.00000000000E+00  0.00000000000E+00  0.95704055293E+03  0.95704055293E+03  0.00000000000E+00 0.  1.
          4   -1    0    0  501    0  0.00000000000E+00 -0.00000000000E+00 -0.77375582533E+03  0.77375582533E+03  0.00000000000E+00 0. -1.
         23    2    1    2    0    0  0.23033612273E+03  0.36172467775E+03  0.52252806984E+03  0.68193390555E+03  0.89993309994E+02 0.  0.
        254    2    1    2    0    0 -0.23033612273E+03 -0.36172467775E+03 -0.33924334224E+03  0.10488624727E+04  0.89505696439E+03 0.  0.
         23    2    4    4    0    0 -0.36451363980E+03 -0.48774051497E+03 -0.49568291797E+03  0.79058484976E+03  0.92530243437E+02 0.  0.
         23    2    4    4    0    0  0.13417751707E+03  0.12601583723E+03  0.15643957573E+03  0.25827762296E+03  0.91380481214E+02 0.  0.
          3    1    3    3  502    0  0.14641042203E+03  0.25654927336E+03  0.29416519648E+03  0.41687732507E+03  0.00000000000E+00 0. -1.
         -3    1    3    3    0  502  0.83925700697E+02  0.10517540439E+03  0.22836287335E+03  0.26505658047E+03  0.00000000000E+00 0.  1.
         11    1    5    5    0    0 -0.16814990414E+03 -0.16559549966E+03 -0.22666226203E+03  0.32721864372E+03  0.00000000000E+00 0.  1.
        -11    1    5    5    0    0 -0.19636373567E+03 -0.32214501531E+03 -0.26902065594E+03  0.46336620604E+03  0.00000000000E+00 0. -1.
          1    1    6    6  503    0  0.64337882078E+02  0.10043452868E+03  0.13650859456E+03  0.18127618159E+03  0.00000000000E+00 0. -1.
         -1    1    6    6    0  503  0.69839634995E+02  0.25581308541E+02  0.19930981173E+02  0.77001441372E+02  0.00000000000E+00 0.  1.
<mgrwt>
<rscale>  0 0.17210644E+04</rscale>
<asrwt>0</asrwt>
<pdfrwt beam="1">  1        4 0.11903936E+00 0.17210644E+04</pdfrwt>
<pdfrwt beam="2">  1       -4 0.14723701E+00 0.17210644E+04</pdfrwt>
<totfact> 0.32133226E-01</totfact>
</mgrwt>
</event>
<event>
12    2  0.3561489E-008  0.1456406E+04  0.7818608E-02  0.8913971E-01
          2   -1    0    0  501    0  0.00000000000E+00  0.00000000000E+00  0.23817799432E+04  0.23817799432E+04  0.00000000000E+00 0. -1.
         -2   -1    0    0    0  501 -0.00000000000E+00 -0.00000000000E+00 -0.22264017830E+03  0.22264017830E+03  0.00000000000E+00 0.  1.
         23    2    1    2    0    0  0.45156929792E+03  0.38746317311E+02  0.67768103521E+03  0.82040808978E+03  0.91661007898E+02 0.  0.
        254    2    1    2    0    0 -0.45156929792E+03 -0.38746317311E+02  0.14814587297E+04  0.17840120317E+04  0.88462582691E+03 0.  0.
         23    2    4    4    0    0 -0.33772690034E+03 -0.43725914501E+03  0.97725151400E+03  0.11255767997E+04  0.81532762456E+02 0.  0.
         23    2    4    4    0    0 -0.11384239758E+03  0.39851282770E+03  0.50420721566E+03  0.65843523198E+03  0.86830139113E+02 0.  0.
          3    1    3    3  502    0  0.29802227651E+03  0.19008070823E+01  0.37491660866E+03  0.47893982275E+03  0.00000000000E+00 0. -1.
         -3    1    3    3    0  502  0.15354702140E+03  0.36845510229E+02  0.30276442655E+03  0.34146826703E+03  0.00000000000E+00 0.  1.
         11    1    5    5    0    0 -0.21962542717E+03 -0.28890254557E+03  0.56071081087E+03  0.66790465077E+03  0.00000000000E+00 0. -1.
        -11    1    5    5    0    0 -0.11810147317E+03 -0.14835659944E+03  0.41654070313E+03  0.45767214895E+03  0.00000000000E+00 0.  1.
          4    1    6    6  503    0 -0.65044371231E+02  0.24729077523E+03  0.37371303544E+03  0.45281887173E+03  0.00000000000E+00 0. -1.
         -4    1    6    6    0  503 -0.48798026349E+02  0.15122205246E+03  0.13049418023E+03  0.20561636024E+03  0.00000000000E+00 0.  1.
<mgrwt>
<rscale>  0 0.14564064E+04</rscale>
<asrwt>0</asrwt>
<pdfrwt beam="1">  1        2 0.36642766E+00 0.14564064E+04</pdfrwt>
<pdfrwt beam="2">  1       -2 0.34252337E-01 0.14564064E+04</pdfrwt>
<totfact> 0.31587279E+01</totfact>
</mgrwt>
</event>
<event>
12    2  0.3561489E-008  0.2961041E+04  0.7818608E-02  0.8254944E-01
          3   -1    0    0  501    0  0.00000000000E+00  0.00000000000E+00  0.92351328508E+03  0.92351328508E+03  0.00000000000E+00 0. -1.
         -3   -1    0    0    0  501 -0.00000000000E+00 -0.00000000000E+00 -0.23734814427E+04  0.23734814427E+04  0.00000000000E+00 0.  1.
         23    2    1    2    0    0  0.12202945766E+04  0.42758478494E+03 -0.27578306272E+03  0.13254316948E+04  0.93623063697E+02 0.  0.
        254    2    1    2    0    0 -0.12202945766E+04 -0.42758478494E+03 -0.11741850948E+04  0.19715630329E+04  0.91455046543E+03 0.  0.
         23    2    4    4    0    0 -0.76138994605E+03 -0.53674116899E+03 -0.11605875949E+04  0.14911050055E+04  0.92870014511E+02 0.  0.
         23    2    4    4    0    0 -0.45890463053E+03  0.10915638405E+03 -0.13597499945E+02  0.48045802739E+03  0.90257675452E+02 0.  0.
          2    1    3    3  502    0  0.64292262266E+03  0.27267593556E+03 -0.13498150098E+03  0.71128170943E+03  0.00000000000E+00 0. -1.
         -2    1    3    3    0  502  0.57737195392E+03  0.15490884938E+03 -0.14080156174E+03  0.61414998541E+03  0.00000000000E+00 0.  1.
         11    1    5    5    0    0 -0.33992409793E+03 -0.22331741935E+03 -0.57738828985E+03  0.70625512345E+03  0.00000000000E+00 0.  1.
        -11    1    5    5    0    0 -0.42146584811E+03 -0.31342374964E+03 -0.58319930506E+03  0.78484988207E+03  0.00000000000E+00 0. -1.
          3    1    6    6  503    0 -0.72557479646E+02  0.52400366876E+02 -0.88287791973E+01  0.89935163554E+02  0.00000000000E+00 0. -1.
         -3    1    6    6    0  503 -0.38634715088E+03  0.56756017177E+02 -0.47687207477E+01  0.39052286384E+03  0.00000000000E+00 0.  1.
<mgrwt>
<rscale>  0 0.29610415E+04</rscale>
<asrwt>0</asrwt>
<pdfrwt beam="1">  1        3 0.14207897E+00 0.29610415E+04</pdfrwt>
<pdfrwt beam="2">  1       -3 0.36515099E+00 0.29610415E+04</pdfrwt>
<totfact> 0.13668520E-02</totfact>
</mgrwt>
</event>
<event>
12    2  0.3561489E-008  0.1110949E+04  0.7818608E-02  0.9194585E-01
         -1   -1    0    0    0  501 -0.00000000000E+00  0.00000000000E+00  0.31016580388E+03  0.31016580388E+03  0.00000000000E+00 0.  1.
          1   -1    0    0  501    0  0.00000000000E+00 -0.00000000000E+00 -0.99479697127E+03  0.99479697127E+03  0.00000000000E+00 0. -1.
         23    2    1    2    0    0  0.72568079908E+02  0.14606665424E+03 -0.12615417320E+03  0.22884865078E+03  0.99273540501E+02 0.  0.
        254    2    1    2    0    0 -0.72568079908E+02 -0.14606665424E+03 -0.55847699419E+03  0.10761141244E+04  0.90527535145E+03 0.  0.
         23    2    4    4    0    0 -0.42308907956E+02 -0.51463909521E+03 -0.41710363554E+03  0.67017320318E+03  0.92267206911E+02 0.  0.
         23    2    4    4    0    0 -0.30259171952E+02  0.36857244097E+03 -0.14137335865E+03  0.40594092119E+03  0.89667961034E+02 0.  0.
          3    1    3    3  502    0 -0.73768737832E+01  0.41750658156E+02 -0.78186326527E+02  0.88941763976E+02  0.00000000000E+00 0. -1.
         -3    1    3    3    0  502  0.79944953691E+02  0.10431599609E+03 -0.47967846676E+02  0.13990688680E+03  0.00000000000E+00 0.  1.
         11    1    5    5    0    0 -0.50118852195E+02 -0.18017649868E+03 -0.18447072385E+03  0.26268787178E+03  0.00000000000E+00 0.  1.
        -11    1    5    5    0    0  0.78099442388E+01 -0.33446259653E+03 -0.23263291169E+03  0.40748533141E+03  0.00000000000E+00 0. -1.
          4    1    6    6  503    0  0.29625678545E+00  0.32503422434E+03 -0.13648213255E+03  0.35252617954E+03  0.00000000000E+00 0. -1.
         -4    1    6    6    0  503 -0.30555428738E+02  0.43538216630E+02 -0.48912260964E+01  0.53414741648E+02  0.00000000000E+00 0.  1.
<mgrwt>
<rscale>  0 0.11109491E+04</rscale>
<asrwt>0</asrwt>
<pdfrwt beam="1">  1        1 0.15304568E+00 0.11109491E+04</pdfrwt>
<pdfrwt beam="2">  1       -1 0.47717817E-01 0.11109491E+04</pdfrwt>
<totfact> 0.66680240E+01</totfact>
</mgrwt>
</event>
<event>
12    2  0.3561489E-008  0.1078527E+04  0.7818608E-02  0.9226377E-01
         -1   -1    0    0    0  501 -0.00000000000E+00  0.00000000000E+00  0.91652299916E+03  0.91652299916E+03  0.00000000000E+00 0.  1.
          1   -1    0    0  501    0  0.00000000000E+00 -0.00000000000E+00 -0.31729183878E+03  0.31729183878E+03  0.00000000000E+00 0. -1.
         23    2    1    2    0    0 -0.33833645296E+02  0.10699119693E+03  0.17557379882E+01  0.14511392443E+03  0.91995307881E+02 0.  0.
        254    2    1    2    0    0  0.33833645296E+02 -0.10699119693E+03  0.59747542239E+03  0.10887009135E+04  0.90316165052E+03 0.  0.
         23    2    4    4    0    0  0.10823944915E+03 -0.12606021901E+03  0.81719020118E+03  0.83900616370E+03  0.92328547310E+02 0.  0.
         23    2    4    4    0    0 -0.74405803850E+02  0.19069022082E+02 -0.21971477879E+03  0.24969474982E+03  0.90404827413E+02 0.  0.
          1    1    3    3  502    0 -0.65392737918E+02  0.74724746569E+02 -0.52644689989E+01  0.99436977811E+02  0.00000000000E+00 0. -1.
         -1    1    3    3    0  502  0.31559092622E+02  0.32266450359E+02  0.70202069871E+01  0.45676946614E+02  0.00000000000E+00 0.  1.
         11    1    5    5    0    0  0.10117572474E+03 -0.13278487808E+03  0.63569710949E+03  0.65725121996E+03  0.00000000000E+00 0. -1.
        -11    1    5    5    0    0  0.70637244035E+01  0.67246590673E+01  0.18149309169E+03  0.18175494374E+03  0.00000000000E+00 0.  1.
          2    1    6    6  503    0 -0.72486063398E+02  0.25787139371E+02 -0.22695022347E+03  0.23963641184E+03  0.00000000000E+00 0. -1.
         -2    1    6    6    0  503 -0.19197404522E+01 -0.67181172890E+01  0.72354446804E+01  0.10058337986E+02  0.00000000000E+00 0.  1.
<mgrwt>
<rscale>  0 0.10785273E+04</rscale>
<asrwt>0</asrwt>
<pdfrwt beam="1">  1        1 0.48814130E-01 0.10785273E+04</pdfrwt>
<pdfrwt beam="2">  1       -1 0.14100354E+00 0.10785273E+04</pdfrwt>
<totfact> 0.33451223E+01</totfact>
</mgrwt>
</event>
<event>
12    2  0.3561489E-008  0.2464581E+04  0.7818608E-02  0.8415713E-01
         -2   -1    0    0    0  501 -0.00000000000E+00  0.00000000000E+00  0.23890636520E+04  0.23890636520E+04  0.00000000000E+00 0.  1.
          2   -1    0    0  501    0  0.00000000000E+00 -0.00000000000E+00 -0.63562135397E+03  0.63562135397E+03  0.00000000000E+00 0. -1.
         23    2    1    2    0    0  0.95361348426E+03 -0.45003269382E+03  0.57768268818E+03  0.12057337891E+04  0.90380191328E+02 0.  0.
        254    2    1    2    0    0 -0.95361348426E+03  0.45003269382E+03  0.11757596098E+04  0.18189512169E+04  0.90236620419E+03 0.  0.
         23    2    4    4    0    0 -0.11378656986E+03  0.30570710561E+03 -0.29195800780E+02  0.34036216671E+03  0.92681129947E+02 0.  0.
         23    2    4    4    0    0 -0.83982691439E+03  0.14432558822E+03  0.12049554106E+04  0.14785890502E+04  0.90382056909E+02 0.  0.
          2    1    3    3  502    0  0.59642527335E+03 -0.27020437922E+03  0.30955971217E+03  0.72426564784E+03  0.00000000000E+00 0. -1.
         -2    1    3    3    0  502  0.35718821090E+03 -0.17982831460E+03  0.26812297601E+03  0.48146814121E+03  0.00000000000E+00 0.  1.
         11    1    5    5    0    0 -0.59775106704E+02  0.22200122028E+03  0.17036236645E+02  0.23053814988E+03  0.00000000000E+00 0. -1.
        -11    1    5    5    0    0 -0.54011463158E+02  0.83705885321E+02 -0.46232037425E+02  0.10982401684E+03  0.00000000000E+00 0.  1.
          1    1    6    6  503    0 -0.47714140048E+03  0.53047015056E+02  0.73650654426E+03  0.87915857022E+03  0.00000000000E+00 0. -1.
         -1    1    6    6    0  503 -0.36268551391E+03  0.91278573160E+02  0.46844886633E+03  0.59943047995E+03  0.00000000000E+00 0.  1.
<mgrwt>
<rscale>  0 0.24645810E+04</rscale>
<asrwt>0</asrwt>
<pdfrwt beam="1">  1        2 0.97787902E-01 0.24645810E+04</pdfrwt>
<pdfrwt beam="2">  1       -2 0.36754825E+00 0.24645810E+04</pdfrwt>
<totfact> 0.49797941E-01</totfact>
</mgrwt>
</event>
<event>
12    2  0.3561489E-008  0.1579951E+04  0.7818608E-02  0.8832960E-01
          2   -1    0    0  501    0  0.00000000000E+00  0.00000000000E+00  0.26284510749E+04  0.26284510749E+04  0.00000000000E+00 0. -1.
         -2   -1    0    0    0  501 -0.00000000000E+00 -0.00000000000E+00 -0.23742560961E+03  0.23742560961E+03  0.00000000000E+00 0.  1.
         23    2    1    2    0    0  0.50081556765E+03  0.17278044001E+03  0.55647755877E+03  0.77304966302E+03  0.85259573306E+02 0.  0.
        254    2    1    2    0    0 -0.50081556765E+03 -0.17278044001E+03  0.18345479066E+04  0.20928270215E+04  0.85655683249E+03 0.  0.
         23    2    4    4    0    0 -0.57062795796E+03 -0.25684208924E+03  0.67625698484E+03  0.92573404877E+03  0.89865979563E+02 0.  0.
         23    2    4    4    0    0  0.69812390318E+02  0.84061649223E+02  0.11582909217E+04  0.11670929728E+04  0.92347263044E+02 0.  0.
          1    1    3    3  502    0  0.20688405882E+03  0.70237105532E+02  0.29118753681E+03  0.36403907260E+03  0.00000000000E+00 0.  1.
         -1    1    3    3    0  502  0.29393150882E+03  0.10254333448E+03  0.26529002196E+03  0.40901059042E+03  0.00000000000E+00 0. -1.
         11    1    5    5    0    0 -0.34661235899E+03 -0.12562233843E+03  0.44662303453E+03  0.57913144820E+03  0.00000000000E+00 0.  1.
        -11    1    5    5    0    0 -0.22401559898E+03 -0.13121975080E+03  0.22963395031E+03  0.34660260057E+03  0.00000000000E+00 0. -1.
          1    1    6    6  503    0  0.29248073660E+02  0.95171166639E+02  0.73383774958E+03  0.74056116795E+03  0.00000000000E+00 0. -1.
         -1    1    6    6    0  503  0.40564316658E+02 -0.11109517417E+02  0.42445317216E+03  0.42653180482E+03  0.00000000000E+00 0.  1.
<mgrwt>
<rscale>  0 0.15799514E+04</rscale>
<asrwt>0</asrwt>
<pdfrwt beam="1">  1        2 0.40437707E+00 0.15799514E+04</pdfrwt>
<pdfrwt beam="2">  1       -2 0.36527019E-01 0.15799514E+04</pdfrwt>
<totfact> 0.19906426E+01</totfact>
</mgrwt>
</event>
<event>
12    2  0.3561489E-008  0.1284370E+04  0.7818608E-02  0.9042052E-01
          2   -1    0    0  501    0  0.00000000000E+00  0.00000000000E+00  0.16673067719E+04  0.16673067719E+04  0.00000000000E+00 0. -1.
         -2   -1    0    0    0  501 -0.00000000000E+00 -0.00000000000E+00 -0.24734598219E+03  0.24734598219E+03  0.00000000000E+00 0.  1.
         23    2    1    2    0    0 -0.69996031950E+02 -0.86956618799E+01 -0.92973751301E+02  0.15421940705E+03  0.10081888740E+03 0.  0.
        254    2    1    2    0    0  0.69996031950E+02  0.86956618799E+01  0.15129345410E+04  0.17604333471E+04  0.89731799547E+03 0.  0.
         23    2    4    4    0    0  0.40555652559E+03  0.23055007775E+03  0.66611185524E+03  0.81829017777E+03  0.90908621973E+02 0.  0.
         23    2    4    4    0    0 -0.33556049364E+03 -0.22185441587E+03  0.84682268579E+03  0.94214316929E+03  0.93299858192E+02 0.  0.
          3    1    3    3  502    0 -0.30490880933E+02  0.25358112607E+02  0.81050687736E+01  0.40477399062E+02  0.00000000000E+00 0. -1.
         -3    1    3    3    0  502 -0.39505151017E+02 -0.34053774487E+02 -0.10107882007E+03  0.11374200799E+03  0.00000000000E+00 0.  1.
         11    1    5    5    0    0  0.40436944177E+02  0.54187865959E+02  0.69803862937E+02  0.97180505002E+02  0.00000000000E+00 0. -1.
        -11    1    5    5    0    0  0.36511958141E+03  0.17636221179E+03  0.59630799230E+03  0.72110967277E+03  0.00000000000E+00 0.  1.
          3    1    6    6  503    0 -0.15745990522E+03 -0.10735587526E+03  0.29616681436E+03  0.35218416721E+03  0.00000000000E+00 0. -1.
         -3    1    6    6    0  503 -0.17810058843E+03 -0.11449854062E+03  0.55065587143E+03  0.58995900208E+03  0.00000000000E+00 0.  1.
<mgrwt>
<rscale>  0 0.12843701E+04</rscale>
<asrwt>0</asrwt>
<pdfrwt beam="1">  1        2 0.25650873E+00 0.12843701E+04</pdfrwt>
<pdfrwt beam="2">  1       -2 0.38053229E-01 0.12843701E+04</pdfrwt>
<totfact> 0.65404473E+01</totfact>
</mgrwt>
</event>
<event>
12    2  0.3561489E-008  0.1390135E+04  0.7818608E-02  0.8960990E-01
         -1   -1    0    0    0  501 -0.00000000000E+00  0.00000000000E+00  0.46920032495E+03  0.46920032495E+03  0.00000000000E+00 0.  1.
          1   -1    0    0  501    0  0.00000000000E+00 -0.00000000000E+00 -0.10296645613E+04  0.10296645613E+04  0.00000000000E+00 0. -1.
         23    2    1    2    0    0 -0.76250425273E+02 -0.76133210933E+02 -0.58581191970E+03  0.60257425064E+03  0.91157715602E+02 0.  0.
        254    2    1    2    0    0  0.76250425273E+02  0.76133210933E+02  0.25347683365E+02  0.89629063560E+03  0.88942903329E+03 0.  0.
         23    2    4    4    0    0  0.12269620734E+03  0.27278617342E+03  0.37079533545E+03  0.48591336910E+03  0.95686810893E+02 0.  0.
         23    2    4    4    0    0 -0.46445782062E+02 -0.19665296249E+03 -0.34544765208E+03  0.41037726650E+03  0.90806509698E+02 0.  0.
          3    1    3    3  502    0 -0.39305841617E+02 -0.57136081173E+02 -0.52097266701E+03  0.52556826458E+03  0.00000000000E+00 0. -1.
         -3    1    3    3    0  502 -0.36944583657E+02 -0.18997129760E+02 -0.64839252683E+02  0.77005986061E+02  0.00000000000E+00 0.  1.
         11    1    5    5    0    0  0.76882871396E+01  0.36620499076E+02  0.10819855140E+03  0.11448623165E+03  0.00000000000E+00 0.  1.
        -11    1    5    5    0    0  0.11500792020E+03  0.23616567434E+03  0.26259678405E+03  0.37142713746E+03  0.00000000000E+00 0. -1.
          4    1    6    6  503    0 -0.37038843282E+02 -0.13846342877E+03 -0.31015973748E+03  0.34167683529E+03  0.00000000000E+00 0. -1.
         -4    1    6    6    0  503 -0.94069387808E+01 -0.58189533718E+02 -0.35287914600E+02  0.68700431209E+02  0.00000000000E+00 0.  1.
<mgrwt>
<rscale>  0 0.13901352E+04</rscale>
<asrwt>0</asrwt>
<pdfrwt beam="1">  1        1 0.15840993E+00 0.13901352E+04</pdfrwt>
<pdfrwt beam="2">  1       -1 0.72184667E-01 0.13901352E+04</pdfrwt>
<totfact> 0.27114320E+01</totfact>
</mgrwt>
</event>
<event>
12    2  0.3561489E-008  0.2309034E+04  0.7818608E-02  0.8474368E-01
         -2   -1    0    0    0  501 -0.00000000000E+00  0.00000000000E+00  0.84341241230E+03  0.84341241230E+03  0.00000000000E+00 0.  1.
          2   -1    0    0  501    0  0.00000000000E+00 -0.00000000000E+00 -0.15803765793E+04  0.15803765793E+04  0.00000000000E+00 0. -1.
         23    2    1    2    0    0 -0.63760313561E+03  0.19890674814E+02  0.46240020810E+03  0.79307204019E+03  0.90641662509E+02 0.  0.
        254    2    1    2    0    0  0.63760313561E+03 -0.19890674814E+02 -0.11993643751E+04  0.16307169514E+04  0.90212497685E+03 0.  0.
         23    2    4    4    0    0  0.77060400205E+03  0.11347259391E+03 -0.11843389800E+04  0.14205284676E+04  0.92389123792E+02 0.  0.
         23    2    4    4    0    0 -0.13300086644E+03 -0.13336326873E+03 -0.15025395020E+02  0.21018848373E+03  0.92078468061E+02 0.  0.
          3    1    3    3  502    0 -0.15297317531E+03  0.39177327269E+02  0.91596389658E+02  0.18255287983E+03  0.00000000000E+00 0. -1.
         -3    1    3    3    0  502 -0.48462996030E+03 -0.19286652454E+02  0.37080381844E+03  0.61051916035E+03  0.00000000000E+00 0.  1.
         11    1    5    5    0    0  0.65214700941E+03  0.12304625328E+03 -0.10378227973E+04  0.12318734760E+04  0.00000000000E+00 0. -1.
        -11    1    5    5    0    0  0.11845699264E+03 -0.95736593710E+01 -0.14651618275E+03  0.18865499163E+03  0.00000000000E+00 0.  1.
          1    1    6    6  503    0 -0.12616472078E+03 -0.82395747672E+02  0.13659943003E+02  0.15130495711E+03  0.00000000000E+00 0. -1.
         -1    1    6    6    0  503 -0.68361456566E+01 -0.50967521054E+02 -0.28685338023E+02  0.58883526621E+02  0.00000000000E+00 0.  1.
<mgrwt>
<rscale>  0 0.23090338E+04</rscale>
<asrwt>0</asrwt>
<pdfrwt beam="1">  1        2 0.24313485E+00 0.23090338E+04</pdfrwt>
<pdfrwt beam="2">  1       -2 0.12975576E+00 0.23090338E+04</pdfrwt>
<totfact> 0.45225132E+00</totfact>
</mgrwt>
</event>
<event>
12    2  0.3561489E-008  0.1201993E+04  0.7818608E-02  0.9111114E-01
         -1   -1    0    0    0  501 -0.00000000000E+00  0.00000000000E+00  0.31392791541E+03  0.31392791541E+03  0.00000000000E+00 0.  1.
          1   -1    0    0  501    0  0.00000000000E+00 -0.00000000000E+00 -0.11505731236E+04  0.11505731236E+04  0.00000000000E+00 0. -1.
         23    2    1    2    0    0 -0.28251432689E+03 -0.83003624272E+01 -0.46693941778E+03  0.55335953343E+03  0.91055545892E+02 0.  0.
        254    2    1    2    0    0  0.28251432689E+03  0.83003624272E+01 -0.36970579036E+03  0.91114150554E+03  0.78333468631E+03 0.  0.
         23    2    4    4    0    0 -0.13193140664E+03  0.25634202589E+03 -0.27712361104E+03  0.40997996661E+03  0.90382226886E+02 0.  0.
         23    2    4    4    0    0  0.41444573354E+03 -0.24804166346E+03 -0.92582179323E+02  0.50116153893E+03  0.96444260148E+02 0.  0.
          1    1    3    3  502    0 -0.24113588192E+03  0.25901679955E+02 -0.39658878502E+03  0.46486565261E+03  0.00000000000E+00 0. -1.
         -1    1    3    3    0  502 -0.41378444970E+02 -0.34202042383E+02 -0.70350632767E+02  0.88493880816E+02  0.00000000000E+00 0.  1.
         11    1    5    5    0    0 -0.54449102324E+02  0.16634040240E+03 -0.11662688213E+03  0.21032276113E+03  0.00000000000E+00 0. -1.
        -11    1    5    5    0    0 -0.77482304318E+02  0.90001623491E+02 -0.16049672890E+03  0.19965720548E+03  0.00000000000E+00 0.  1.
          1    1    6    6  503    0  0.36886283962E+03 -0.18921016841E+03 -0.56304237682E+02  0.41836640575E+03  0.00000000000E+00 0. -1.
         -1    1    6    6    0  503  0.45582893913E+02 -0.58831495053E+02 -0.36277941641E+02  0.82795133175E+02  0.00000000000E+00 0.  1.
<mgrwt>
<rscale>  0 0.12019934E+04</rscale>
<asrwt>0</asrwt>
<pdfrwt beam="1">  1        1 0.17701126E+00 0.12019934E+04</pdfrwt>
<pdfrwt beam="2">  1       -1 0.48296601E-01 0.12019934E+04</pdfrwt>
<totfact> 0.49285787E+01</totfact>
</mgrwt>
</event>
<event>
12    2  0.3561489E-008  0.1706727E+04  0.7818608E-02  0.8757537E-01
         -1   -1    0    0    0  501 -0.00000000000E+00  0.00000000000E+00  0.43509678379E+03  0.43509678379E+03  0.00000000000E+00 0.  1.
          1   -1    0    0  501    0  0.00000000000E+00 -0.00000000000E+00 -0.16737184553E+04  0.16737184553E+04  0.00000000000E+00 0. -1.
         23    2    1    2    0    0 -0.33035063068E+03  0.49179222167E+03 -0.60200476390E+03  0.85001570720E+03  0.95529253380E+02 0.  0.
        254    2    1    2    0    0  0.33035063068E+03 -0.49179222167E+03 -0.63661690762E+03  0.12587995319E+04  0.91011210625E+03 0.  0.
         23    2    4    4    0    0  0.14936675952E+03 -0.70485849443E+03 -0.63429615152E+03  0.96427423751E+03  0.91418112387E+02 0.  0.
         23    2    4    4    0    0  0.18098387116E+03  0.21306627276E+03 -0.23207561045E+01  0.29452529439E+03  0.92668036124E+02 0.  0.
          4    1    3    3  502    0 -0.32313609590E+03  0.46865110633E+03 -0.54505369577E+03  0.78812075674E+03  0.00000000000E+00 0. -1.
         -4    1    3    3    0  502 -0.72145347713E+01  0.23141115347E+02 -0.56951068132E+02  0.61894950464E+02  0.00000000000E+00 0.  1.
         11    1    5    5    0    0  0.63218650810E+02 -0.36423741232E+03 -0.26720547306E+03  0.45614060900E+03  0.00000000000E+00 0.  1.
        -11    1    5    5    0    0  0.86148108708E+02 -0.34062108211E+03 -0.36709067846E+03  0.50813362851E+03  0.00000000000E+00 0. -1.
          4    1    6    6  503    0 -0.67111657195E+01 -0.25725593232E+01 -0.47786561742E+01  0.86309536910E+01  0.00000000000E+00 0. -1.
         -4    1    6    6    0  503  0.18769503688E+03  0.21563883208E+03  0.24579000697E+01  0.28589434070E+03  0.00000000000E+00 0.  1.
<mgrwt>
<rscale>  0 0.17067273E+04</rscale>
<asrwt>0</asrwt>
<pdfrwt beam="1">  1        1 0.25749515E+00 0.17067273E+04</pdfrwt>
<pdfrwt beam="2">  1       -1 0.66937966E-01 0.17067273E+04</pdfrwt>
<totfact> 0.10680732E+01</totfact>
</mgrwt>
</event>
<event>
12    2  0.3561489E-008  0.3120397E+04  0.7818608E-02  0.8210162E-01
          2   -1    0    0  501    0  0.00000000000E+00  0.00000000000E+00  0.35365726453E+04  0.35365726453E+04  0.00000000000E+00 0. -1.
         -2   -1    0    0    0  501 -0.00000000000E+00 -0.00000000000E+00 -0.68829905604E+03  0.68829905604E+03  0.00000000000E+00 0.  1.
         23    2    1    2    0    0 -0.37068312176E+03  0.13499865410E+04  0.17034925268E+04  0.22069865927E+04  0.95044168680E+02 0.  0.
        254    2    1    2    0    0  0.37068312176E+03 -0.13499865410E+04  0.11447810625E+04  0.20178851087E+04  0.89524688953E+03 0.  0.
         23    2    4    4    0    0  0.28271517707E+03 -0.12675720864E+04  0.56374826487E+03  0.14188166231E+04  0.92529121410E+02 0.  0.
         23    2    4    4    0    0  0.87967944690E+02 -0.82414454597E+02  0.58103279765E+03  0.59906848560E+03  0.82179297120E+02 0.  0.
          3    1    3    3  502    0 -0.21609585472E+03  0.81789939143E+03  0.11004932339E+04  0.13880713925E+04  0.00000000000E+00 0. -1.
         -3    1    3    3    0  502 -0.15458726704E+03  0.53208714954E+03  0.60299929286E+03  0.81891520014E+03  0.00000000000E+00 0.  1.
         11    1    5    5    0    0  0.56291815152E+02 -0.13291588884E+03  0.48794341874E+02  0.15236892649E+03  0.00000000000E+00 0. -1.
        -11    1    5    5    0    0  0.22642336192E+03 -0.11346561975E+04  0.51495392300E+03  0.12664476966E+04  0.00000000000E+00 0.  1.
          4    1    6    6  503    0 -0.39071883559E+01  0.12749042504E+02  0.43391339411E+02  0.45393970321E+02  0.00000000000E+00 0. -1.
         -4    1    6    6    0  503  0.91875133046E+02 -0.95163497101E+02  0.53764145824E+03  0.55367451528E+03  0.00000000000E+00 0.  1.
<mgrwt>
<rscale>  0 0.31203972E+04</rscale>
<asrwt>0</asrwt>
<pdfrwt beam="1">  1        2 0.54408809E+00 0.31203972E+04</pdfrwt>
<pdfrwt beam="2">  1       -2 0.10589216E+00 0.31203972E+04</pdfrwt>
<totfact> 0.46723044E-01</totfact>
</mgrwt>
</event>
<event>
12    2  0.3561489E-008  0.2033205E+04  0.7818608E-02  0.8591251E-01
          2   -1    0    0  501    0  0.00000000000E+00  0.00000000000E+00  0.19570200544E+04  0.19570200544E+04  0.00000000000E+00 0. -1.
         -2   -1    0    0    0  501 -0.00000000000E+00 -0.00000000000E+00 -0.52808919597E+03  0.52808919597E+03  0.00000000000E+00 0.  1.
         23    2    1    2    0    0 -0.34429404112E+03  0.45928779573E+03  0.12619288115E+04  0.13891331506E+04  0.87993856008E+02 0.  0.
        254    2    1    2    0    0  0.34429404112E+03 -0.45928779573E+03  0.16700204687E+03  0.10959760997E+04  0.91858056885E+03 0.  0.
         23    2    4    4    0    0 -0.16174333894E+03 -0.44545146007E+03 -0.13217814894E+03  0.50097165909E+03  0.94412018205E+02 0.  0.
         23    2    4    4    0    0  0.50603738005E+03 -0.13836335660E+02  0.29918019581E+03  0.59500444064E+03  0.90863747589E+02 0.  0.
          1    1    3    3  502    0 -0.34038578778E+03  0.45249608497E+03  0.12595062684E+04  0.13809312914E+04  0.00000000000E+00 0. -1.
         -1    1    3    3    0  502 -0.39082533412E+01  0.67917107586E+01  0.24225431279E+01  0.82018592047E+01  0.00000000000E+00 0.  1.
         11    1    5    5    0    0 -0.84910507873E+02 -0.17354815830E+03 -0.10961160714E+02  0.19351719469E+03  0.00000000000E+00 0. -1.
        -11    1    5    5    0    0 -0.76832831062E+02 -0.27190330177E+03 -0.12121698822E+03  0.30745446439E+03  0.00000000000E+00 0.  1.
          1    1    6    6  503    0  0.19731994720E+03 -0.31325379524E+02  0.76417782174E+02  0.21390679839E+03  0.00000000000E+00 0. -1.
         -1    1    6    6    0  503  0.30871743285E+03  0.17489043864E+02  0.22276241363E+03  0.38109764225E+03  0.00000000000E+00 0.  1.
<mgrwt>
<rscale>  0 0.20332055E+04</rscale>
<asrwt>0</asrwt>
<pdfrwt beam="1">  1        2 0.30108000E+00 0.20332055E+04</pdfrwt>
<pdfrwt beam="2">  1       -2 0.81244493E-01 0.20332055E+04</pdfrwt>
<totfact> 0.87314378E+00</totfact>
</mgrwt>
</event>
<event>
12    2  0.3561489E-008  0.2034698E+04  0.7818608E-02  0.8590568E-01
         -2   -1    0    0    0  501 -0.00000000000E+00  0.00000000000E+00  0.54714873029E+03  0.54714873029E+03  0.00000000000E+00 0.  1.
          2   -1    0    0  501    0  0.00000000000E+00 -0.00000000000E+00 -0.18916219582E+04  0.18916219582E+04  0.00000000000E+00 0. -1.
         23    2    1    2    0    0 -0.21076604676E+03 -0.12289143372E+03 -0.14601097156E+04  0.14831609946E+04  0.91222384469E+02 0.  0.
        254    2    1    2    0    0  0.21076604676E+03  0.12289143372E+03  0.11563648775E+03  0.95560969381E+03  0.91667521984E+03 0.  0.
         23    2    4    4    0    0 -0.35146104347E+03  0.99356980595E+02  0.77174499252E+02  0.38407054073E+03  0.90319445588E+02 0.  0.
         23    2    4    4    0    0  0.56222709023E+03  0.23534453125E+02  0.38461988498E+02  0.57153915308E+03  0.92328259327E+02 0.  0.
          2    1    3    3  502    0 -0.16305126300E+03 -0.12133521330E+03 -0.13091401882E+04  0.13248229998E+04  0.00000000000E+00 0. -1.
         -2    1    3    3    0  502 -0.47714783756E+02 -0.15562204231E+01 -0.15096952740E+03  0.15833799485E+03  0.00000000000E+00 0.  1.
         11    1    5    5    0    0 -0.28396966262E+03  0.77875382441E+02  0.97850024741E+02  0.31028691854E+03  0.00000000000E+00 0.  1.
        -11    1    5    5    0    0 -0.67491380856E+02  0.21481598154E+02 -0.20675525489E+02  0.73783622189E+02  0.00000000000E+00 0. -1.
          2    1    6    6  503    0  0.16251227569E+03  0.46151532248E+02 -0.36370870802E+01  0.16897760822E+03  0.00000000000E+00 0. -1.
         -2    1    6    6    0  503  0.39971481455E+03 -0.22617079123E+02  0.42099075578E+02  0.40256154486E+03  0.00000000000E+00 0.  1.
<mgrwt>
<rscale>  0 0.20346976E+04</rscale>
<asrwt>0</asrwt>
<pdfrwt beam="1">  1        2 0.29101876E+00 0.20346976E+04</pdfrwt>
<pdfrwt beam="2">  1       -2 0.84176728E-01 0.20346976E+04</pdfrwt>
<totfact> 0.87591384E+00</totfact>
</mgrwt>
</event>
<event>
12    2  0.3561489E-008  0.1902205E+04  0.7818608E-02  0.8653759E-01
         -1   -1    0    0    0  501 -0.00000000000E+00  0.00000000000E+00  0.68108489910E+03  0.68108489910E+03  0.00000000000E+00 0.  1.
          1   -1    0    0  501    0  0.00000000000E+00 -0.00000000000E+00 -0.13281695320E+04  0.13281695320E+04  0.00000000000E+00 0. -1.
         23    2    1    2    0    0 -0.53194247343E+03 -0.98296350201E+02  0.28330389093E+03  0.62219063610E+03  0.11931104533E+03 0.  0.
        254    2    1    2    0    0  0.53194247343E+03  0.98296350201E+02 -0.93038852381E+03  0.13870637950E+04  0.87504182677E+03 0.  0.
         23    2    4    4    0    0  0.71967166888E+03  0.14463222120E+03 -0.46182523163E+03  0.87205466970E+03  0.91383871560E+02 0.  0.
         23    2    4    4    0    0 -0.18772919545E+03 -0.46335870997E+02 -0.46856329218E+03  0.51500912528E+03  0.91069075840E+02 0.  0.
          2    1    3    3  502    0 -0.30055997106E+03 -0.50844806530E+00  0.12669081769E+03  0.32617038187E+03  0.00000000000E+00 0. -1.
         -2    1    3    3    0  502 -0.23138250237E+03 -0.97787902136E+02  0.15661307324E+03  0.29602025423E+03  0.00000000000E+00 0.  1.
         11    1    5    5    0    0  0.31365484260E+03  0.57334600046E+02 -0.25403168762E+03  0.40767476616E+03  0.00000000000E+00 0. -1.
        -11    1    5    5    0    0  0.40601682628E+03  0.87297621152E+02 -0.20779354401E+03  0.46437990354E+03  0.00000000000E+00 0.  1.
          4    1    6    6  503    0 -0.55443097380E+02 -0.24766572536E+02 -0.26070628608E+03  0.26768467973E+03  0.00000000000E+00 0.  1.
         -4    1    6    6    0  503 -0.13228609807E+03 -0.21569298460E+02 -0.20785700610E+03  0.24732444555E+03  0.00000000000E+00 0. -1.
<mgrwt>
<rscale>  0 0.19022053E+04</rscale>
<asrwt>0</asrwt>
<pdfrwt beam="1">  1        1 0.20433377E+00 0.19022053E+04</pdfrwt>
<pdfrwt beam="2">  1       -1 0.10478229E+00 0.19022053E+04</pdfrwt>
<totfact> 0.69116719E+00</totfact>
</mgrwt>
</event>
<event>
12    2  0.3561489E-008  0.1069812E+04  0.7818608E-02  0.9235125E-01
          2   -1    0    0  501    0  0.00000000000E+00  0.00000000000E+00  0.50939784576E+03  0.50939784576E+03  0.00000000000E+00 0. -1.
         -2   -1    0    0    0  501 -0.00000000000E+00 -0.00000000000E+00 -0.56169150205E+03  0.56169150205E+03  0.00000000000E+00 0.  1.
         23    2    1    2    0    0 -0.72276790873E+02 -0.14275649941E+03 -0.70809821590E+02  0.19767924309E+03  0.91976625794E+02 0.  0.
        254    2    1    2    0    0  0.72276790873E+02  0.14275649941E+03  0.18516165296E+02  0.87341010472E+03  0.85842822066E+03 0.  0.
         23    2    4    4    0    0 -0.10519791212E+03 -0.31892245956E+03 -0.88287121655E+02  0.35935346688E+03  0.92531953270E+02 0.  0.
         23    2    4    4    0    0  0.17747470299E+03  0.46167895898E+03  0.10680328695E+03  0.51405663784E+03  0.90567949285E+02 0.  0.
          4    1    3    3  502    0 -0.21950535523E+00  0.10708195559E+02 -0.16466158754E+02  0.19643014505E+02  0.00000000000E+00 0. -1.
         -4    1    3    3    0  502 -0.72057285518E+02 -0.15346469497E+03 -0.54343662835E+02  0.17803622859E+03  0.00000000000E+00 0.  1.
         11    1    5    5    0    0 -0.21201147689E+01 -0.11708275020E+03 -0.28173436321E+01  0.11713583015E+03  0.00000000000E+00 0. -1.
        -11    1    5    5    0    0 -0.10307779735E+03 -0.20183970937E+03 -0.85469778023E+02  0.24221763672E+03  0.00000000000E+00 0.  1.
          3    1    6    6  503    0  0.50152909405E+02  0.24614960732E+03  0.34989307783E+02  0.25363200738E+03  0.00000000000E+00 0. -1.
         -3    1    6    6    0  503  0.12732179359E+03  0.21552935165E+03  0.71813979168E+02  0.26042463046E+03  0.00000000000E+00 0.  1.
<mgrwt>
<rscale>  0 0.10698120E+04</rscale>
<asrwt>0</asrwt>
<pdfrwt beam="1">  1        2 0.78368900E-01 0.10698120E+04</pdfrwt>
<pdfrwt beam="2">  1       -2 0.86414077E-01 0.10698120E+04</pdfrwt>
<totfact> 0.69580909E+01</totfact>
</mgrwt>
</event>
<event>
12    2  0.3561489E-008  0.2224018E+04  0.7818608E-02  0.8508497E-01
         -1   -1    0    0    0  501 -0.00000000000E+00  0.00000000000E+00  0.55718667085E+03  0.55718667085E+03  0.00000000000E+00 0.  1.
          1   -1    0    0  501    0  0.00000000000E+00 -0.00000000000E+00 -0.22192984754E+04  0.22192984754E+04  0.00000000000E+00 0. -1.
         23    2    1    2    0    0  0.25253553874E+03 -0.89381343119E+03 -0.64678739630E+03  0.11353789569E+04  0.89859844915E+02 0.  0.
        254    2    1    2    0    0 -0.25253553874E+03  0.89381343119E+03 -0.10153244083E+04  0.16411061893E+04  0.89424226165E+03 0.  0.
         23    2    4    4    0    0 -0.33576608922E+03  0.14365038151E+03 -0.74493421317E+03  0.83461224121E+03  0.90974240617E+02 0.  0.
         23    2    4    4    0    0  0.83230550477E+02  0.75016304968E+03 -0.27039019510E+03  0.80649394812E+03  0.87462592611E+02 0.  0.
          3    1    3    3  502    0  0.13664525616E+03 -0.42312841526E+03 -0.36037004874E+03  0.57234268918E+03  0.00000000000E+00 0. -1.
         -3    1    3    3    0  502  0.11589028258E+03 -0.47068501593E+03 -0.28641734756E+03  0.56303626775E+03  0.00000000000E+00 0.  1.
         11    1    5    5    0    0 -0.38539858048E+02  0.44729723461E+02 -0.78489617689E+02  0.98217559042E+02  0.00000000000E+00 0. -1.
        -11    1    5    5    0    0 -0.29722623117E+03  0.98920658050E+02 -0.66644459548E+03  0.73639468217E+03  0.00000000000E+00 0.  1.
          4    1    6    6  503    0  0.92310519957E+02  0.47191972116E+03 -0.15624638469E+03  0.50561090578E+03  0.00000000000E+00 0.  1.
         -4    1    6    6    0  503 -0.90799694802E+01  0.27824332851E+03 -0.11414381041E+03  0.30088304233E+03  0.00000000000E+00 0. -1.
<mgrwt>
<rscale>  0 0.22240176E+04</rscale>
<asrwt>0</asrwt>
<pdfrwt beam="1">  1        1 0.34143053E+00 0.22240176E+04</pdfrwt>
<pdfrwt beam="2">  1       -1 0.85721027E-01 0.22240176E+04</pdfrwt>
<totfact> 0.25842038E+00</totfact>
</mgrwt>
</event>
<event>
12    2  0.3561489E-008  0.2794774E+04  0.7818608E-02  0.8304893E-01
          2   -1    0    0  501    0  0.00000000000E+00  0.00000000000E+00  0.25387367064E+04  0.25387367064E+04  0.00000000000E+00 0. -1.
         -2   -1    0    0    0  501 -0.00000000000E+00 -0.00000000000E+00 -0.76915819693E+03  0.76915819693E+03  0.00000000000E+00 0.  1.
         23    2    1    2    0    0  0.14362736475E+03 -0.12430814168E+04  0.87741071178E+03  0.15311198405E+04  0.92726373277E+02 0.  0.
        254    2    1    2    0    0 -0.14362736475E+03  0.12430814168E+04  0.89216779768E+03  0.17767750628E+04  0.89167595905E+03 0.  0.
         23    2    4    4    0    0  0.66169108520E+02  0.12486302661E+04  0.56070583838E+03  0.13740180597E+04  0.10039272289E+03 0.  0.
         23    2    4    4    0    0 -0.20979647327E+03 -0.55488493512E+01  0.33146195930E+03  0.40275700309E+03  0.91108853325E+02 0.  0.
          4    1    3    3  502    0  0.14577851710E+03 -0.12350531522E+04  0.86058688345E+03  0.15123549348E+04  0.00000000000E+00 0. -1.
         -4    1    3    3    0  502 -0.21511523484E+01 -0.80282646041E+01  0.16823828333E+02  0.18764905776E+02  0.00000000000E+00 0.  1.
         11    1    5    5    0    0  0.48223781149E+01  0.85333368757E+03  0.35562718099E+03  0.92448489957E+03  0.00000000000E+00 0.  1.
        -11    1    5    5    0    0  0.61346730405E+02  0.39529657854E+03  0.20507865739E+03  0.44953316013E+03  0.00000000000E+00 0. -1.
          1    1    6    6  503    0 -0.21116145835E+03 -0.19170042442E+02  0.32387201269E+03  0.38710429167E+03  0.00000000000E+00 0. -1.
         -1    1    6    6    0  503  0.13649850861E+01  0.13621193091E+02  0.75899466038E+01  0.15652711425E+02  0.00000000000E+00 0.  1.
<mgrwt>
<rscale>  0 0.27947738E+04</rscale>
<asrwt>0</asrwt>
<pdfrwt beam="1">  1        2 0.39057487E+00 0.27947738E+04</pdfrwt>
<pdfrwt beam="2">  1       -2 0.11833203E+00 0.27947738E+04</pdfrwt>
<totfact> 0.15814641E+00</totfact>
</mgrwt>
</event>
<event>
12    2  0.3561489E-008  0.1700587E+04  0.7818608E-02  0.8761030E-01
         -1   -1    0    0    0  501 -0.00000000000E+00  0.00000000000E+00  0.49950976593E+03  0.49950976593E+03  0.00000000000E+00 0.  1.
          1   -1    0    0  501    0  0.00000000000E+00 -0.00000000000E+00 -0.14474174729E+04  0.14474174729E+04  0.00000000000E+00 0. -1.
         23    2    1    2    0    0  0.54243985155E+03 -0.53617551246E+02 -0.44317050048E+02  0.55402247915E+03  0.88662687349E+02 0.  0.
        254    2    1    2    0    0 -0.54243985155E+03  0.53617551246E+02 -0.90359065689E+03  0.13929047596E+04  0.90917091896E+03 0.  0.
         23    2    4    4    0    0 -0.76450365477E+01 -0.20990803535E+03  0.76856487111E+02  0.24169841772E+03  0.91604452037E+02 0.  0.
         23    2    4    4    0    0 -0.53479481500E+03  0.26352558659E+03 -0.98044714400E+03  0.11512063419E+04  0.92456533437E+02 0.  0.
          4    1    3    3  502    0  0.15803036076E+02  0.71433590432E+01 -0.15253249023E+02  0.23095998212E+02  0.00000000000E+00 0. -1.
         -4    1    3    3    0  502  0.52663681547E+03 -0.60760910289E+02 -0.29063801025E+02  0.53092648093E+03  0.00000000000E+00 0.  1.
         11    1    5    5    0    0 -0.11166871368E+02 -0.10606083979E+03 -0.88383246168E+01  0.10701269427E+03  0.00000000000E+00 0. -1.
        -11    1    5    5    0    0  0.35218348201E+01 -0.10384719556E+03  0.85694811728E+02  0.13468572346E+03  0.00000000000E+00 0.  1.
          2    1    6    6  503    0 -0.20766686153E+03  0.53252015273E+02 -0.35607849348E+03  0.41563589358E+03  0.00000000000E+00 0.  1.
         -2    1    6    6    0  503 -0.32712795346E+03  0.21027357132E+03 -0.62436865051E+03  0.73557044834E+03  0.00000000000E+00 0. -1.
<mgrwt>
<rscale>  0 0.17005871E+04</rscale>
<asrwt>0</asrwt>
<pdfrwt beam="1">  1        1 0.22267961E+00 0.17005871E+04</pdfrwt>
<pdfrwt beam="2">  1       -1 0.76847655E-01 0.17005871E+04</pdfrwt>
<totfact> 0.11503976E+01</totfact>
</mgrwt>
</event>
<event>
12    2  0.3561489E-008  0.2145749E+04  0.7818608E-02  0.8541354E-01
          2   -1    0    0  501    0  0.00000000000E+00  0.00000000000E+00  0.11952285297E+04  0.11952285297E+04  0.00000000000E+00 0. -1.
         -2   -1    0    0    0  501 -0.00000000000E+00 -0.00000000000E+00 -0.96304596688E+03  0.96304596688E+03  0.00000000000E+00 0.  1.
         23    2    1    2    0    0 -0.26802782712E+03 -0.60883820557E+03  0.67935654070E+03  0.95505873570E+03  0.89938882448E+02 0.  0.
        254    2    1    2    0    0  0.26802782712E+03  0.60883820557E+03 -0.44717397783E+03  0.12032157609E+04  0.89735206258E+03 0.  0.
         23    2    4    4    0    0  0.39467374480E+03  0.70693612556E+03 -0.55806971498E+03  0.98797951605E+03  0.95580682683E+02 0.  0.
         23    2    4    4    0    0 -0.12664591767E+03 -0.98097919989E+02  0.11089573715E+03  0.21523624488E+03  0.91467951885E+02 0.  0.
          4    1    3    3  502    0 -0.24169075723E+03 -0.59343150823E+03  0.64795051621E+03  0.91127122667E+03  0.00000000000E+00 0. -1.
         -4    1    3    3    0  502 -0.26337069893E+02 -0.15406697341E+02  0.31406024485E+02  0.43787509034E+02  0.00000000000E+00 0.  1.
         11    1    5    5    0    0  0.26409722608E+03  0.55524338730E+03 -0.41010203927E+03  0.73907120534E+03  0.00000000000E+00 0.  1.
        -11    1    5    5    0    0  0.13057651872E+03  0.15169273827E+03 -0.14796767571E+03  0.24890831070E+03  0.00000000000E+00 0. -1.
          3    1    6    6  503    0 -0.13039319580E+03 -0.64439191808E+02  0.10816819705E+03  0.18125990677E+03  0.00000000000E+00 0. -1.
         -3    1    6    6    0  503  0.37472781222E+01 -0.33658728181E+02  0.27275401011E+01  0.33976338106E+02  0.00000000000E+00 0.  1.
<mgrwt>
<rscale>  0 0.21457493E+04</rscale>
<asrwt>0</asrwt>
<pdfrwt beam="1">  1        2 0.18388131E+00 0.21457493E+04</pdfrwt>
<pdfrwt beam="2">  1       -2 0.14816092E+00 0.21457493E+04</pdfrwt>
<totfact> 0.54193868E+00</totfact>
</mgrwt>
</event>
<event>
12    2  0.3561489E-008  0.1705060E+04  0.7818608E-02  0.8758484E-01
         -1   -1    0    0    0  501 -0.00000000000E+00  0.00000000000E+00  0.10287022438E+04  0.10287022438E+04  0.00000000000E+00 0.  1.
          1   -1    0    0  501    0  0.00000000000E+00 -0.00000000000E+00 -0.70652861771E+03  0.70652861771E+03  0.00000000000E+00 0. -1.
         23    2    1    2    0    0  0.19395101361E+02  0.14135529826E+03  0.73705472209E+03  0.75603061345E+03  0.89303610361E+02 0.  0.
        254    2    1    2    0    0 -0.19395101361E+02 -0.14135529826E+03 -0.41488109603E+03  0.97920024802E+03  0.87541379449E+03 0.  0.
         23    2    4    4    0    0  0.19886859239E+03  0.30584748947E+03 -0.21644365765E+03  0.43370594762E+03  0.90341508803E+02 0.  0.
         23    2    4    4    0    0 -0.21826369375E+03 -0.44720278773E+03 -0.19843743838E+03  0.54549430041E+03  0.10274843777E+03 0.  0.
          3    1    3    3  502    0 -0.88706602702E+00 -0.98448652834E+01  0.14512040789E+02  0.17558689770E+02  0.00000000000E+00 0. -1.
         -3    1    3    3    0  502  0.20282167388E+02  0.15120016354E+03  0.72254268130E+03  0.73847192368E+03  0.00000000000E+00 0.  1.
         11    1    5    5    0    0  0.11908638485E+03  0.23922970414E+03 -0.12397264634E+03  0.29458722891E+03  0.00000000000E+00 0. -1.
        -11    1    5    5    0    0  0.79782207540E+02  0.66617785330E+02 -0.92471011310E+02  0.13911871871E+03  0.00000000000E+00 0.  1.
          3    1    6    6  503    0  0.86685671166E+01 -0.38181329728E+01 -0.74407487854E+01  0.12045203931E+02  0.00000000000E+00 0. -1.
         -3    1    6    6    0  503 -0.22693226086E+03 -0.44338465476E+03 -0.19099668959E+03  0.53344909647E+03  0.00000000000E+00 0.  1.
<mgrwt>
<rscale>  0 0.17050602E+04</rscale>
<asrwt>0</asrwt>
<pdfrwt beam="1">  1        1 0.10869671E+00 0.17050602E+04</pdfrwt>
<pdfrwt beam="2">  1       -1 0.15826188E+00 0.17050602E+04</pdfrwt>
<totfact> 0.76977339E+00</totfact>
</mgrwt>
</event>
<event>
12    2  0.3561489E-008  0.2587457E+04  0.7818608E-02  0.8372474E-01
          1   -1    0    0  501    0  0.00000000000E+00  0.00000000000E+00  0.96832377323E+03  0.96832377323E+03  0.00000000000E+00 0. -1.
         -1   -1    0    0    0  501 -0.00000000000E+00 -0.00000000000E+00 -0.17284856628E+04  0.17284856628E+04  0.00000000000E+00 0.  1.
         23    2    1    2    0    0  0.22024864910E+03 -0.24991038519E+03 -0.14192642523E+04  0.14607752306E+04  0.92674638084E+02 0.  0.
        254    2    1    2    0    0 -0.22024864910E+03  0.24991038519E+03  0.65910236277E+03  0.12360342054E+04  0.99116091738E+03 0.  0.
         23    2    4    4    0    0  0.20190024498E+03 -0.26105339319E+03  0.37904045394E+03  0.51065801535E+03  0.90484031204E+02 0.  0.
         23    2    4    4    0    0 -0.42214889408E+03  0.51096377838E+03  0.28006190883E+03  0.72537619000E+03  0.91881840700E+02 0.  0.
          4    1    3    3  502    0  0.36077615457E+02 -0.28366487074E+02 -0.94609362067E+02  0.10515314221E+03  0.00000000000E+00 0. -1.
         -4    1    3    3    0  502  0.18417103365E+03 -0.22154389812E+03 -0.13246548902E+04  0.13556220884E+04  0.00000000000E+00 0.  1.
         11    1    5    5    0    0  0.69408995465E+01 -0.49219878626E+02  0.89330867040E+02  0.10222903866E+03  0.00000000000E+00 0. -1.
        -11    1    5    5    0    0  0.19495934543E+03 -0.21183351456E+03  0.28970958690E+03  0.40842897669E+03  0.00000000000E+00 0.  1.
          3    1    6    6  503    0 -0.29304447568E+03  0.37473016243E+03  0.15702667091E+03  0.50095422420E+03  0.00000000000E+00 0. -1.
         -3    1    6    6    0  503 -0.12910441840E+03  0.13623361595E+03  0.12303523792E+03  0.22442196581E+03  0.00000000000E+00 0.  1.
<mgrwt>
<rscale>  0 0.25874573E+04</rscale>
<asrwt>0</asrwt>
<pdfrwt beam="1">  1        1 0.14897289E+00 0.25874573E+04</pdfrwt>
<pdfrwt beam="2">  1       -1 0.26592087E+00 0.25874573E+04</pdfrwt>
<totfact> 0.77597369E-01</totfact>
</mgrwt>
</event>
<event>
12    2  0.3561489E-008  0.1805439E+04  0.7818608E-02  0.8703412E-01
         -1   -1    0    0    0  501 -0.00000000000E+00  0.00000000000E+00  0.65226098506E+03  0.65226098506E+03  0.00000000000E+00 0.  1.
          1   -1    0    0  501    0  0.00000000000E+00 -0.00000000000E+00 -0.12493503560E+04  0.12493503560E+04  0.00000000000E+00 0. -1.
         23    2    1    2    0    0 -0.40924532596E+03 -0.53742608490E+02  0.33329382323E+03  0.53805852017E+03  0.89734016604E+02 0.  0.
        254    2    1    2    0    0  0.40924532596E+03  0.53742608490E+02 -0.93038319415E+03  0.13635528209E+04  0.90735516891E+03 0.  0.
         23    2    4    4    0    0  0.66124856785E+03 -0.11114878668E+03 -0.56886178576E+03  0.88374817744E+03  0.88336790567E+02 0.  0.
         23    2    4    4    0    0 -0.25200324189E+03  0.16489139517E+03 -0.36152140839E+03  0.47980464343E+03  0.93914647458E+02 0.  0.
          3    1    3    3  502    0 -0.12157020926E+02 -0.10763634647E+02 -0.22739818778E+01  0.16395730608E+02  0.00000000000E+00 0. -1.
         -3    1    3    3    0  502 -0.39708830503E+03 -0.42978973843E+02  0.33556780511E+03  0.52166278956E+03  0.00000000000E+00 0.  1.
         11    1    5    5    0    0  0.29026020078E+03 -0.15480634967E+02 -0.28345406908E+03  0.40600103878E+03  0.00000000000E+00 0. -1.
        -11    1    5    5    0    0  0.37098836707E+03 -0.95668151717E+02 -0.28540771668E+03  0.47774713865E+03  0.00000000000E+00 0.  1.
          4    1    6    6  503    0 -0.14563214206E+03  0.44224008390E+02 -0.14629683384E+03  0.21110956234E+03  0.00000000000E+00 0. -1.
         -4    1    6    6    0  503 -0.10637109983E+03  0.12066738678E+03 -0.21522457455E+03  0.26869508109E+03  0.00000000000E+00 0.  1.
<mgrwt>
<rscale>  0 0.18054390E+04</rscale>
<asrwt>0</asrwt>
<pdfrwt beam="1">  1        1 0.19220775E+00 0.18054390E+04</pdfrwt>
<pdfrwt beam="2">  1       -1 0.10034784E+00 0.18054390E+04</pdfrwt>
<totfact> 0.87739960E+00</totfact>
</mgrwt>
</event>
<event>
12    2  0.3561489E-008  0.2529906E+04  0.7818608E-02  0.8392408E-01
          1   -1    0    0  501    0  0.00000000000E+00  0.00000000000E+00  0.26621128070E+04  0.26621128070E+04  0.00000000000E+00 0. -1.
         -1   -1    0    0    0  501 -0.00000000000E+00 -0.00000000000E+00 -0.60106602098E+03  0.60106602098E+03  0.00000000000E+00 0.  1.
         23    2    1    2    0    0  0.15942890041E+03 -0.86004901934E+02 -0.48790797185E+03  0.52856545645E+03  0.92265027601E+02 0.  0.
        254    2    1    2    0    0 -0.15942890041E+03  0.86004901934E+02  0.25489547579E+04  0.27346133715E+04  0.97371736999E+03 0.  0.
         23    2    4    4    0    0 -0.33925707359E+02 -0.36973057422E+03  0.49657176136E+03  0.62646461673E+03  0.89569809069E+02 0.  0.
         23    2    4    4    0    0 -0.12550319305E+03  0.45573547616E+03  0.20523829965E+04  0.21081487548E+04  0.92570688090E+02 0.  0.
          1    1    3    3  502    0  0.25832002316E+02 -0.30785275841E+02 -0.22476664787E+03  0.22833105691E+03  0.00000000000E+00 0. -1.
         -1    1    3    3    0  502  0.13359689810E+03 -0.55219626093E+02 -0.26314132398E+03  0.30023439955E+03  0.00000000000E+00 0.  1.
         11    1    5    5    0    0 -0.24126468309E+02 -0.20835259864E+02  0.55438547757E+02  0.63950192369E+02  0.00000000000E+00 0. -1.
        -11    1    5    5    0    0 -0.97992390496E+01 -0.34889531436E+03  0.44113321360E+03  0.56251442436E+03  0.00000000000E+00 0.  1.
          2    1    6    6  503    0 -0.39011689064E+02  0.19107302900E+03  0.10425655233E+04  0.10606477665E+04  0.00000000000E+00 0. -1.
         -2    1    6    6    0  503 -0.86491503989E+02  0.26466244716E+03  0.10098174732E+04  0.10475009883E+04  0.00000000000E+00 0.  1.
<mgrwt>
<rscale>  0 0.25299056E+04</rscale>
<asrwt>0</asrwt>
<pdfrwt beam="1">  1        1 0.40955581E+00 0.25299056E+04</pdfrwt>
<pdfrwt beam="2">  1       -1 0.92471697E-01 0.25299056E+04</pdfrwt>
<totfact> 0.10515421E+00</totfact>
</mgrwt>
</event>
<event>
12    2  0.3561489E-008  0.1163073E+04  0.7818608E-02  0.9145807E-01
         -1   -1    0    0    0  501 -0.00000000000E+00  0.00000000000E+00  0.21837335845E+03  0.21837335845E+03  0.00000000000E+00 0.  1.
          1   -1    0    0  501    0  0.00000000000E+00 -0.00000000000E+00 -0.15486540455E+04  0.15486540455E+04  0.00000000000E+00 0. -1.
         23    2    1    2    0    0  0.15781612164E+03  0.70999060322E+01 -0.48834359742E+03  0.51891437436E+03  0.76395823540E+02 0.  0.
        254    2    1    2    0    0 -0.15781612164E+03 -0.70999060322E+01 -0.84193708966E+03  0.12481130296E+04  0.90772888843E+03 0.  0.
         23    2    4    4    0    0  0.13940508408E+02 -0.39934863303E+03 -0.65186737563E+03  0.77072953540E+03  0.97052938378E+02 0.  0.
         23    2    4    4    0    0 -0.17175663005E+03  0.39224872699E+03 -0.19006971403E+03  0.47738349424E+03  0.91701148231E+02 0.  0.
          2    1    3    3  502    0  0.12322750031E+03 -0.22870548252E+00 -0.45081719338E+03  0.46735555093E+03  0.00000000000E+00 0. -1.
         -2    1    3    3    0  502  0.34588621337E+02  0.73286115147E+01 -0.37526404040E+02  0.51558823425E+02  0.00000000000E+00 0.  1.
         11    1    5    5    0    0  0.18209669418E+02 -0.35675490946E+03 -0.51083894634E+03  0.62334748462E+03  0.00000000000E+00 0. -1.
        -11    1    5    5    0    0 -0.42691610102E+01 -0.42593723563E+02 -0.14102842929E+03  0.14738205078E+03  0.00000000000E+00 0.  1.
          4    1    6    6  503    0 -0.74253744991E+02  0.89962843987E+02 -0.79081982988E+02  0.14092867691E+03  0.00000000000E+00 0.  1.
         -4    1    6    6    0  503 -0.97502885059E+02  0.30228588301E+03 -0.11098773104E+03  0.33645481733E+03  0.00000000000E+00 0. -1.
<mgrwt>
<rscale>  0 0.11630731E+04</rscale>
<asrwt>0</asrwt>
<pdfrwt beam="1">  1        1 0.23825448E+00 0.11630731E+04</pdfrwt>
<pdfrwt beam="2">  1       -1 0.33595900E-01 0.11630731E+04</pdfrwt>
<totfact> 0.50150746E+01</totfact>
</mgrwt>
</event>
<event>
12    2  0.3561489E-008  0.1846486E+04  0.7818608E-02  0.8681962E-01
          1   -1    0    0  501    0  0.00000000000E+00  0.00000000000E+00  0.38245425259E+03  0.38245425259E+03  0.00000000000E+00 0.  1.
         -1   -1    0    0    0  501 -0.00000000000E+00 -0.00000000000E+00 -0.22287041943E+04  0.22287041943E+04  0.00000000000E+00 0. -1.
         23    2    1    2    0    0  0.21065292511E+03  0.35884976046E+03  0.91052240688E+02  0.43603052791E+03  0.93189620119E+02 0.  0.
        254    2    1    2    0    0 -0.21065292511E+03 -0.35884976046E+03 -0.19373021824E+04  0.21751279190E+04  0.89715880006E+03 0.  0.
         23    2    4    4    0    0 -0.24441156986E+03 -0.63748134243E+03 -0.14350049574E+04  0.15916756102E+04  0.89847330001E+02 0.  0.
         23    2    4    4    0    0  0.33758644750E+02  0.27863158197E+03 -0.50229722498E+03  0.58345230882E+03  0.96637931882E+02 0.  0.
          2    1    3    3  502    0  0.33085693741E+01  0.10244505186E+02 -0.13400900104E+02  0.17189550355E+02  0.00000000000E+00 0. -1.
         -2    1    3    3    0  502  0.20734435574E+03  0.34860525527E+03  0.10445314079E+03  0.41884097756E+03  0.00000000000E+00 0.  1.
         11    1    5    5    0    0 -0.77160689831E+02 -0.19008174286E+03 -0.53089342520E+03  0.56915083234E+03  0.00000000000E+00 0. -1.
        -11    1    5    5    0    0 -0.16725088003E+03 -0.44739959956E+03 -0.90411153224E+03  0.10225247778E+04  0.00000000000E+00 0.  1.
          1    1    6    6  503    0  0.21660698591E+02  0.12579119591E+03 -0.32437035799E+03  0.34858103789E+03  0.00000000000E+00 0. -1.
         -1    1    6    6    0  503  0.12097946159E+02  0.15284038606E+03 -0.17792686698E+03  0.23487127093E+03  0.00000000000E+00 0.  1.
<mgrwt>
<rscale>  0 0.18464857E+04</rscale>
<asrwt>0</asrwt>
<pdfrwt beam="1">  1        1 0.58839115E-01 0.18464857E+04</pdfrwt>
<pdfrwt beam="2">  1       -1 0.34287757E+00 0.18464857E+04</pdfrwt>
<totfact> 0.10388845E+00</totfact>
</mgrwt>
</event>
<event>
12    2  0.3561489E-008  0.1464711E+04  0.7818608E-02  0.8908265E-01
         -2   -1    0    0    0  501 -0.00000000000E+00  0.00000000000E+00  0.50501179226E+03  0.50501179226E+03  0.00000000000E+00 0.  1.
          2   -1    0    0  501    0  0.00000000000E+00 -0.00000000000E+00 -0.10620440722E+04  0.10620440722E+04  0.00000000000E+00 0. -1.
         23    2    1    2    0    0  0.16344484205E+03  0.56423717749E+02 -0.62018792064E+03  0.64999698763E+03  0.89247827427E+02 0.  0.
        254    2    1    2    0    0 -0.16344484205E+03 -0.56423717749E+02  0.63155640659E+02  0.91705887688E+03  0.89839328604E+03 0.  0.
         23    2    4    4    0    0  0.15270433600E+01 -0.44481424976E+03  0.14427504075E+03  0.47644962540E+03  0.91251901400E+02 0.  0.
         23    2    4    4    0    0 -0.16497188541E+03  0.38839053201E+03 -0.81119400096E+02  0.44060925147E+03  0.97433192892E+02 0.  0.
          4    1    3    3  502    0  0.16241277250E+03  0.69149639999E+02 -0.60463091236E+03  0.62987151195E+03  0.00000000000E+00 0. -1.
         -4    1    3    3    0  502  0.10320695495E+01 -0.12725922250E+02 -0.15557008275E+02  0.20125475674E+02  0.00000000000E+00 0.  1.
         11    1    5    5    0    0  0.18015584299E+02 -0.32971647585E+03  0.67273754515E+02  0.33699150400E+03  0.00000000000E+00 0.  1.
        -11    1    5    5    0    0 -0.16488540939E+02 -0.11509777392E+03  0.77001286239E+02  0.13945812140E+03  0.00000000000E+00 0. -1.
          2    1    6    6  503    0 -0.51466189696E+02  0.97430277333E+02  0.20698298630E+02  0.11211532986E+03  0.00000000000E+00 0. -1.
         -2    1    6    6    0  503 -0.11350569572E+03  0.29096025468E+03 -0.10181769873E+03  0.32849392162E+03  0.00000000000E+00 0.  1.
<mgrwt>
<rscale>  0 0.14647113E+04</rscale>
<asrwt>0</asrwt>
<pdfrwt beam="1">  1        2 0.16339139E+00 0.14647113E+04</pdfrwt>
<pdfrwt beam="2">  1       -2 0.77694123E-01 0.14647113E+04</pdfrwt>
<totfact> 0.32900330E+01</totfact>
</mgrwt>
</event>
<event>
12    2  0.3561489E-008  0.1685297E+04  0.7818608E-02  0.8769795E-01
          1   -1    0    0  501    0  0.00000000000E+00  0.00000000000E+00  0.12432926859E+04  0.12432926859E+04  0.00000000000E+00 0. -1.
         -1   -1    0    0    0  501 -0.00000000000E+00 -0.00000000000E+00 -0.57110985966E+03  0.57110985966E+03  0.00000000000E+00 0.  1.
         23    2    1    2    0    0 -0.36785910597E+02 -0.59109363705E+03  0.31124719196E+03  0.67577836487E+03  0.95166658783E+02 0.  0.
        254    2    1    2    0    0  0.36785910597E+02  0.59109363705E+03  0.36093563432E+03  0.11386241807E+04  0.90302026656E+03 0.  0.
         23    2    4    4    0    0  0.44952841769E+03  0.41900072479E+03  0.16732424315E+03  0.64347408709E+03  0.91782856385E+02 0.  0.
         23    2    4    4    0    0 -0.41274250709E+03  0.17209291226E+03  0.19361139117E+03  0.49515009364E+03  0.87840177749E+02 0.  0.
          3    1    3    3  502    0  0.98851895238E+01 -0.60488592845E+02  0.53196006762E+01  0.61521418934E+02  0.00000000000E+00 0. -1.
         -3    1    3    3    0  502 -0.46671100121E+02 -0.53060504421E+03  0.30592759128E+03  0.61425694593E+03  0.00000000000E+00 0.  1.
         11    1    5    5    0    0  0.66120527418E+01 -0.27663144520E+01 -0.41530842764E+01  0.82837096832E+01  0.00000000000E+00 0. -1.
        -11    1    5    5    0    0  0.44291636495E+03  0.42176703924E+03  0.17147732743E+03  0.63519037740E+03  0.00000000000E+00 0.  1.
          1    1    6    6  503    0 -0.69746783535E+02  0.18867966635E+02 -0.59276554963E+00  0.72256247822E+02  0.00000000000E+00 0. -1.
         -1    1    6    6    0  503 -0.34299572356E+03  0.15322494563E+03  0.19420415672E+03  0.42289384581E+03  0.00000000000E+00 0.  1.
<mgrwt>
<rscale>  0 0.16852973E+04</rscale>
<asrwt>0</asrwt>
<pdfrwt beam="1">  1        1 0.19127580E+00 0.16852973E+04</pdfrwt>
<pdfrwt beam="2">  1       -1 0.87863056E-01 0.16852973E+04</pdfrwt>
<totfact> 0.12059394E+01</totfact>
</mgrwt>
</event>
<event>
12    2  0.3561489E-008  0.1564481E+04  0.7818608E-02  0.8842671E-01
         -4   -1    0    0    0  501 -0.00000000000E+00  0.00000000000E+00  0.15504119357E+04  0.15504119357E+04  0.00000000000E+00 0.  1.
          4   -1    0    0  501    0  0.00000000000E+00 -0.00000000000E+00 -0.39466959669E+03  0.39466959669E+03  0.00000000000E+00 0. -1.
         23    2    1    2    0    0 -0.17496013609E+03 -0.33353509618E+03 -0.44012116194E+02  0.39030011704E+03  0.92414313739E+02 0.  0.
        254    2    1    2    0    0  0.17496013609E+03  0.33353509618E+03  0.11997544552E+04  0.15547814153E+04  0.91437289282E+03 0.  0.
         23    2    4    4    0    0  0.47483117972E+03  0.44424226322E+03  0.79086335875E+03  0.10278722058E+04  0.90777649280E+02 0.  0.
         23    2    4    4    0    0 -0.29987104362E+03 -0.11070716704E+03  0.40889109642E+03  0.52690920951E+03  0.90899211736E+02 0.  0.
          3    1    3    3  502    0 -0.11743398864E+03 -0.12535686037E+03 -0.16085937652E+02  0.17252200300E+03  0.00000000000E+00 0. -1.
         -3    1    3    3    0  502 -0.57526147452E+02 -0.20817823581E+03 -0.27926178542E+02  0.21777811404E+03  0.00000000000E+00 0.  1.
         11    1    5    5    0    0  0.21417849856E+03  0.20219821816E+03  0.28822994803E+03  0.41210805818E+03  0.00000000000E+00 0. -1.
        -11    1    5    5    0    0  0.26065268116E+03  0.24204404506E+03  0.50263341072E+03  0.61576414764E+03  0.00000000000E+00 0.  1.
          1    1    6    6  503    0 -0.14323391285E+03 -0.91482559658E+02  0.25527270642E+03  0.30667436664E+03  0.00000000000E+00 0. -1.
         -1    1    6    6    0  503 -0.15663713077E+03 -0.19224607384E+02  0.15361839000E+03  0.22023484287E+03  0.00000000000E+00 0.  1.
<mgrwt>
<rscale>  0 0.15644813E+04</rscale>
<asrwt>0</asrwt>
<pdfrwt beam="1">  1        4 0.60718400E-01 0.15644813E+04</pdfrwt>
<pdfrwt beam="2">  1       -4 0.23852491E+00 0.15644813E+04</pdfrwt>
<totfact> 0.36658286E-01</totfact>
</mgrwt>
</event>
<event>
12    2  0.3561489E-008  0.1359307E+04  0.7818608E-02  0.8983813E-01
          1   -1    0    0  501    0  0.00000000000E+00  0.00000000000E+00  0.13398299135E+04  0.13398299135E+04  0.00000000000E+00 0. -1.
         -1   -1    0    0    0  501 -0.00000000000E+00 -0.00000000000E+00 -0.34476661002E+03  0.34476661002E+03  0.00000000000E+00 0.  1.
         23    2    1    2    0    0  0.10247189046E+03 -0.91056090748E+02 -0.15499099916E+03  0.22654776896E+03  0.92249562612E+02 0.  0.
        254    2    1    2    0    0 -0.10247189046E+03  0.91056090748E+02  0.11500543027E+04  0.14580487546E+04  0.88571415913E+03 0.  0.
         23    2    4    4    0    0  0.14521437004E+01  0.26041796458E+03  0.12024402888E+04  0.12336339272E+04  0.90390228038E+02 0.  0.
         23    2    4    4    0    0 -0.10392403416E+03 -0.16936187384E+03 -0.52385986132E+02  0.22441482734E+03  0.90189101359E+02 0.  0.
          2    1    3    3  502    0  0.45569138929E+02 -0.97748113504E+02 -0.97652187293E+02  0.14548948347E+03  0.00000000000E+00 0. -1.
         -2    1    3    3    0  502  0.56902751531E+02  0.66920227557E+01 -0.57338811868E+02  0.81058285491E+02  0.00000000000E+00 0.  1.
         11    1    5    5    0    0  0.41499795350E+02  0.12300167561E+03  0.65872890375E+03  0.67139810385E+03  0.00000000000E+00 0. -1.
        -11    1    5    5    0    0 -0.40047651649E+02  0.13741628897E+03  0.54371138504E+03  0.56223582339E+03  0.00000000000E+00 0.  1.
          4    1    6    6  503    0 -0.11602931058E+03 -0.14715792159E+03 -0.28360532148E+02  0.18953251590E+03  0.00000000000E+00 0. -1.
         -4    1    6    6    0  503  0.12105276419E+02 -0.22203952243E+02 -0.24025453984E+02  0.34882311442E+02  0.00000000000E+00 0.  1.
<mgrwt>
<rscale>  0 0.13593066E+04</rscale>
<asrwt>0</asrwt>
<pdfrwt beam="1">  1        1 0.20612768E+00 0.13593066E+04</pdfrwt>
<pdfrwt beam="2">  1       -1 0.53041018E-01 0.13593066E+04</pdfrwt>
<totfact> 0.29700710E+01</totfact>
</mgrwt>
</event>
<event>
12    2  0.3561489E-008  0.1044267E+04  0.7818608E-02  0.9261283E-01
          1   -1    0    0  501    0  0.00000000000E+00  0.00000000000E+00  0.55417366398E+03  0.55417366398E+03  0.00000000000E+00 0. -1.
         -1   -1    0    0    0  501 -0.00000000000E+00 -0.00000000000E+00 -0.49194597198E+03  0.49194597198E+03  0.00000000000E+00 0.  1.
         23    2    1    2    0    0  0.44677332275E+02 -0.70486963003E+02 -0.11445786451E+03  0.16512533456E+03  0.84860458352E+02 0.  0.
        254    2    1    2    0    0 -0.44677332275E+02  0.70486963003E+02  0.17668555651E+03  0.88099430140E+03  0.85905104461E+03 0.  0.
         23    2    4    4    0    0  0.27898247773E+03  0.31489009285E+03  0.17719418920E+03  0.46541610982E+03  0.90704912451E+02 0.  0.
         23    2    4    4    0    0 -0.32365981000E+03 -0.24440312984E+03 -0.50863268886E+00  0.41557819157E+03  0.90644426841E+02 0.  0.
          1    1    3    3  502    0 -0.10593380146E+02  0.11643799157E+02 -0.29536434138E+01  0.16016297048E+02  0.00000000000E+00 0. -1.
         -1    1    3    3    0  502  0.55270712421E+02 -0.82130762161E+02 -0.11150422110E+03  0.14910903751E+03  0.00000000000E+00 0.  1.
         11    1    5    5    0    0  0.16453246760E+03  0.24234298342E+03  0.10030881244E+03  0.30961736444E+03  0.00000000000E+00 0.  1.
        -11    1    5    5    0    0  0.11445001013E+03  0.72547109429E+02  0.76885376756E+02  0.15579874538E+03  0.00000000000E+00 0. -1.
          4    1    6    6  503    0 -0.99582357409E+02 -0.36676231394E+02  0.24801138287E+02  0.10898113744E+03  0.00000000000E+00 0. -1.
         -4    1    6    6    0  503 -0.22407745259E+03 -0.20772689845E+03 -0.25309770976E+02  0.30659705414E+03  0.00000000000E+00 0.  1.
<mgrwt>
<rscale>  0 0.10442672E+04</rscale>
<asrwt>0</asrwt>
<pdfrwt beam="1">  1        1 0.85257486E-01 0.10442672E+04</pdfrwt>
<pdfrwt beam="2">  1       -1 0.75683996E-01 0.10442672E+04</pdfrwt>
<totfact> 0.67356243E+01</totfact>
</mgrwt>
</event>
<event>
12    2  0.3561489E-008  0.1790138E+04  0.7818608E-02  0.8711561E-01
         -2   -1    0    0    0  501 -0.00000000000E+00  0.00000000000E+00  0.66819602257E+03  0.66819602257E+03  0.00000000000E+00 0.  1.
          2   -1    0    0  501    0  0.00000000000E+00 -0.00000000000E+00 -0.11989727458E+04  0.11989727458E+04  0.00000000000E+00 0. -1.
         23    2    1    2    0    0 -0.35341568128E+03  0.17365626821E+03  0.36136938658E+03  0.54142965476E+03  0.86597310783E+02 0.  0.
        254    2    1    2    0    0  0.35341568128E+03 -0.17365626821E+03 -0.89214610976E+03  0.13257391136E+04  0.89810933232E+03 0.  0.
         23    2    4    4    0    0  0.37450374446E+02  0.13238201562E+03  0.12902367088E+03  0.21036195619E+03  0.93153187607E+02 0.  0.
         23    2    4    4    0    0  0.31596530683E+03 -0.30603828383E+03 -0.10211697806E+04  0.11153771574E+04  0.88232510972E+02 0.  0.
          4    1    3    3  502    0 -0.21919020735E+02  0.27579135074E+01 -0.38200678012E-01  0.22091876702E+02  0.00000000000E+00 0. -1.
         -4    1    3    3    0  502 -0.33149666054E+03  0.17089835471E+03  0.36140758726E+03  0.51933777806E+03  0.00000000000E+00 0.  1.
         11    1    5    5    0    0  0.14087504068E+02  0.90437740972E+02  0.13380250454E+03  0.16211277859E+03  0.00000000000E+00 0.  1.
        -11    1    5    5    0    0  0.23362870378E+02  0.41944274646E+02 -0.47788336587E+01  0.48249177599E+02  0.00000000000E+00 0. -1.
          3    1    6    6  503    0  0.44338612618E+02 -0.20204205275E+02 -0.66163147440E+02  0.82168634884E+02  0.00000000000E+00 0. -1.
         -3    1    6    6    0  503  0.27162669421E+03 -0.28583407856E+03 -0.95500663320E+03  0.10332085225E+04  0.00000000000E+00 0.  1.
<mgrwt>
<rscale>  0 0.17901383E+04</rscale>
<asrwt>0</asrwt>
<pdfrwt beam="1">  1        2 0.18445734E+00 0.17901383E+04</pdfrwt>
<pdfrwt beam="2">  1       -2 0.10279939E+00 0.17901383E+04</pdfrwt>
<totfact> 0.13862009E+01</totfact>
</mgrwt>
</event>
<event>
12    2  0.3561489E-008  0.1990182E+04  0.7818608E-02  0.8611225E-01
         -1   -1    0    0    0  501 -0.00000000000E+00  0.00000000000E+00  0.76755838066E+03  0.76755838066E+03  0.00000000000E+00 0.  1.
          1   -1    0    0  501    0  0.00000000000E+00 -0.00000000000E+00 -0.12900729442E+04  0.12900729442E+04  0.00000000000E+00 0. -1.
         23    2    1    2    0    0 -0.56159432824E+03 -0.18744547345E+03  0.32678044508E+03  0.68349001782E+03  0.99242884583E+02 0.  0.
        254    2    1    2    0    0  0.56159432824E+03  0.18744547345E+03 -0.84929500860E+03  0.13741413070E+04  0.90356976766E+03 0.  0.
         23    2    4    4    0    0  0.23333605802E+03  0.50772048655E+03 -0.26426830302E+03  0.62485222271E+03  0.91524618571E+02 0.  0.
         23    2    4    4    0    0  0.32825827022E+03 -0.32027501310E+03 -0.58502670558E+03  0.74928908433E+03  0.94065454182E+02 0.  0.
          4    1    3    3  502    0 -0.57019693532E+02 -0.52217556152E+02  0.52736425170E+02  0.93589791968E+02  0.00000000000E+00 0. -1.
         -4    1    3    3    0  502 -0.50457463471E+03 -0.13522791729E+03  0.27404401991E+03  0.58990022585E+03  0.00000000000E+00 0.  1.
         11    1    5    5    0    0 -0.48964726736E+01  0.49652585995E+02 -0.24320388967E+02  0.55505279570E+02  0.00000000000E+00 0.  1.
        -11    1    5    5    0    0  0.23823253070E+03  0.45806790055E+03 -0.23994791405E+03  0.56934694314E+03  0.00000000000E+00 0. -1.
          1    1    6    6  503    0  0.29300531494E+03 -0.31528593090E+03 -0.51881410738E+03  0.67411082978E+03  0.00000000000E+00 0. -1.
         -1    1    6    6    0  503  0.35252955271E+02 -0.49890821997E+01 -0.66212598204E+02  0.75178254552E+02  0.00000000000E+00 0.  1.
<mgrwt>
<rscale>  0 0.19901822E+04</rscale>
<asrwt>0</asrwt>
<pdfrwt beam="1">  1        1 0.19847276E+00 0.19901822E+04</pdfrwt>
<pdfrwt beam="2">  1       -1 0.11808591E+00 0.19901822E+04</pdfrwt>
<totfact> 0.54972945E+00</totfact>
</mgrwt>
</event>
<event>
12    2  0.3561489E-008  0.2410453E+04  0.7818608E-02  0.8435600E-01
         -2   -1    0    0    0  501 -0.00000000000E+00  0.00000000000E+00  0.14409763993E+04  0.14409763993E+04  0.00000000000E+00 0.  1.
          2   -1    0    0  501    0  0.00000000000E+00 -0.00000000000E+00 -0.10080464205E+04  0.10080464205E+04  0.00000000000E+00 0. -1.
         23    2    1    2    0    0  0.99093064336E+03  0.15632902337E+03  0.44770419058E+03  0.11026834993E+04  0.95339152004E+02 0.  0.
        254    2    1    2    0    0 -0.99093064336E+03 -0.15632902337E+03 -0.14774211744E+02  0.13463393204E+04  0.89779117001E+03 0.  0.
         23    2    4    4    0    0 -0.27679362833E+03 -0.36053170362E+03  0.28052320039E+03  0.54171876071E+03  0.90377694950E+02 0.  0.
         23    2    4    4    0    0 -0.71413701503E+03  0.20420268025E+03 -0.29529741213E+03  0.80462055973E+03  0.92321572124E+02 0.  0.
          1    1    3    3  502    0  0.71504709538E+03  0.85796278287E+02  0.28344717635E+03  0.77394809371E+03  0.00000000000E+00 0. -1.
         -1    1    3    3    0  502  0.27588354799E+03  0.70532745088E+02  0.16425701422E+03  0.32873540561E+03  0.00000000000E+00 0.  1.
         11    1    5    5    0    0  0.27821523585E+00 -0.21684218537E+02 -0.27187042433E+00  0.21687707366E+02  0.00000000000E+00 0. -1.
        -11    1    5    5    0    0 -0.27707184357E+03 -0.33884748509E+03  0.28079507082E+03  0.52003105334E+03  0.00000000000E+00 0.  1.
          1    1    6    6  503    0 -0.35206695017E+03  0.53547721742E+02 -0.13135325992E+03  0.37956840595E+03  0.00000000000E+00 0. -1.
         -1    1    6    6    0  503 -0.36207006486E+03  0.15065495851E+03 -0.16394415222E+03  0.42505215379E+03  0.00000000000E+00 0.  1.
<mgrwt>
<rscale>  0 0.24104532E+04</rscale>
<asrwt>0</asrwt>
<pdfrwt beam="1">  1        2 0.15508406E+00 0.24104532E+04</pdfrwt>
<pdfrwt beam="2">  1       -2 0.22168868E+00 0.24104532E+04</pdfrwt>
<totfact> 0.21561013E+00</totfact>
</mgrwt>
</event>
<event>
12    2  0.3561489E-008  0.1520599E+04  0.7818608E-02  0.8870870E-01
          2   -1    0    0  501    0  0.00000000000E+00  0.00000000000E+00  0.14303768561E+04  0.14303768561E+04  0.00000000000E+00 0. -1.
         -2   -1    0    0    0  501 -0.00000000000E+00 -0.00000000000E+00 -0.40412776397E+03  0.40412776397E+03  0.00000000000E+00 0.  1.
         23    2    1    2    0    0 -0.41075181866E+03 -0.25667907726E+03  0.14962645945E+03  0.51506772165E+03  0.91134380335E+02 0.  0.
        254    2    1    2    0    0  0.41075181866E+03  0.25667907726E+03  0.87662263270E+03  0.13194368984E+04  0.85897921021E+03 0.  0.
         23    2    4    4    0    0 -0.23025701175E+03  0.12560892609E+03  0.91295866278E+02  0.29311816521E+03  0.93741291881E+02 0.  0.
         23    2    4    4    0    0  0.64100883041E+03  0.13107015117E+03  0.78532676643E+03  0.10263187332E+04  0.92305508691E+02 0.  0.
          4    1    3    3  502    0 -0.27911107058E+03 -0.16641467346E+03  0.14378394334E+03  0.35534582539E+03  0.00000000000E+00 0. -1.
         -4    1    3    3    0  502 -0.13164074809E+03 -0.90264403794E+02  0.58425161157E+01  0.15972189626E+03  0.00000000000E+00 0.  1.
         11    1    5    5    0    0 -0.15389919648E+03  0.87294671129E+02  0.13290106330E+02  0.17743153387E+03  0.00000000000E+00 0.  1.
        -11    1    5    5    0    0 -0.76357815265E+02  0.38314254958E+02  0.78005759948E+02  0.11568663134E+03  0.00000000000E+00 0. -1.
          1    1    6    6  503    0  0.53900284746E+03  0.13973917115E+03  0.63654990973E+03  0.84572270462E+03  0.00000000000E+00 0. -1.
         -1    1    6    6    0  503  0.10200598295E+03 -0.86690199829E+01  0.14877685670E+03  0.18059602862E+03  0.00000000000E+00 0.  1.
<mgrwt>
<rscale>  0 0.15205986E+04</rscale>
<asrwt>0</asrwt>
<pdfrwt beam="1">  1        2 0.22005798E+00 0.15205986E+04</pdfrwt>
<pdfrwt beam="2">  1       -2 0.62173503E-01 0.15205986E+04</pdfrwt>
<totfact> 0.32204924E+01</totfact>
</mgrwt>
</event>
<event>
12    2  0.3561489E-008  0.2112655E+04  0.7818608E-02  0.8555689E-01
          2   -1    0    0  501    0  0.00000000000E+00  0.00000000000E+00  0.16847989667E+04  0.16847989667E+04  0.00000000000E+00 0. -1.
         -2   -1    0    0    0  501 -0.00000000000E+00 -0.00000000000E+00 -0.66229146738E+03  0.66229146738E+03  0.00000000000E+00 0.  1.
         23    2    1    2    0    0  0.74185901910E+03 -0.40251160653E+03  0.70871158676E+03  0.11059601967E+04  0.92224973901E+02 0.  0.
        254    2    1    2    0    0 -0.74185901910E+03  0.40251160653E+03  0.31379591251E+03  0.12411302374E+04  0.85414635384E+03 0.  0.
         23    2    4    4    0    0 -0.44840779940E+03 -0.17084488079E+03  0.33082745332E+03  0.59018677336E+03  0.92822926754E+02 0.  0.
         23    2    4    4    0    0 -0.29345121970E+03  0.57335648733E+03 -0.17031540802E+02  0.65094346400E+03  0.92660887355E+02 0.  0.
          3    1    3    3  502    0  0.47755239685E+03 -0.25016079785E+03  0.50829518421E+03  0.74094582178E+03  0.00000000000E+00 0. -1.
         -3    1    3    3    0  502  0.26430662225E+03 -0.15235080869E+03  0.20041640255E+03  0.36501437490E+03  0.00000000000E+00 0.  1.
         11    1    5    5    0    0 -0.15745625589E+03 -0.82864990050E+02  0.75774376133E+02  0.19339295533E+03  0.00000000000E+00 0. -1.
        -11    1    5    5    0    0 -0.29095154351E+03 -0.87979890742E+02  0.25505307718E+03  0.39679381803E+03  0.00000000000E+00 0.  1.
          1    1    6    6  503    0 -0.20716239480E+03  0.31127157149E+03  0.70217227757E+01  0.37397266428E+03  0.00000000000E+00 0. -1.
         -1    1    6    6    0  503 -0.86288824898E+02  0.26208491584E+03 -0.24053263578E+02  0.27697079972E+03  0.00000000000E+00 0.  1.
<mgrwt>
<rscale>  0 0.21126552E+04</rscale>
<asrwt>0</asrwt>
<pdfrwt beam="1">  1        2 0.25919984E+00 0.21126552E+04</pdfrwt>
<pdfrwt beam="2">  1       -2 0.10189100E+00 0.21126552E+04</pdfrwt>
<totfact> 0.72727111E+00</totfact>
</mgrwt>
</event>
<event>
12    2  0.3561489E-008  0.1612149E+04  0.7818608E-02  0.8813119E-01
          1   -1    0    0  501    0  0.00000000000E+00  0.00000000000E+00  0.10682113986E+04  0.10682113986E+04  0.00000000000E+00 0. -1.
         -1   -1    0    0    0  501 -0.00000000000E+00 -0.00000000000E+00 -0.60826533226E+03  0.60826533226E+03  0.00000000000E+00 0.  1.
         23    2    1    2    0    0 -0.21641013762E+03  0.12514298114E+03  0.65035444316E+03  0.70287724821E+03  0.92635905099E+02 0.  0.
        254    2    1    2    0    0  0.21641013762E+03 -0.12514298114E+03 -0.19040837682E+03  0.97359948266E+03  0.92149144830E+03 0.  0.
         23    2    4    4    0    0  0.42892754043E+03  0.51485489861E+02  0.20136171972E+03  0.48538001119E+03  0.91747602092E+02 0.  0.
         23    2    4    4    0    0 -0.21251740280E+03 -0.17662847100E+03 -0.39177009654E+03  0.48821947147E+03  0.92266898295E+02 0.  0.
          4    1    3    3  502    0 -0.49549814832E+02  0.48864020981E+02  0.29331322497E+03  0.30145567607E+03  0.00000000000E+00 0. -1.
         -4    1    3    3    0  502 -0.16686032279E+03  0.76278960160E+02  0.35704121819E+03  0.40142157213E+03  0.00000000000E+00 0.  1.
         11    1    5    5    0    0  0.20486486103E+03  0.58945529909E+01  0.49350498828E+02  0.21080756337E+03  0.00000000000E+00 0.  1.
        -11    1    5    5    0    0  0.22406267940E+03  0.45590936870E+02  0.15201122089E+03  0.27457244782E+03  0.00000000000E+00 0. -1.
          3    1    6    6  503    0 -0.32622819158E+02 -0.20157792489E+01 -0.90849133400E+02  0.96549866573E+02  0.00000000000E+00 0.  1.
         -3    1    6    6    0  503 -0.17989458365E+03 -0.17461269175E+03 -0.30092096314E+03  0.39166960490E+03  0.00000000000E+00 0. -1.
<mgrwt>
<rscale>  0 0.16121488E+04</rscale>
<asrwt>0</asrwt>
<pdfrwt beam="1">  1        1 0.16434021E+00 0.16121488E+04</pdfrwt>
<pdfrwt beam="2">  1       -1 0.93579282E-01 0.16121488E+04</pdfrwt>
<totfact> 0.14231938E+01</totfact>
</mgrwt>
</event>
<event>
12    2  0.3561489E-008  0.1147130E+04  0.7818608E-02  0.9160435E-01
         -1   -1    0    0    0  501 -0.00000000000E+00  0.00000000000E+00  0.28800838026E+03  0.28800838026E+03  0.00000000000E+00 0.  1.
          1   -1    0    0  501    0  0.00000000000E+00 -0.00000000000E+00 -0.11422477947E+04  0.11422477947E+04  0.00000000000E+00 0. -1.
         23    2    1    2    0    0  0.78709390266E+02  0.17125612214E+03 -0.20987965362E+03  0.29587973823E+03  0.89283385927E+02 0.  0.
        254    2    1    2    0    0 -0.78709390266E+02 -0.17125612214E+03 -0.64435976084E+03  0.11343764368E+04  0.91437769625E+03 0.  0.
         23    2    4    4    0    0 -0.22082106298E+03 -0.50404204675E+03 -0.43215869273E+03  0.70553692184E+03  0.90558741360E+02 0.  0.
         23    2    4    4    0    0  0.14211167271E+03  0.33278592460E+03 -0.21220106810E+03  0.42883951491E+03  0.89060861827E+02 0.  0.
          4    1    3    3  502    0  0.59534663805E+02  0.13308020864E+03 -0.20683272095E+03  0.25305037558E+03  0.00000000000E+00 0. -1.
         -4    1    3    3    0  502  0.19174726461E+02  0.38175913499E+02 -0.30469326775E+01  0.42829362650E+02  0.00000000000E+00 0.  1.
         11    1    5    5    0    0 -0.65261197221E+02 -0.25782451284E+03 -0.22113317480E+03  0.34587914692E+03  0.00000000000E+00 0. -1.
        -11    1    5    5    0    0 -0.15555986576E+03 -0.24621753391E+03 -0.21102551794E+03  0.35965777492E+03  0.00000000000E+00 0.  1.
          2    1    6    6  503    0 -0.12075679701E+02  0.21017300905E+02 -0.20190257335E+02  0.31546718829E+02  0.00000000000E+00 0. -1.
         -2    1    6    6    0  503  0.15418735241E+03  0.31176862370E+03 -0.19201081077E+03  0.39729279608E+03  0.00000000000E+00 0.  1.
<mgrwt>
<rscale>  0 0.11471302E+04</rscale>
<asrwt>0</asrwt>
<pdfrwt beam="1">  1        1 0.17573043E+00 0.11471302E+04</pdfrwt>
<pdfrwt beam="2">  1       -1 0.44308981E-01 0.11471302E+04</pdfrwt>
<totfact> 0.58997844E+01</totfact>
</mgrwt>
</event>
<event>
12    2  0.3561489E-008  0.1676523E+04  0.7818608E-02  0.8774868E-01
         -2   -1    0    0    0  501 -0.00000000000E+00  0.00000000000E+00  0.45909339079E+03  0.45909339079E+03  0.00000000000E+00 0. -1.
          2   -1    0    0  501    0  0.00000000000E+00 -0.00000000000E+00 -0.15305871487E+04  0.15305871487E+04  0.00000000000E+00 0.  1.
         23    2    1    2    0    0  0.14328942850E+03  0.21834218755E+03  0.24776261973E+03  0.37131874803E+03  0.91028158920E+02 0.  0.
        254    2    1    2    0    0 -0.14328942850E+03 -0.21834218755E+03 -0.13192563776E+04  0.16183617914E+04  0.90025125764E+03 0.  0.
         23    2    4    4    0    0 -0.24700171157E+03  0.54357999139E+02 -0.53881229560E+01  0.26915964513E+03  0.91941530915E+02 0.  0.
         23    2    4    4    0    0  0.10371228307E+03 -0.27270018669E+03 -0.13138682547E+04  0.13492021463E+04  0.94736537266E+02 0.  0.
          4    1    3    3  502    0 -0.13146977729E+02  0.17673402352E+02  0.17079449934E+02  0.27872922060E+02  0.00000000000E+00 0.  1.
         -4    1    3    3    0  502  0.15643640623E+03  0.20066878520E+03  0.23068316980E+03  0.34344582597E+03  0.00000000000E+00 0. -1.
         11    1    5    5    0    0  0.31244358013E+01 -0.20033335991E+01  0.11620266199E+02  0.12198607753E+02  0.00000000000E+00 0.  1.
        -11    1    5    5    0    0 -0.25012614737E+03  0.56361332738E+02 -0.17008389155E+02  0.25696103737E+03  0.00000000000E+00 0. -1.
          1    1    6    6  503    0  0.80139049277E+02 -0.25194698725E+03 -0.12543030363E+04  0.12818641342E+04  0.00000000000E+00 0. -1.
         -1    1    6    6    0  503  0.23573233797E+02 -0.20753199440E+02 -0.59565218330E+02  0.67338012098E+02  0.00000000000E+00 0.  1.
<mgrwt>
<rscale>  0 0.16765231E+04</rscale>
<asrwt>0</asrwt>
<pdfrwt beam="1">  1        2 0.23547494E+00 0.16765231E+04</pdfrwt>
<pdfrwt beam="2">  1       -2 0.70629753E-01 0.16765231E+04</pdfrwt>
<totfact> 0.21196999E+01</totfact>
</mgrwt>
</event>
<event>
12    2  0.3561489E-008  0.1872604E+04  0.7818608E-02  0.8668615E-01
         -2   -1    0    0    0  501 -0.00000000000E+00  0.00000000000E+00  0.63835209302E+03  0.63835209302E+03  0.00000000000E+00 0.  1.
          2   -1    0    0  501    0  0.00000000000E+00 -0.00000000000E+00 -0.13733196085E+04  0.13733196085E+04  0.00000000000E+00 0. -1.
         23    2    1    2    0    0  0.71700087075E+03  0.30759554419E+02 -0.26022076119E+03  0.76875234485E+03  0.90713418661E+02 0.  0.
        254    2    1    2    0    0 -0.71700087075E+03 -0.30759554419E+02 -0.47474675426E+03  0.12429193566E+04  0.89689890600E+03 0.  0.
         23    2    4    4    0    0 -0.13838283127E+03  0.32724189115E+03  0.60690220484E+02  0.37182398950E+03  0.91283695095E+02 0.  0.
         23    2    4    4    0    0 -0.57861803947E+03 -0.35800144557E+03 -0.53543697475E+03  0.87109536714E+03  0.95658319502E+02 0.  0.
          4    1    3    3  502    0  0.30166840180E+02 -0.17207999191E+02 -0.15706716404E+02  0.38116327509E+02  0.00000000000E+00 0. -1.
         -4    1    3    3    0  502  0.68683403057E+03  0.47967553610E+02 -0.24451404478E+03  0.73063601734E+03  0.00000000000E+00 0.  1.
         11    1    5    5    0    0 -0.45637662200E+02  0.92110474814E+02  0.60071003091E+02  0.11906158572E+03  0.00000000000E+00 0. -1.
        -11    1    5    5    0    0 -0.92745169073E+02  0.23513141634E+03  0.61921739274E+00  0.25276240378E+03  0.00000000000E+00 0.  1.
          1    1    6    6  503    0 -0.38589024400E+03 -0.18533165485E+03 -0.32219204610E+03  0.53578616749E+03  0.00000000000E+00 0. -1.
         -1    1    6    6    0  503 -0.19272779547E+03 -0.17266979072E+03 -0.21324492865E+03  0.33530919965E+03  0.00000000000E+00 0.  1.
<mgrwt>
<rscale>  0 0.18726040E+04</rscale>
<asrwt>0</asrwt>
<pdfrwt beam="1">  1        2 0.21127994E+00 0.18726040E+04</pdfrwt>
<pdfrwt beam="2">  1       -2 0.98208015E-01 0.18726040E+04</pdfrwt>
<totfact> 0.12131202E+01</totfact>
</mgrwt>
</event>
<event>
12    2  0.3561489E-008  0.2585061E+04  0.7818608E-02  0.8373293E-01
         -3   -1    0    0    0  501 -0.00000000000E+00  0.00000000000E+00  0.23665638957E+04  0.23665638957E+04  0.00000000000E+00 0.  1.
          3   -1    0    0  501    0  0.00000000000E+00 -0.00000000000E+00 -0.70593263411E+03  0.70593263411E+03  0.00000000000E+00 0. -1.
         23    2    1    2    0    0 -0.48928452185E+03  0.58766802104E+03 -0.26208733494E+03  0.81348633244E+03  0.91198660400E+02 0.  0.
        254    2    1    2    0    0  0.48928452185E+03 -0.58766802104E+03  0.19227185965E+04  0.22590101974E+04  0.90638138997E+03 0.  0.
         23    2    4    4    0    0  0.70760041411E+03 -0.35899411621E+03  0.16475468592E+04  0.18306038587E+04  0.84408014377E+02 0.  0.
         23    2    4    4    0    0 -0.21831589226E+03 -0.22867390483E+03  0.27517173736E+03  0.42840633864E+03  0.88650563334E+02 0.  0.
          1    1    3    3  502    0 -0.37973246285E+03  0.41415750042E+03 -0.22337781403E+03  0.60466587989E+03  0.00000000000E+00 0. -1.
         -1    1    3    3    0  502 -0.10955205900E+03  0.17351052062E+03 -0.38709520910E+02  0.20882045256E+03  0.00000000000E+00 0.  1.
         11    1    5    5    0    0  0.28828643264E+03 -0.14571559174E+03  0.57728556251E+03  0.66151396176E+03  0.00000000000E+00 0.  1.
        -11    1    5    5    0    0  0.41931398147E+03 -0.21327852448E+03  0.10702612966E+04  0.11690898970E+04  0.00000000000E+00 0. -1.
          1    1    6    6  503    0 -0.45319647036E+02 -0.18156485380E+02  0.13562786345E+02  0.50670282635E+02  0.00000000000E+00 0. -1.
         -1    1    6    6    0  503 -0.17299624523E+03 -0.21051741945E+03  0.26160895102E+03  0.37773605601E+03  0.00000000000E+00 0.  1.
<mgrwt>
<rscale>  0 0.25850607E+04</rscale>
<asrwt>0</asrwt>
<pdfrwt beam="1">  1        3 0.10860502E+00 0.25850607E+04</pdfrwt>
<pdfrwt beam="2">  1       -3 0.36408675E+00 0.25850607E+04</pdfrwt>
<totfact> 0.27747972E-02</totfact>
</mgrwt>
</event>
<event>
12    2  0.3561489E-008  0.1722071E+04  0.7818608E-02  0.8748876E-01
         -2   -1    0    0    0  501 -0.00000000000E+00  0.00000000000E+00  0.19187431984E+03  0.19187431984E+03  0.00000000000E+00 0. -1.
          2   -1    0    0  501    0  0.00000000000E+00 -0.00000000000E+00 -0.38638926549E+04  0.38638926549E+04  0.00000000000E+00 0.  1.
         23    2    1    2    0    0  0.12599508067E+03  0.50170774674E+01 -0.27131283277E+04  0.27169856981E+04  0.71035413360E+02 0.  0.
        254    2    1    2    0    0 -0.12599508067E+03 -0.50170774674E+01 -0.95889000741E+03  0.13387812766E+04  0.92572421862E+03 0.  0.
         23    2    4    4    0    0 -0.23951898123E+03 -0.30316521909E+03 -0.92368195486E+03  0.10053858515E+04  0.91290000286E+02 0.  0.
         23    2    4    4    0    0  0.11352390057E+03  0.29814814162E+03 -0.35208052546E+02  0.33339542516E+03  0.90182660208E+02 0.  0.
          3    1    3    3  502    0  0.42435358067E+02 -0.26763957571E+02 -0.13479317469E+04  0.13488651020E+04  0.00000000000E+00 0. -1.
         -3    1    3    3    0  502  0.83559722600E+02  0.31781035038E+02 -0.13651965808E+04  0.13681205961E+04  0.00000000000E+00 0.  1.
         11    1    5    5    0    0  0.67315957653E+01 -0.16929600816E+02 -0.28446086696E+02  0.33780254790E+02  0.00000000000E+00 0.  1.
        -11    1    5    5    0    0 -0.24625057700E+03 -0.28623561828E+03 -0.89523586817E+03  0.97160559668E+03  0.00000000000E+00 0. -1.
          2    1    6    6  503    0  0.96037275145E+02  0.13125432550E+03 -0.38470633418E+01  0.16268268524E+03  0.00000000000E+00 0. -1.
         -2    1    6    6    0  503  0.17486625422E+02  0.16689381613E+03 -0.31360989205E+02  0.17071273993E+03  0.00000000000E+00 0.  1.
<mgrwt>
<rscale>  0 0.17220706E+04</rscale>
<asrwt>0</asrwt>
<pdfrwt beam="1">  1        2 0.59444498E+00 0.17220706E+04</pdfrwt>
<pdfrwt beam="2">  1       -2 0.29519128E-01 0.17220706E+04</pdfrwt>
<totfact> 0.44676643E+00</totfact>
</mgrwt>
</event>
<event>
12    2  0.3561489E-008  0.1918512E+04  0.7818608E-02  0.8645696E-01
         -2   -1    0    0    0  501 -0.00000000000E+00  0.00000000000E+00  0.17909424272E+04  0.17909424272E+04  0.00000000000E+00 0.  1.
          2   -1    0    0  501    0  0.00000000000E+00 -0.00000000000E+00 -0.51379226860E+03  0.51379226860E+03  0.00000000000E+00 0. -1.
         23    2    1    2    0    0  0.26066151840E+03  0.10835634312E+02 -0.34019427347E+03  0.43813708401E+03  0.90388730156E+02 0.  0.
        254    2    1    2    0    0 -0.26066151840E+03 -0.10835634312E+02  0.16173444321E+04  0.18665976118E+04  0.89460706134E+03 0.  0.
         23    2    4    4    0    0  0.67885380056E+02 -0.33129050731E+03  0.27510425898E+03  0.44519419204E+03  0.90297786576E+02 0.  0.
         23    2    4    4    0    0 -0.32854689845E+03  0.32045487300E+03  0.13422401731E+04  0.14214034197E+04  0.90247488983E+02 0.  0.
          1    1    3    3  502    0  0.22821646111E+03  0.24978756997E+02 -0.32867439925E+03  0.40091589161E+03  0.00000000000E+00 0. -1.
         -1    1    3    3    0  502  0.32445057292E+02 -0.14143122685E+02 -0.11519874221E+02  0.37221192404E+02  0.00000000000E+00 0.  1.
         11    1    5    5    0    0  0.16970742160E+01 -0.21992712741E+03  0.18496284958E+03  0.28737097480E+03  0.00000000000E+00 0.  1.
        -11    1    5    5    0    0  0.66188305840E+02 -0.11136337990E+03  0.90141409394E+02  0.15782321724E+03  0.00000000000E+00 0. -1.
          4    1    6    6  503    0 -0.10552967647E+03  0.94704586221E+02  0.29806227369E+03  0.33007058376E+03  0.00000000000E+00 0. -1.
         -4    1    6    6    0  503 -0.22301722199E+03  0.22575028678E+03  0.10441778994E+04  0.10913328360E+04  0.00000000000E+00 0.  1.
<mgrwt>
<rscale>  0 0.19185123E+04</rscale>
<asrwt>0</asrwt>
<pdfrwt beam="1">  1        2 0.79044965E-01 0.19185123E+04</pdfrwt>
<pdfrwt beam="2">  1       -2 0.27552960E+00 0.19185123E+04</pdfrwt>
<totfact> 0.25028285E+00</totfact>
</mgrwt>
</event>
<event>
12    2  0.3561489E-008  0.1284338E+04  0.7818608E-02  0.9042079E-01
          1   -1    0    0  501    0  0.00000000000E+00  0.00000000000E+00  0.46913669353E+03  0.46913669353E+03  0.00000000000E+00 0. -1.
         -1   -1    0    0    0  501 -0.00000000000E+00 -0.00000000000E+00 -0.87902066491E+03  0.87902066491E+03  0.00000000000E+00 0.  1.
         23    2    1    2    0    0  0.72009028850E+02  0.87457695348E+02 -0.40675575627E+03  0.43219811113E+03  0.92254069290E+02 0.  0.
        254    2    1    2    0    0 -0.72009028850E+02 -0.87457695348E+02 -0.31282151202E+01  0.91595924730E+03  0.90892101322E+03 0.  0.
         23    2    4    4    0    0 -0.47251774411E+03  0.35931539429E+02 -0.48499839445E+02  0.48493721244E+03  0.90817242597E+02 0.  0.
         23    2    4    4    0    0  0.40050871526E+03 -0.12338923478E+03  0.45371624324E+02  0.43102203486E+03  0.89940402395E+02 0.  0.
          4    1    3    3  502    0  0.38326318479E+02  0.65703639881E+02 -0.11615895198E+03  0.13884803602E+03  0.00000000000E+00 0.  1.
         -4    1    3    3    0  502  0.33682710371E+02  0.21754055467E+02 -0.29059680429E+03  0.29335007511E+03  0.00000000000E+00 0. -1.
         11    1    5    5    0    0 -0.20540019285E+03  0.39961142131E+02 -0.59552772701E+02  0.21756071530E+03  0.00000000000E+00 0.  1.
        -11    1    5    5    0    0 -0.26711755126E+03 -0.40296027021E+01  0.11052933257E+02  0.26737649714E+03  0.00000000000E+00 0. -1.
          1    1    6    6  503    0  0.19303925685E+03 -0.23179114642E+02 -0.77271910919E+01  0.19457938104E+03  0.00000000000E+00 0. -1.
         -1    1    6    6    0  503  0.20746945841E+03 -0.10021012013E+03  0.53098815416E+02  0.23644265383E+03  0.00000000000E+00 0.  1.
<mgrwt>
<rscale>  0 0.12843377E+04</rscale>
<asrwt>0</asrwt>
<pdfrwt beam="1">  1        1 0.72174876E-01 0.12843377E+04</pdfrwt>
<pdfrwt beam="2">  1       -1 0.13523395E+00 0.12843377E+04</pdfrwt>
<totfact> 0.21829721E+01</totfact>
</mgrwt>
</event>
<event>
12    2  0.3561489E-008  0.1592578E+04  0.7818608E-02  0.8825121E-01
          2   -1    0    0  501    0  0.00000000000E+00  0.00000000000E+00  0.17779034096E+04  0.17779034096E+04  0.00000000000E+00 0. -1.
         -2   -1    0    0    0  501 -0.00000000000E+00 -0.00000000000E+00 -0.35664262567E+03  0.35664262567E+03  0.00000000000E+00 0.  1.
         23    2    1    2    0    0 -0.17548026176E+03 -0.49532546730E+03  0.62267614304E+03  0.81969397965E+03  0.89621427936E+02 0.  0.
        254    2    1    2    0    0  0.17548026176E+03  0.49532546730E+03  0.79858464093E+03  0.13148520557E+04  0.90275016407E+03 0.  0.
         23    2    4    4    0    0  0.51675229761E+03  0.43326477233E+03  0.45905580287E+03  0.82099475657E+03  0.92460046206E+02 0.  0.
         23    2    4    4    0    0 -0.34127203585E+03  0.62060694967E+02  0.33952883806E+03  0.49385729909E+03  0.91088241174E+02 0.  0.
          1    1    3    3  502    0 -0.16759405450E+03 -0.43198485625E+03  0.50186383888E+03  0.68305636364E+03  0.00000000000E+00 0. -1.
         -1    1    3    3    0  502 -0.78862072614E+01 -0.63340611044E+02  0.12081230416E+03  0.13663761601E+03  0.00000000000E+00 0.  1.
         11    1    5    5    0    0  0.43931651747E+03  0.36693389025E+03  0.34641821396E+03  0.66906282313E+03  0.00000000000E+00 0. -1.
        -11    1    5    5    0    0  0.77435780142E+02  0.66330882082E+02  0.11263758891E+03  0.15193193344E+03  0.00000000000E+00 0.  1.
          4    1    6    6  503    0 -0.34602055797E+03  0.63715292754E+02  0.33935336143E+03  0.48882570409E+03  0.00000000000E+00 0. -1.
         -4    1    6    6    0  503  0.47485221235E+01 -0.16545977868E+01  0.17547663379E+00  0.50315949999E+01  0.00000000000E+00 0.  1.
<mgrwt>
<rscale>  0 0.15925780E+04</rscale>
<asrwt>0</asrwt>
<pdfrwt beam="1">  1        2 0.27352360E+00 0.15925780E+04</pdfrwt>
<pdfrwt beam="2">  1       -2 0.54868097E-01 0.15925780E+04</pdfrwt>
<totfact> 0.26607798E+01</totfact>
</mgrwt>
</event>
<event>
12    2  0.3561489E-008  0.1053465E+04  0.7818608E-02  0.9251773E-01
         -1   -1    0    0    0  501 -0.00000000000E+00  0.00000000000E+00  0.14478068093E+04  0.14478068093E+04  0.00000000000E+00 0.  1.
          1   -1    0    0  501    0  0.00000000000E+00 -0.00000000000E+00 -0.19163285817E+03  0.19163285817E+03  0.00000000000E+00 0. -1.
         23    2    1    2    0    0  0.30058989592E+02 -0.36753467099E+02  0.36716656595E+03  0.38104185521E+03  0.90151251083E+02 0.  0.
        254    2    1    2    0    0 -0.30058989592E+02  0.36753467099E+02  0.88900738522E+03  0.12583978123E+04  0.88936863157E+03 0.  0.
         23    2    4    4    0    0 -0.29271800601E+02 -0.83084650853E+02 -0.15691800259E+03  0.20167270378E+03  0.91042420856E+02 0.  0.
         23    2    4    4    0    0 -0.78718899136E+00  0.11983811795E+03  0.10459253878E+04  0.10567251085E+04  0.91357779823E+02 0.  0.
          4    1    3    3  502    0  0.31665185375E+01 -0.53369995201E+02  0.11405636442E+03  0.12596522334E+03  0.00000000000E+00 0. -1.
         -4    1    3    3    0  502  0.26892471054E+02  0.16616528103E+02  0.25311020154E+03  0.25507663187E+03  0.00000000000E+00 0.  1.
         11    1    5    5    0    0 -0.30935592173E+02 -0.64168905069E+02 -0.37022433981E+02  0.80282749447E+02  0.00000000000E+00 0.  1.
        -11    1    5    5    0    0  0.16637915728E+01 -0.18915745784E+02 -0.11989556861E+03  0.12138995433E+03  0.00000000000E+00 0. -1.
          4    1    6    6  503    0 -0.20220419767E+02  0.45941071357E+02  0.72871762812E+03  0.73044426820E+03  0.00000000000E+00 0. -1.
         -4    1    6    6    0  503  0.19433230775E+02  0.73897046595E+02  0.31720775969E+03  0.32628084032E+03  0.00000000000E+00 0.  1.
<mgrwt>
<rscale>  0 0.10534654E+04</rscale>
<asrwt>0</asrwt>
<pdfrwt beam="1">  1        1 0.29481979E-01 0.10534654E+04</pdfrwt>
<pdfrwt beam="2">  1       -1 0.22273950E+00 0.10534654E+04</pdfrwt>
<totfact> 0.16631401E+01</totfact>
</mgrwt>
</event>
<event>
12    2  0.3561489E-008  0.1072749E+04  0.7818608E-02  0.9232167E-01
          1   -1    0    0  501    0  0.00000000000E+00  0.00000000000E+00  0.31736034159E+04  0.31736034159E+04  0.00000000000E+00 0. -1.
         -1   -1    0    0    0  501 -0.00000000000E+00 -0.00000000000E+00 -0.90653288669E+02  0.90653288669E+02  0.00000000000E+00 0.  1.
         23    2    1    2    0    0 -0.93474075344E+02  0.10084908783E+03  0.34739063527E+03  0.38486809865E+03  0.92386463347E+02 0.  0.
        254    2    1    2    0    0  0.93474075344E+02 -0.10084908783E+03  0.27355594919E+04  0.28793886059E+04  0.88807942693E+03 0.  0.
         23    2    4    4    0    0  0.48083514350E+03 -0.29888233574E+02  0.13543552864E+04  0.14403786209E+04  0.91195328234E+02 0.  0.
         23    2    4    4    0    0 -0.38736106815E+03 -0.70960854260E+02  0.13812042055E+04  0.14390099850E+04  0.89110266990E+02 0.  0.
          2    1    3    3  502    0  0.15637150037E+01 -0.98839487040E+01  0.24082849895E+01  0.10292593608E+02  0.00000000000E+00 0.  1.
         -2    1    3    3    0  502 -0.95037790347E+02  0.11073303654E+03  0.34498235028E+03  0.37457550504E+03  0.00000000000E+00 0. -1.
         11    1    5    5    0    0  0.12891073569E+03  0.27651762762E+02  0.42392988350E+03  0.44395849343E+03  0.00000000000E+00 0.  1.
        -11    1    5    5    0    0  0.35192440780E+03 -0.57539996335E+02  0.93042540290E+03  0.99642012743E+03  0.00000000000E+00 0. -1.
          1    1    6    6  503    0 -0.34388188232E+03 -0.80934124967E+02  0.11320189362E+04  0.11858633790E+04  0.00000000000E+00 0. -1.
         -1    1    6    6    0  503 -0.43479185834E+02  0.99732707072E+01  0.24918526929E+03  0.25314660606E+03  0.00000000000E+00 0.  1.
<mgrwt>
<rscale>  0 0.10727490E+04</rscale>
<asrwt>0</asrwt>
<pdfrwt beam="1">  1        1 0.48824659E+00 0.10727490E+04</pdfrwt>
<pdfrwt beam="2">  1       -1 0.13946662E-01 0.10727490E+04</pdfrwt>
<totfact> 0.16820056E+01</totfact>
</mgrwt>
</event>
<event>
12    2  0.3561489E-008  0.2550536E+04  0.7818608E-02  0.8385200E-01
         -2   -1    0    0    0  501 -0.00000000000E+00  0.00000000000E+00  0.10915138798E+04  0.10915138798E+04  0.00000000000E+00 0.  1.
          2   -1    0    0  501    0  0.00000000000E+00 -0.00000000000E+00 -0.14899572709E+04  0.14899572709E+04  0.00000000000E+00 0. -1.
         23    2    1    2    0    0 -0.25088764942E+03 -0.23101113379E+03  0.90098843553E+03  0.96784776435E+03  0.92942871856E+02 0.  0.
        254    2    1    2    0    0  0.25088764942E+03  0.23101113379E+03 -0.12994318266E+04  0.16136233863E+04  0.89383813090E+03 0.  0.
         23    2    4    4    0    0  0.79055364328E+02 -0.13812546167E+03  0.56560938736E+02  0.19477399495E+03  0.97001935690E+02 0.  0.
         23    2    4    4    0    0  0.17183228510E+03  0.36913659546E+03 -0.13559927654E+04  0.14188493914E+04  0.92892708763E+02 0.  0.
          2    1    3    3  502    0  0.77621173019E+01 -0.95001560959E+01  0.21845735852E+02  0.25054732203E+02  0.00000000000E+00 0. -1.
         -2    1    3    3    0  502 -0.25864976673E+03 -0.22151097769E+03  0.87914269968E+03  0.94279303215E+03  0.00000000000E+00 0.  1.
         11    1    5    5    0    0  0.20961658300E+02  0.71477676063E+01  0.28050156861E+02  0.35739236147E+02  0.00000000000E+00 0.  1.
        -11    1    5    5    0    0  0.58093706029E+02 -0.14527322928E+03  0.28510781875E+02  0.15903475880E+03  0.00000000000E+00 0. -1.
          4    1    6    6  503    0  0.14776076094E+03  0.29444046304E+03 -0.95431560868E+03  0.10095774907E+04  0.00000000000E+00 0. -1.
         -4    1    6    6    0  503  0.24071524159E+02  0.74696132419E+02 -0.40167715670E+03  0.40927190068E+03  0.00000000000E+00 0.  1.
<mgrwt>
<rscale>  0 0.25505364E+04</rscale>
<asrwt>0</asrwt>
<pdfrwt beam="1">  1        2 0.22922420E+00 0.25505364E+04</pdfrwt>
<pdfrwt beam="2">  1       -2 0.16792521E+00 0.25505364E+04</pdfrwt>
<totfact> 0.25195235E+00</totfact>
</mgrwt>
</event>
<event>
12    2  0.3561489E-008  0.1162982E+04  0.7818608E-02  0.9145890E-01
          2   -1    0    0  501    0  0.00000000000E+00  0.00000000000E+00  0.18877397198E+04  0.18877397198E+04  0.00000000000E+00 0. -1.
         -2   -1    0    0    0  501 -0.00000000000E+00 -0.00000000000E+00 -0.17911990500E+03  0.17911990500E+03  0.00000000000E+00 0.  1.
         23    2    1    2    0    0 -0.16632477203E+03  0.87361476383E+02  0.55883102671E+03  0.59614655071E+03  0.88332531708E+02 0.  0.
        254    2    1    2    0    0  0.16632477203E+03 -0.87361476383E+02  0.11497887880E+04  0.14707130741E+04  0.89760054130E+03 0.  0.
         23    2    4    4    0    0  0.46051062210E+03  0.18815619478E+02  0.29221080523E+03  0.55336128025E+03  0.91637826144E+02 0.  0.
         23    2    4    4    0    0 -0.29418585008E+03 -0.10617709586E+03  0.85757798281E+03  0.91735179380E+03  0.90969373533E+02 0.  0.
          3    1    3    3  502    0 -0.11937400123E+03  0.94335994319E+02  0.34418090548E+03  0.37631094549E+03  0.00000000000E+00 0. -1.
         -3    1    3    3    0  502 -0.46950770796E+02 -0.69745179363E+01  0.21465012123E+03  0.21983560522E+03  0.00000000000E+00 0.  1.
         11    1    5    5    0    0  0.36853439812E+03  0.51447594258E+02  0.23821021669E+03  0.44182413344E+03  0.00000000000E+00 0. -1.
        -11    1    5    5    0    0  0.91976223982E+02 -0.32631974780E+02  0.54000588536E+02  0.11153714681E+03  0.00000000000E+00 0.  1.
          1    1    6    6  503    0 -0.26907572485E+03 -0.80243906178E+02  0.81220844647E+03  0.85937383641E+03  0.00000000000E+00 0. -1.
         -1    1    6    6    0  503 -0.25110125228E+02 -0.25933189683E+02  0.45369536337E+02  0.57977957393E+02  0.00000000000E+00 0.  1.
<mgrwt>
<rscale>  0 0.11629820E+04</rscale>
<asrwt>0</asrwt>
<pdfrwt beam="1">  1        2 0.29042148E+00 0.11629820E+04</pdfrwt>
<pdfrwt beam="2">  1       -2 0.27556910E-01 0.11629820E+04</pdfrwt>
<totfact> 0.91665820E+01</totfact>
</mgrwt>
</event>
<event>
12    2  0.3561489E-008  0.1860814E+04  0.7818608E-02  0.8674611E-01
          2   -1    0    0  501    0  0.00000000000E+00  0.00000000000E+00  0.35108599668E+04  0.35108599668E+04  0.00000000000E+00 0. -1.
         -2   -1    0    0    0  501 -0.00000000000E+00 -0.00000000000E+00 -0.24656560822E+03  0.24656560822E+03  0.00000000000E+00 0.  1.
         23    2    1    2    0    0  0.60857882201E+03 -0.25721845910E+02  0.19583649217E+04  0.20517881379E+04  0.60096592881E+02 0.  0.
        254    2    1    2    0    0 -0.60857882201E+03  0.25721845910E+02  0.13059294369E+04  0.17056374371E+04  0.91253360306E+03 0.  0.
         23    2    4    4    0    0 -0.49023893517E+03 -0.27967625407E+03  0.30409701633E+03  0.64780445176E+03  0.92857911498E+02 0.  0.
         23    2    4    4    0    0 -0.11833988685E+03  0.30539809998E+03  0.10018324205E+04  0.10578329853E+04  0.89833722523E+02 0.  0.
          4    1    3    3  502    0  0.49199978369E+03 -0.38117876849E+02  0.16338217201E+04  0.17067191253E+04  0.00000000000E+00 0. -1.
         -4    1    3    3    0  502  0.11657903833E+03  0.12396030939E+02  0.32454320162E+03  0.34506901263E+03  0.00000000000E+00 0.  1.
         11    1    5    5    0    0 -0.42734002288E+03 -0.21098862218E+03  0.27496229830E+03  0.55021810160E+03  0.00000000000E+00 0.  1.
        -11    1    5    5    0    0 -0.62898912291E+02 -0.68687631888E+02  0.29134718030E+02  0.97586350154E+02  0.00000000000E+00 0. -1.
          1    1    6    6  503    0 -0.10157501283E+03  0.14216496743E+03  0.48017063047E+03  0.51097181484E+03  0.00000000000E+00 0. -1.
         -1    1    6    6    0  503 -0.16764874020E+02  0.16323313255E+03  0.52166179007E+03  0.54686117048E+03  0.00000000000E+00 0.  1.
<mgrwt>
<rscale>  0 0.18608141E+04</rscale>
<asrwt>0</asrwt>
<pdfrwt beam="1">  1        2 0.54013227E+00 0.18608141E+04</pdfrwt>
<pdfrwt beam="2">  1       -2 0.37933173E-01 0.18608141E+04</pdfrwt>
<totfact> 0.49596454E+00</totfact>
</mgrwt>
</event>
<event>
12    2  0.3561489E-008  0.1662313E+04  0.7818608E-02  0.8783155E-01
          3   -1    0    0  501    0  0.00000000000E+00  0.00000000000E+00  0.41707731696E+03  0.41707731696E+03  0.00000000000E+00 0. -1.
         -3   -1    0    0    0  501 -0.00000000000E+00 -0.00000000000E+00 -0.16563380361E+04  0.16563380361E+04  0.00000000000E+00 0.  1.
         23    2    1    2    0    0 -0.15145079647E+03 -0.23427362635E+03  0.19896712164E+03  0.35481008969E+03  0.92091305219E+02 0.  0.
        254    2    1    2    0    0  0.15145079647E+03  0.23427362635E+03 -0.14382278408E+04  0.17186052633E+04  0.89848942871E+03 0.  0.
         23    2    4    4    0    0  0.31889959997E+03  0.42430496808E+03 -0.13167736344E+04  0.14228143535E+04  0.93681479942E+02 0.  0.
         23    2    4    4    0    0 -0.16744880350E+03 -0.19003134172E+03 -0.12145420640E+03  0.29579090981E+03  0.92682929610E+02 0.  0.
          1    1    3    3  502    0 -0.10428139324E+03 -0.20708876367E+03  0.12636040294E+03  0.26405930479E+03  0.00000000000E+00 0. -1.
         -1    1    3    3    0  502 -0.47169403228E+02 -0.27184862686E+02  0.72606718702E+02  0.90750784905E+02  0.00000000000E+00 0.  1.
         11    1    5    5    0    0  0.54472198328E+01  0.50816679666E+02 -0.13914005523E+03  0.14822942389E+03  0.00000000000E+00 0.  1.
        -11    1    5    5    0    0  0.31345238014E+03  0.37348828841E+03 -0.11776335791E+04  0.12745849296E+04  0.00000000000E+00 0. -1.
          3    1    6    6  503    0 -0.72477676960E+02 -0.14053026512E+03 -0.98409002529E+02  0.18624204910E+03  0.00000000000E+00 0. -1.
         -3    1    6    6    0  503 -0.94971126544E+02 -0.49501076600E+02 -0.23045203868E+02  0.10954886071E+03  0.00000000000E+00 0.  1.
<mgrwt>
<rscale>  0 0.16623129E+04</rscale>
<asrwt>0</asrwt>
<pdfrwt beam="1">  1        3 0.64165740E-01 0.16623129E+04</pdfrwt>
<pdfrwt beam="2">  1       -3 0.25482124E+00 0.16623129E+04</pdfrwt>
<totfact> 0.40382041E-01</totfact>
</mgrwt>
</event>
<event>
12    2  0.3561489E-008  0.1179625E+04  0.7818608E-02  0.9130880E-01
         -2   -1    0    0    0  501 -0.00000000000E+00  0.00000000000E+00  0.50861079120E+03  0.50861079120E+03  0.00000000000E+00 0.  1.
          2   -1    0    0  501    0  0.00000000000E+00 -0.00000000000E+00 -0.68397821961E+03  0.68397821961E+03  0.00000000000E+00 0. -1.
         23    2    1    2    0    0 -0.17262861206E+03 -0.14853050161E+03  0.19490250295E+02  0.24625751546E+03  0.91656677064E+02 0.  0.
        254    2    1    2    0    0  0.17262861206E+03  0.14853050161E+03 -0.19485767870E+03  0.94633149536E+03  0.89761452559E+03 0.  0.
         23    2    4    4    0    0  0.47213697424E+02  0.36716843072E+03  0.22917780407E+03  0.44507970472E+03  0.92367136628E+02 0.  0.
         23    2    4    4    0    0  0.12541491464E+03 -0.21863792911E+03 -0.42403548277E+03  0.50125179064E+03  0.88970905999E+02 0.  0.
          2    1    3    3  502    0  0.13226498057E+01 -0.23400306954E+02  0.21734387396E+02  0.31964157482E+02  0.00000000000E+00 0.  1.
         -2    1    3    3    0  502 -0.17395126187E+03 -0.12513019466E+03 -0.22441371016E+01  0.21429335797E+03  0.00000000000E+00 0. -1.
         11    1    5    5    0    0  0.35601040557E+02  0.36729658064E+03  0.21629727681E+03  0.42773674636E+03  0.00000000000E+00 0. -1.
        -11    1    5    5    0    0  0.11612656867E+02 -0.12814991227E+00  0.12880527263E+02  0.17342958354E+02  0.00000000000E+00 0.  1.
          3    1    6    6  503    0  0.11277786207E+03 -0.15222881898E+03 -0.24380812519E+03  0.30876343924E+03  0.00000000000E+00 0. -1.
         -3    1    6    6    0  503  0.12637052565E+02 -0.66409110130E+02 -0.18022735758E+03  0.19248835140E+03  0.00000000000E+00 0.  1.
<mgrwt>
<rscale>  0 0.11796249E+04</rscale>
<asrwt>0</asrwt>
<pdfrwt beam="1">  1        2 0.10522742E+00 0.11796249E+04</pdfrwt>
<pdfrwt beam="2">  1       -2 0.78247815E-01 0.11796249E+04</pdfrwt>
<totfact> 0.60591622E+01</totfact>
</mgrwt>
</event>
<event>
12    2  0.3561489E-008  0.1242849E+04  0.7818608E-02  0.9076156E-01
         -1   -1    0    0    0  501 -0.00000000000E+00  0.00000000000E+00  0.88311472971E+03  0.88311472971E+03  0.00000000000E+00 0.  1.
          1   -1    0    0  501    0  0.00000000000E+00 -0.00000000000E+00 -0.43727972789E+03  0.43727972789E+03  0.00000000000E+00 0. -1.
         23    2    1    2    0    0  0.15118913265E+02 -0.35949449383E+02  0.40441957625E+03  0.41616092788E+03  0.90076521869E+02 0.  0.
        254    2    1    2    0    0 -0.15118913265E+02  0.35949449383E+02  0.41415425567E+02  0.90423352972E+03  0.90244229420E+03 0.  0.
         23    2    4    4    0    0  0.23697262831E+03  0.11210614535E+02  0.38852909702E+03  0.46437175457E+03  0.91676402470E+02 0.  0.
         23    2    4    4    0    0 -0.25209154157E+03  0.24738834848E+02 -0.34711367145E+03  0.43986177515E+03  0.93959166931E+02 0.  0.
          4    1    3    3  502    0  0.22112009453E+02  0.26953346692E+02  0.14199717829E+03  0.14621430334E+03  0.00000000000E+00 0. -1.
         -4    1    3    3    0  502 -0.69930961883E+01 -0.62902796076E+02  0.26242239796E+03  0.26994662454E+03  0.00000000000E+00 0.  1.
         11    1    5    5    0    0  0.21908687811E+03  0.41168109874E+01  0.28728338097E+03  0.36131392068E+03  0.00000000000E+00 0. -1.
        -11    1    5    5    0    0  0.17885750194E+02  0.70938035481E+01  0.10124571605E+03  0.10305783390E+03  0.00000000000E+00 0.  1.
          4    1    6    6  503    0 -0.72049090430E+02  0.24047296679E+02 -0.17505613714E+03  0.19082451378E+03  0.00000000000E+00 0.  1.
         -4    1    6    6    0  503 -0.18004245114E+03  0.69153816933E+00 -0.17205753431E+03  0.24903726137E+03  0.00000000000E+00 0. -1.
<mgrwt>
<rscale>  0 0.12428486E+04</rscale>
<asrwt>0</asrwt>
<pdfrwt beam="1">  1        1 0.67273805E-01 0.12428486E+04</pdfrwt>
<pdfrwt beam="2">  1       -1 0.13586380E+00 0.12428486E+04</pdfrwt>
<totfact> 0.23805225E+01</totfact>
</mgrwt>
</event>
<event>
12    2  0.3561489E-008  0.2452434E+04  0.7818608E-02  0.8420130E-01
         -1   -1    0    0    0  501 -0.00000000000E+00  0.00000000000E+00  0.24862551922E+04  0.24862551922E+04  0.00000000000E+00 0.  1.
          1   -1    0    0  501    0  0.00000000000E+00 -0.00000000000E+00 -0.60476814333E+03  0.60476814333E+03  0.00000000000E+00 0. -1.
         23    2    1    2    0    0  0.62726517115E+03  0.23984329315E+03  0.18504577371E+04  0.19706173162E+04  0.90290475348E+02 0.  0.
        254    2    1    2    0    0 -0.62726517115E+03 -0.23984329315E+03  0.31029311773E+02  0.11204060193E+04  0.89630375976E+03 0.  0.
         23    2    4    4    0    0 -0.54474204011E+03 -0.22946536984E+03  0.40726299237E+03  0.72368767503E+03  0.91991629095E+02 0.  0.
         23    2    4    4    0    0 -0.82523131045E+02 -0.10377923305E+02 -0.37623368059E+03  0.39671834430E+03  0.94424010946E+02 0.  0.
          1    1    3    3  502    0  0.15621330557E+03  0.99896121790E+02  0.54989514730E+03  0.58031586658E+03  0.00000000000E+00 0. -1.
         -1    1    3    3    0  502  0.47105186558E+03  0.13994717136E+03  0.13005625898E+04  0.13903014497E+04  0.00000000000E+00 0.  1.
         11    1    5    5    0    0 -0.44551058346E+03 -0.16113135546E+03  0.35669764390E+03  0.59302293619E+03  0.00000000000E+00 0. -1.
        -11    1    5    5    0    0 -0.99231456647E+02 -0.68334014388E+02  0.50565348470E+02  0.13066473884E+03  0.00000000000E+00 0.  1.
          3    1    6    6  503    0 -0.15272157239E+02 -0.46583651274E+02 -0.13135111053E+03  0.14020124675E+03  0.00000000000E+00 0. -1.
         -3    1    6    6    0  503 -0.67250973806E+02  0.36205727969E+02 -0.24488257006E+03  0.25651709755E+03  0.00000000000E+00 0.  1.
<mgrwt>
<rscale>  0 0.24524338E+04</rscale>
<asrwt>0</asrwt>
<pdfrwt beam="1">  1        1 0.93041254E-01 0.24524338E+04</pdfrwt>
<pdfrwt beam="2">  1       -1 0.38250079E+00 0.24524338E+04</pdfrwt>
<totfact> 0.28430948E-01</totfact>
</mgrwt>
</event>
<event>
12    2  0.3561489E-008  0.2154078E+04  0.7818608E-02  0.8537789E-01
         -2   -1    0    0    0  501 -0.00000000000E+00  0.00000000000E+00  0.17601529102E+04  0.17601529102E+04  0.00000000000E+00 0.  1.
          2   -1    0    0  501    0  0.00000000000E+00 -0.00000000000E+00 -0.65904104252E+03  0.65904104252E+03  0.00000000000E+00 0. -1.
         23    2    1    2    0    0  0.32670774110E+02  0.18777621259E+03 -0.51587782086E+03  0.55783611885E+03  0.93401948258E+02 0.  0.
        254    2    1    2    0    0 -0.32670774110E+02 -0.18777621259E+03  0.16169896885E+04  0.18613578338E+04  0.90203661088E+03 0.  0.
         23    2    4    4    0    0 -0.29194088889E+03 -0.19229699109E+03  0.15315473566E+04  0.15735509164E+04  0.90650789135E+02 0.  0.
         23    2    4    4    0    0  0.25927011478E+03  0.45207784994E+01  0.85442331937E+02  0.28780691748E+03  0.91054927435E+02 0.  0.
          2    1    3    3  502    0  0.33115409720E+02  0.12989125394E+03 -0.45279026891E+03  0.47221541253E+03  0.00000000000E+00 0. -1.
         -2    1    3    3    0  502 -0.44463561015E+00  0.57884958653E+02 -0.63087551946E+02  0.85620706313E+02  0.00000000000E+00 0.  1.
         11    1    5    5    0    0 -0.31549299506E+01  0.81874946786E+01  0.57199757157E+02  0.57868824690E+02  0.00000000000E+00 0. -1.
        -11    1    5    5    0    0 -0.28878595894E+03 -0.20048448577E+03  0.14743475994E+04  0.15156820917E+04  0.00000000000E+00 0.  1.
          1    1    6    6  503    0  0.38734271293E+02  0.25595615528E+02  0.40813228954E+02  0.61815847196E+02  0.00000000000E+00 0. -1.
         -1    1    6    6    0  503  0.22053584348E+03 -0.21074837029E+02  0.44629102983E+02  0.22599107029E+03  0.00000000000E+00 0.  1.
<mgrwt>
<rscale>  0 0.21540780E+04</rscale>
<asrwt>0</asrwt>
<pdfrwt beam="1">  1        2 0.10139093E+00 0.21540780E+04</pdfrwt>
<pdfrwt beam="2">  1       -2 0.27079275E+00 0.21540780E+04</pdfrwt>
<totfact> 0.19437576E+00</totfact>
</mgrwt>
</event>
<event>
12    2  0.3561489E-008  0.1097269E+04  0.7818608E-02  0.9207858E-01
          2   -1    0    0  501    0  0.00000000000E+00  0.00000000000E+00  0.17562065936E+03  0.17562065936E+03  0.00000000000E+00 0. -1.
         -2   -1    0    0    0  501 -0.00000000000E+00 -0.00000000000E+00 -0.17139206954E+04  0.17139206954E+04  0.00000000000E+00 0.  1.
         23    2    1    2    0    0  0.87994769439E+02  0.21360480903E+02 -0.30592631242E+02  0.13354541981E+03  0.93269075653E+02 0.  0.
        254    2    1    2    0    0 -0.87994769439E+02 -0.21360480903E+02 -0.15077074048E+04  0.17559959349E+04  0.89562311017E+03 0.  0.
         23    2    4    4    0    0  0.32835612482E+03 -0.13073560075E+03 -0.10889263588E+04  0.11485245370E+04  0.91861064840E+02 0.  0.
         23    2    4    4    0    0 -0.41635089426E+03  0.10937511985E+03 -0.41878104595E+03  0.60747139789E+03  0.91284997741E+02 0.  0.
          1    1    3    3  502    0  0.48169324477E+02 -0.29685449965E+02  0.95278211357E+01  0.57378472756E+02  0.00000000000E+00 0. -1.
         -1    1    3    3    0  502  0.39825444961E+02  0.51045930868E+02 -0.40120452378E+02  0.76166947054E+02  0.00000000000E+00 0.  1.
         11    1    5    5    0    0  0.17124297952E+03 -0.28651885813E+02 -0.61078911833E+03  0.63498695708E+03  0.00000000000E+00 0.  1.
        -11    1    5    5    0    0  0.15711314530E+03 -0.10208371494E+03 -0.47813724049E+03  0.51353757996E+03  0.00000000000E+00 0. -1.
          2    1    6    6  503    0 -0.53032077988E+02  0.47074062371E+02 -0.78737470055E+02  0.10596205847E+03  0.00000000000E+00 0. -1.
         -2    1    6    6    0  503 -0.36331881627E+03  0.62301057480E+02 -0.34004357590E+03  0.50150933942E+03  0.00000000000E+00 0.  1.
<mgrwt>
<rscale>  0 0.10972691E+04</rscale>
<asrwt>0</asrwt>
<pdfrwt beam="1">  1        2 0.27018563E-01 0.10972691E+04</pdfrwt>
<pdfrwt beam="2">  1       -2 0.26368011E+00 0.10972691E+04</pdfrwt>
<totfact> 0.10620635E+01</totfact>
</mgrwt>
</event>
<event>
12    2  0.3561489E-008  0.1252778E+04  0.7818608E-02  0.9067874E-01
         -1   -1    0    0    0  501 -0.00000000000E+00  0.00000000000E+00  0.61513912469E+03  0.61513912469E+03  0.00000000000E+00 0.  1.
          1   -1    0    0  501    0  0.00000000000E+00 -0.00000000000E+00 -0.63784445777E+03  0.63784445777E+03  0.00000000000E+00 0. -1.
         23    2    1    2    0    0  0.88601911032E+02 -0.59075697631E+02  0.25511177578E+03  0.29214652571E+03  0.94484589496E+02 0.  0.
        254    2    1    2    0    0 -0.88601911032E+02  0.59075697631E+02 -0.27781710886E+03  0.96083705675E+03  0.91361111364E+03 0.  0.
         23    2    4    4    0    0  0.91233952587E+02 -0.29547142440E+03 -0.41892312607E+03  0.52800621032E+03  0.87561269072E+02 0.  0.
         23    2    4    4    0    0 -0.17983586362E+03  0.35454712203E+03  0.14110601721E+03  0.43283084644E+03  0.96886706777E+02 0.  0.
          3    1    3    3  502    0 -0.14041155900E+02 -0.19306815588E+02  0.15510949139E+02  0.28469224266E+02  0.00000000000E+00 0. -1.
         -3    1    3    3    0  502  0.10264306693E+03 -0.39768882044E+02  0.23960082664E+03  0.26367730144E+03  0.00000000000E+00 0.  1.
         11    1    5    5    0    0 -0.68758846429E+01 -0.82436627916E+00 -0.27463963594E+02  0.28323606156E+02  0.00000000000E+00 0.  1.
        -11    1    5    5    0    0  0.98109837229E+02 -0.29464705812E+03 -0.39145916247E+03  0.49968260416E+03  0.00000000000E+00 0. -1.
          2    1    6    6  503    0 -0.10101553151E+03  0.24498848530E+03  0.13578553900E+03  0.29776031996E+03  0.00000000000E+00 0. -1.
         -2    1    6    6    0  503 -0.78820332104E+02  0.10955863673E+03  0.53204782010E+01  0.13507052648E+03  0.00000000000E+00 0.  1.
<mgrwt>
<rscale>  0 0.12527778E+04</rscale>
<asrwt>0</asrwt>
<pdfrwt beam="1">  1        1 0.98129916E-01 0.12527778E+04</pdfrwt>
<pdfrwt beam="2">  1       -1 0.94636789E-01 0.12527778E+04</pdfrwt>
<totfact> 0.33368655E+01</totfact>
</mgrwt>
</event>
<event>
12    2  0.3561489E-008  0.2497435E+04  0.7818608E-02  0.8403900E-01
          2   -1    0    0  501    0  0.00000000000E+00  0.00000000000E+00  0.13926394854E+04  0.13926394854E+04  0.00000000000E+00 0.  1.
         -2   -1    0    0    0  501 -0.00000000000E+00 -0.00000000000E+00 -0.11196686545E+04  0.11196686545E+04  0.00000000000E+00 0. -1.
         23    2    1    2    0    0 -0.24836610036E+03 -0.65862343701E+03 -0.69183680114E+03  0.99186378215E+03  0.98412658390E+02 0.  0.
        254    2    1    2    0    0  0.24836610036E+03  0.65862343701E+03  0.96480763202E+03  0.15204443578E+04  0.94097116144E+03 0.  0.
         23    2    4    4    0    0  0.49017085553E+03  0.66244536294E+03  0.44691684481E+03  0.94193874364E+03  0.91720249159E+02 0.  0.
         23    2    4    4    0    0 -0.24180475516E+03 -0.38219259274E+01  0.51789078721E+03  0.57850561412E+03  0.89295752206E+02 0.  0.
          2    1    3    3  502    0 -0.24212549460E+03 -0.58977701421E+03 -0.65280078398E+03  0.91247495592E+03  0.00000000000E+00 0. -1.
         -2    1    3    3    0  502 -0.62406057631E+01 -0.68846422807E+02 -0.39036017160E+02  0.79388826225E+02  0.00000000000E+00 0.  1.
         11    1    5    5    0    0  0.81259283752E+02  0.13042650018E+03  0.46553074799E+02  0.16056566232E+03  0.00000000000E+00 0.  1.
        -11    1    5    5    0    0  0.40891157178E+03  0.53201886276E+03  0.40036377001E+03  0.78137308132E+03  0.00000000000E+00 0. -1.
          3    1    6    6  503    0 -0.17007694415E+03  0.30698489535E+02  0.29589540100E+03  0.34266988856E+03  0.00000000000E+00 0. -1.
         -3    1    6    6    0  503 -0.71727811011E+02 -0.34520415462E+02  0.22199538620E+03  0.23583572556E+03  0.00000000000E+00 0.  1.
<mgrwt>
<rscale>  0 0.24974345E+04</rscale>
<asrwt>0</asrwt>
<pdfrwt beam="1">  1        2 0.21425223E+00 0.24974345E+04</pdfrwt>
<pdfrwt beam="2">  1       -2 0.17225671E+00 0.24974345E+04</pdfrwt>
<totfact> 0.26779596E+00</totfact>
</mgrwt>
</event>
<event>
12    2  0.3561489E-008  0.1706258E+04  0.7818608E-02  0.8757803E-01
         -2   -1    0    0    0  501 -0.00000000000E+00  0.00000000000E+00  0.35736672562E+03  0.35736672562E+03  0.00000000000E+00 0.  1.
          2   -1    0    0  501    0  0.00000000000E+00 -0.00000000000E+00 -0.20366451736E+04  0.20366451736E+04  0.00000000000E+00 0. -1.
         23    2    1    2    0    0 -0.18362364664E+03  0.54221924077E+03 -0.35326909866E+03  0.68346281054E+03  0.12084290899E+03 0.  0.
        254    2    1    2    0    0  0.18362364664E+03 -0.54221924077E+03 -0.13260093493E+04  0.17105490887E+04  0.91649224856E+03 0.  0.
         23    2    4    4    0    0  0.27333618923E+03  0.17249169252E+03 -0.58117566505E+03  0.67122345031E+03  0.91157612201E+02 0.  0.
         23    2    4    4    0    0 -0.89712542590E+02 -0.71471093329E+03 -0.74483368428E+03  0.10393256384E+04  0.80996956178E+02 0.  0.
          4    1    3    3  502    0 -0.15650866688E+03  0.53179317247E+03 -0.34618285069E+03  0.65356063775E+03  0.00000000000E+00 0. -1.
         -4    1    3    3    0  502 -0.27114979758E+02  0.10426068295E+02 -0.70862479693E+01  0.29902172791E+02  0.00000000000E+00 0.  1.
         11    1    5    5    0    0  0.24291727137E+03  0.12979929844E+03 -0.42459002011E+03  0.50609618036E+03  0.00000000000E+00 0.  1.
        -11    1    5    5    0    0  0.30418917863E+02  0.42692394087E+02 -0.15658564494E+03  0.16512726994E+03  0.00000000000E+00 0. -1.
          2    1    6    6  503    0 -0.53321793287E+01 -0.29553821326E+03 -0.26987313849E+03  0.40025339288E+03  0.00000000000E+00 0. -1.
         -2    1    6    6    0  503 -0.84380363261E+02 -0.41917272003E+03 -0.47496054579E+03  0.63907224551E+03  0.00000000000E+00 0.  1.
<mgrwt>
<rscale>  0 0.17062581E+04</rscale>
<asrwt>0</asrwt>
<pdfrwt beam="1">  1        2 0.31333003E+00 0.17062581E+04</pdfrwt>
<pdfrwt beam="2">  1       -2 0.54979495E-01 0.17062581E+04</pdfrwt>
<totfact> 0.18866163E+01</totfact>
</mgrwt>
</event>
<event>
12    2  0.3561489E-008  0.2589365E+04  0.7818608E-02  0.8371823E-01
          1   -1    0    0  501    0  0.00000000000E+00  0.00000000000E+00  0.52970659891E+03  0.52970659891E+03  0.00000000000E+00 0. -1.
         -1   -1    0    0    0  501 -0.00000000000E+00 -0.00000000000E+00 -0.31643995359E+04  0.31643995359E+04  0.00000000000E+00 0.  1.
         23    2    1    2    0    0 -0.92996437986E+03  0.17748891166E+02 -0.23852270324E+03  0.96454493730E+03  0.91132239987E+02 0.  0.
        254    2    1    2    0    0  0.92996437986E+03 -0.17748891166E+02 -0.23961702338E+04  0.27295611975E+04  0.91854437610E+03 0.  0.
         23    2    4    4    0    0  0.69245913653E+03 -0.32848082262E+03 -0.20797333556E+04  0.22182510790E+04  0.89149944306E+02 0.  0.
         23    2    4    4    0    0  0.23750524333E+03  0.31073193146E+03 -0.31643687818E+03  0.51131011851E+03  0.91338193453E+02 0.  0.
          2    1    3    3  502    0 -0.66579850695E+03  0.52060332258E+02 -0.18275440578E+03  0.69238508280E+03  0.00000000000E+00 0. -1.
         -2    1    3    3    0  502 -0.26416587291E+03 -0.34311441092E+02 -0.55768297454E+02  0.27215985450E+03  0.00000000000E+00 0.  1.
         11    1    5    5    0    0  0.55034426177E+03 -0.24253110566E+03 -0.17175914557E+04  0.18198408041E+04  0.00000000000E+00 0. -1.
        -11    1    5    5    0    0  0.14211487475E+03 -0.85949716962E+02 -0.36214189989E+03  0.39841027488E+03  0.00000000000E+00 0.  1.
          3    1    6    6  503    0  0.23676680547E+03  0.29812677852E+03 -0.27954483108E+03  0.47231706387E+03  0.00000000000E+00 0. -1.
         -3    1    6    6    0  503  0.73843786448E+00  0.12605152943E+02 -0.36892047098E+02  0.38993054641E+02  0.00000000000E+00 0.  1.
<mgrwt>
<rscale>  0 0.25893654E+04</rscale>
<asrwt>0</asrwt>
<pdfrwt beam="1">  1        1 0.81493324E-01 0.25893654E+04</pdfrwt>
<pdfrwt beam="2">  1       -1 0.48683069E+00 0.25893654E+04</pdfrwt>
<totfact> 0.65370054E-02</totfact>
</mgrwt>
</event>
<event>
12    2  0.3561489E-008  0.1122712E+04  0.7818608E-02  0.9183334E-01
         -2   -1    0    0    0  501 -0.00000000000E+00  0.00000000000E+00  0.12335048982E+03  0.12335048982E+03  0.00000000000E+00 0.  1.
          2   -1    0    0  501    0  0.00000000000E+00 -0.00000000000E+00 -0.25546741340E+04  0.25546741340E+04  0.00000000000E+00 0. -1.
         23    2    1    2    0    0  0.94964673171E+02 -0.42092301786E+01 -0.85177311690E+03  0.86197952218E+03  0.91952418271E+02 0.  0.
        254    2    1    2    0    0 -0.94964673171E+02  0.42092301786E+01 -0.15795505273E+04  0.18160451016E+04  0.89106898506E+03 0.  0.
         23    2    4    4    0    0  0.26506345377E+03 -0.29269645871E+03 -0.56355896617E+03  0.69414779833E+03  0.91173494575E+02 0.  0.
         23    2    4    4    0    0 -0.36002812694E+03  0.29690568889E+03 -0.10159915611E+04  0.11218973033E+04  0.92959489003E+02 0.  0.
          1    1    3    3  502    0  0.44961606757E+01 -0.16129094081E+02 -0.43552554898E+03  0.43584729774E+03  0.00000000000E+00 0. -1.
         -1    1    3    3    0  502  0.90468512496E+02  0.11919863903E+02 -0.41624756792E+03  0.42613222444E+03  0.00000000000E+00 0.  1.
         11    1    5    5    0    0  0.52143927603E+01  0.53249203449E+01 -0.24609089141E+02  0.25712874924E+02  0.00000000000E+00 0. -1.
        -11    1    5    5    0    0  0.25984906101E+03 -0.29802137906E+03 -0.53894987703E+03  0.66843492341E+03  0.00000000000E+00 0.  1.
          3    1    6    6  503    0 -0.45372298819E+02  0.22300387869E+02 -0.58686947105E+02  0.77460380581E+02  0.00000000000E+00 0. -1.
         -3    1    6    6    0  503 -0.31465582812E+03  0.27460530102E+03 -0.95730461399E+03  0.10444369227E+04  0.00000000000E+00 0.  1.
<mgrwt>
<rscale>  0 0.11227115E+04</rscale>
<asrwt>0</asrwt>
<pdfrwt beam="1">  1        2 0.39302676E+00 0.11227115E+04</pdfrwt>
<pdfrwt beam="2">  1       -2 0.18977000E-01 0.11227115E+04</pdfrwt>
<totfact> 0.75858629E+01</totfact>
</mgrwt>
</event>
<event>
12    2  0.3561489E-008  0.1812112E+04  0.7818608E-02  0.8699885E-01
         -2   -1    0    0    0  501 -0.00000000000E+00  0.00000000000E+00  0.13402392928E+04  0.13402392928E+04  0.00000000000E+00 0. -1.
          2   -1    0    0  501    0  0.00000000000E+00 -0.00000000000E+00 -0.61253042312E+03  0.61253042312E+03  0.00000000000E+00 0.  1.
         23    2    1    2    0    0  0.61817421442E+03  0.14934623074E+03  0.52710966491E+03  0.83571546760E+03  0.12701215665E+03 0.  0.
        254    2    1    2    0    0 -0.61817421442E+03 -0.14934623074E+03  0.20059920481E+03  0.11170542484E+04  0.89617325154E+03 0.  0.
         23    2    4    4    0    0 -0.63423215907E+03 -0.22200175824E+03 -0.19354579230E+03  0.70591975675E+03  0.96579071170E+02 0.  0.
         23    2    4    4    0    0  0.16057944647E+02  0.72655527500E+02  0.39414499710E+03  0.41113449161E+03  0.90247482980E+02 0.  0.
          3    1    3    3  502    0  0.56861054610E+03  0.15650996680E+03  0.51772987081E+03  0.78476591540E+03  0.00000000000E+00 0. -1.
         -3    1    3    3    0  502  0.49563668326E+02 -0.71637360655E+01  0.93797940949E+01  0.50949552202E+02  0.00000000000E+00 0.  1.
         11    1    5    5    0    0 -0.10401393661E+03 -0.69736963529E+02 -0.57188675347E+02  0.13766876072E+03  0.00000000000E+00 0.  1.
        -11    1    5    5    0    0 -0.53021822246E+03 -0.15226479471E+03 -0.13635711695E+03  0.56825099602E+03  0.00000000000E+00 0. -1.
          3    1    6    6  503    0  0.20850441447E+02 -0.13793939122E+02  0.15050880475E+03  0.15257101289E+03  0.00000000000E+00 0. -1.
         -3    1    6    6    0  503 -0.47924968004E+01  0.86449466622E+02  0.24363619235E+03  0.25856347872E+03  0.00000000000E+00 0.  1.
<mgrwt>
<rscale>  0 0.18121119E+04</rscale>
<asrwt>0</asrwt>
<pdfrwt beam="1">  1        2 0.94235450E-01 0.18121119E+04</pdfrwt>
<pdfrwt beam="2">  1       -2 0.20619066E+00 0.18121119E+04</pdfrwt>
<totfact> 0.55236575E+00</totfact>
</mgrwt>
</event>
<event>
12    2  0.3561489E-008  0.1275865E+04  0.7818608E-02  0.9048926E-01
         -1   -1    0    0    0  501 -0.00000000000E+00  0.00000000000E+00  0.21856611357E+03  0.21856611357E+03  0.00000000000E+00 0.  1.
          1   -1    0    0  501    0  0.00000000000E+00 -0.00000000000E+00 -0.18619451182E+04  0.18619451182E+04  0.00000000000E+00 0. -1.
         23    2    1    2    0    0  0.16342053452E+03 -0.27103016591E+03 -0.31545401726E+03  0.45579956743E+03  0.89879846090E+02 0.  0.
        254    2    1    2    0    0 -0.16342053452E+03  0.27103016591E+03 -0.13279249874E+04  0.16247116643E+04  0.88098785359E+03 0.  0.
         23    2    4    4    0    0 -0.33587126346E+03 -0.13931382463E+03 -0.23854041518E+03  0.44437294150E+03  0.91367029665E+02 0.  0.
         23    2    4    4    0    0  0.17245072895E+03  0.41034399054E+03 -0.10893845722E+04  0.11803387228E+04  0.91210251577E+02 0.  0.
          4    1    3    3  502    0  0.11785811327E+03 -0.23266743182E+03 -0.29268955826E+03  0.39203551651E+03  0.00000000000E+00 0. -1.
         -4    1    3    3    0  502  0.45562421241E+02 -0.38362734090E+02 -0.22764459001E+02  0.63764050921E+02  0.00000000000E+00 0.  1.
         11    1    5    5    0    0 -0.21672936820E+03 -0.94005099559E+02 -0.20445816643E+03  0.31242874324E+03  0.00000000000E+00 0. -1.
        -11    1    5    5    0    0 -0.11914189526E+03 -0.45308725076E+02 -0.34082248752E+02  0.13194419826E+03  0.00000000000E+00 0.  1.
          4    1    6    6  503    0  0.87881352236E+02  0.12969641168E+03 -0.30305069978E+03  0.34115101921E+03  0.00000000000E+00 0. -1.
         -4    1    6    6    0  503  0.84569376710E+02  0.28064757887E+03 -0.78633387239E+03  0.83918770359E+03  0.00000000000E+00 0.  1.
<mgrwt>
<rscale>  0 0.12758654E+04</rscale>
<asrwt>0</asrwt>
<pdfrwt beam="1">  1        1 0.28645309E+00 0.12758654E+04</pdfrwt>
<pdfrwt beam="2">  1       -1 0.33625556E-01 0.12758654E+04</pdfrwt>
<totfact> 0.30365314E+01</totfact>
</mgrwt>
</event>
<event>
12    2  0.3561489E-008  0.2073810E+04  0.7818608E-02  0.8572869E-01
         -1   -1    0    0    0  501 -0.00000000000E+00  0.00000000000E+00  0.62185039500E+03  0.62185039500E+03  0.00000000000E+00 0.  1.
          1   -1    0    0  501    0  0.00000000000E+00 -0.00000000000E+00 -0.17289877596E+04  0.17289877596E+04  0.00000000000E+00 0. -1.
         23    2    1    2    0    0  0.29099819346E+02 -0.48073890929E+02  0.49820640370E+03  0.50952953385E+03  0.90845069791E+02 0.  0.
        254    2    1    2    0    0 -0.29099819346E+02  0.48073890929E+02 -0.16053437683E+04  0.18413086208E+04  0.90007273258E+03 0.  0.
         23    2    4    4    0    0  0.33464089922E+03  0.29302599502E+03 -0.80170629036E+03  0.92113422394E+03  0.88918599427E+02 0.  0.
         23    2    4    4    0    0 -0.36374071856E+03 -0.24495210409E+03 -0.80363747796E+03  0.92017439682E+03  0.92622248647E+02 0.  0.
          2    1    3    3  502    0 -0.52954076912E+01 -0.12804666740E+02  0.64019961851E+01  0.15263891643E+02  0.00000000000E+00 0. -1.
         -2    1    3    3    0  502  0.34395227037E+02 -0.35269224190E+02  0.49180440752E+03  0.49426564221E+03  0.00000000000E+00 0.  1.
         11    1    5    5    0    0  0.21562181241E+03  0.13655112761E+03 -0.41200158334E+03  0.48464861612E+03  0.00000000000E+00 0. -1.
        -11    1    5    5    0    0  0.11901908681E+03  0.15647486741E+03 -0.38970470703E+03  0.43648560782E+03  0.00000000000E+00 0.  1.
          1    1    6    6  503    0 -0.30617326004E+03 -0.21098384642E+03 -0.73859550543E+03  0.82690965000E+03  0.00000000000E+00 0. -1.
         -1    1    6    6    0  503 -0.57567458527E+02 -0.33968257663E+02 -0.65041972532E+02  0.93264746827E+02  0.00000000000E+00 0.  1.
<mgrwt>
<rscale>  0 0.20738098E+04</rscale>
<asrwt>0</asrwt>
<pdfrwt beam="1">  1        1 0.26599811E+00 0.20738098E+04</pdfrwt>
<pdfrwt beam="2">  1       -1 0.95669293E-01 0.20738098E+04</pdfrwt>
<totfact> 0.44235761E+00</totfact>
</mgrwt>
</event>
<event>
12    2  0.3561489E-008  0.1929299E+04  0.7818608E-02  0.8640408E-01
         -2   -1    0    0    0  501 -0.00000000000E+00  0.00000000000E+00  0.22227872038E+03  0.22227872038E+03  0.00000000000E+00 0.  1.
          2   -1    0    0  501    0  0.00000000000E+00 -0.00000000000E+00 -0.41864052890E+04  0.41864052890E+04  0.00000000000E+00 0. -1.
         23    2    1    2    0    0  0.13895448219E+03  0.38379861079E+02 -0.32588865974E+04  0.32633112823E+04  0.89873847219E+02 0.  0.
        254    2    1    2    0    0 -0.13895448219E+03 -0.38379861079E+02 -0.70523997125E+03  0.11453727271E+04  0.89091745137E+03 0.  0.
         23    2    4    4    0    0 -0.47096174777E+03  0.14004136680E+03 -0.49857783883E+03  0.70559555371E+03  0.88705533998E+02 0.  0.
         23    2    4    4    0    0  0.33200726558E+03 -0.17842122788E+03 -0.20666213242E+03  0.43977717342E+03  0.92907299676E+02 0.  0.
          1    1    3    3  502    0  0.15002347426E+03  0.45097772691E+02 -0.30551240793E+04  0.30591377857E+04  0.00000000000E+00 0. -1.
         -1    1    3    3    0  502 -0.11068992073E+02 -0.67179116112E+01 -0.20376251812E+03  0.20417349660E+03  0.00000000000E+00 0.  1.
         11    1    5    5    0    0 -0.17633417046E+03  0.89834364602E+01 -0.16559161260E+03  0.24206409062E+03  0.00000000000E+00 0. -1.
        -11    1    5    5    0    0 -0.29462757731E+03  0.13105793034E+03 -0.33298622622E+03  0.46353146309E+03  0.00000000000E+00 0.  1.
          2    1    6    6  503    0  0.31780285129E+03 -0.18048733164E+03 -0.17542274543E+03  0.40539791414E+03  0.00000000000E+00 0. -1.
         -2    1    6    6    0  503  0.14204414290E+02  0.20661037587E+01 -0.31239386984E+02  0.34379259288E+02  0.00000000000E+00 0.  1.
<mgrwt>
<rscale>  0 0.19292992E+04</rscale>
<asrwt>0</asrwt>
<pdfrwt beam="1">  1        2 0.64406234E+00 0.19292992E+04</pdfrwt>
<pdfrwt beam="2">  1       -2 0.34196727E-01 0.19292992E+04</pdfrwt>
<totfact> 0.18134666E+00</totfact>
</mgrwt>
</event>
<event>
12    2  0.3561489E-008  0.1626785E+04  0.7818608E-02  0.8804260E-01
         -1   -1    0    0    0  501 -0.00000000000E+00  0.00000000000E+00  0.38166078322E+03  0.38166078322E+03  0.00000000000E+00 0.  1.
          1   -1    0    0  501    0  0.00000000000E+00 -0.00000000000E+00 -0.17334959106E+04  0.17334959106E+04  0.00000000000E+00 0. -1.
         23    2    1    2    0    0 -0.24353229953E+03  0.41973658601E+03 -0.85305930116E+03  0.98563672396E+03  0.91009877301E+02 0.  0.
        254    2    1    2    0    0  0.24353229953E+03 -0.41973658601E+03 -0.49877582618E+03  0.11295199698E+04  0.88969166282E+03 0.  0.
         23    2    4    4    0    0  0.22192581773E+03 -0.47727701133E+03  0.80311332192E+02  0.54008901790E+03  0.90563916974E+02 0.  0.
         23    2    4    4    0    0  0.21606481802E+02  0.57540425327E+02 -0.57908715837E+03  0.58943095191E+03  0.91154645972E+02 0.  0.
          2    1    3    3  502    0 -0.20485460051E+03  0.39780799803E+03 -0.79777229034E+03  0.91468969486E+03  0.00000000000E+00 0. -1.
         -2    1    3    3    0  502 -0.38677699022E+02  0.21928587979E+02 -0.55287010823E+02  0.70947029100E+02  0.00000000000E+00 0.  1.
         11    1    5    5    0    0  0.55615281982E+02 -0.16602971973E+03 -0.11416118131E+02  0.17546867292E+03  0.00000000000E+00 0.  1.
        -11    1    5    5    0    0  0.16631053575E+03 -0.31124729160E+03  0.91727450323E+02  0.36462034498E+03  0.00000000000E+00 0. -1.
          4    1    6    6  503    0 -0.15856710107E+02  0.37792067213E+02 -0.47903635398E+03  0.48078633927E+03  0.00000000000E+00 0. -1.
         -4    1    6    6    0  503  0.37463191909E+02  0.19748358114E+02 -0.10005080439E+03  0.10864461264E+03  0.00000000000E+00 0.  1.
<mgrwt>
<rscale>  0 0.16267851E+04</rscale>
<asrwt>0</asrwt>
<pdfrwt beam="1">  1        1 0.26669167E+00 0.16267851E+04</pdfrwt>
<pdfrwt beam="2">  1       -1 0.58717044E-01 0.16267851E+04</pdfrwt>
<totfact> 0.12726159E+01</totfact>
</mgrwt>
</event>
<event>
12    2  0.3561489E-008  0.1049738E+04  0.7818608E-02  0.9255614E-01
         -1   -1    0    0    0  501 -0.00000000000E+00  0.00000000000E+00  0.62832291960E+03  0.62832291960E+03  0.00000000000E+00 0.  1.
          1   -1    0    0  501    0  0.00000000000E+00 -0.00000000000E+00 -0.43844910265E+03  0.43844910265E+03  0.00000000000E+00 0. -1.
         23    2    1    2    0    0 -0.89757950885E+02  0.81731733049E+02  0.68723924290E+02  0.16508641126E+03  0.88283517591E+02 0.  0.
        254    2    1    2    0    0  0.89757950885E+02 -0.81731733049E+02  0.12114989267E+03  0.90168561099E+03  0.88522487462E+03 0.  0.
         23    2    4    4    0    0 -0.31292275654E+03  0.20950422232E+03  0.74571807882E+02  0.39444198596E+03  0.90613768380E+02 0.  0.
         23    2    4    4    0    0  0.40268070743E+03 -0.29123595537E+03  0.46578084784E+02  0.50724362504E+03  0.90313029641E+02 0.  0.
          3    1    3    3  502    0 -0.53541422781E+02  0.40484419646E+02 -0.11277158468E+02  0.68065016643E+02  0.00000000000E+00 0. -1.
         -3    1    3    3    0  502 -0.36216528104E+02  0.41247313404E+02  0.80001082758E+02  0.97021394616E+02  0.00000000000E+00 0.  1.
         11    1    5    5    0    0 -0.17600810990E+03  0.13913484522E+03  0.22771382820E+01  0.22437144485E+03  0.00000000000E+00 0. -1.
        -11    1    5    5    0    0 -0.13691464665E+03  0.70369377098E+02  0.72294669600E+02  0.17007054110E+03  0.00000000000E+00 0.  1.
          1    1    6    6  503    0  0.22150476934E+03 -0.19317711570E+03 -0.83849379666E+01  0.29402732535E+03  0.00000000000E+00 0. -1.
         -1    1    6    6    0  503  0.18117593809E+03 -0.98058839666E+02  0.54963022751E+02  0.21321629968E+03  0.00000000000E+00 0.  1.
<mgrwt>
<rscale>  0 0.10497383E+04</rscale>
<asrwt>0</asrwt>
<pdfrwt beam="1">  1        1 0.67453709E-01 0.10497383E+04</pdfrwt>
<pdfrwt beam="2">  1       -1 0.96665064E-01 0.10497383E+04</pdfrwt>
<totfact> 0.54623200E+01</totfact>
</mgrwt>
</event>
<event>
12    2  0.3561489E-008  0.1843666E+04  0.7818608E-02  0.8683417E-01
         -1   -1    0    0    0  501 -0.00000000000E+00  0.00000000000E+00  0.45162656020E+03  0.45162656020E+03  0.00000000000E+00 0.  1.
          1   -1    0    0  501    0  0.00000000000E+00 -0.00000000000E+00 -0.18815892685E+04  0.18815892685E+04  0.00000000000E+00 0. -1.
         23    2    1    2    0    0 -0.51853650463E+03 -0.22607170619E+03 -0.10580265034E+04  0.12033546432E+04  0.93025763094E+02 0.  0.
        254    2    1    2    0    0  0.51853650463E+03  0.22607170619E+03 -0.37193620497E+03  0.11298611855E+04  0.90457793194E+03 0.  0.
         23    2    4    4    0    0  0.42903559248E+03  0.47271346718E+03 -0.50789149513E+03  0.82051040533E+03  0.88056758790E+02 0.  0.
         23    2    4    4    0    0  0.89500912157E+02 -0.24664176098E+03  0.13595529015E+03  0.30935078017E+03  0.91495861835E+02 0.  0.
          4    1    3    3  502    0 -0.51977795092E+03 -0.23055605873E+03 -0.10490618269E+04  0.11932543447E+04  0.00000000000E+00 0. -1.
         -4    1    3    3    0  502  0.12414462822E+01  0.44843525339E+01 -0.89646765056E+01  0.10100298578E+02  0.00000000000E+00 0.  1.
         11    1    5    5    0    0  0.22397159131E+03  0.27688144699E+03 -0.33171883908E+03  0.48668675512E+03  0.00000000000E+00 0. -1.
        -11    1    5    5    0    0  0.20506400117E+03  0.19583202018E+03 -0.17617265604E+03  0.33382365021E+03  0.00000000000E+00 0.  1.
          1    1    6    6  503    0  0.12908764044E+02 -0.26037489227E+02  0.54978840607E+02  0.62187297327E+02  0.00000000000E+00 0. -1.
         -1    1    6    6    0  503  0.76592148113E+02 -0.22060427176E+03  0.80976449548E+02  0.24716348284E+03  0.00000000000E+00 0.  1.
<mgrwt>
<rscale>  0 0.18436656E+04</rscale>
<asrwt>0</asrwt>
<pdfrwt beam="1">  1        1 0.28947527E+00 0.18436656E+04</pdfrwt>
<pdfrwt beam="2">  1       -1 0.69481010E-01 0.18436656E+04</pdfrwt>
<totfact> 0.70621912E+00</totfact>
</mgrwt>
</event>
<event>
12    2  0.3561489E-008  0.2284541E+04  0.7818608E-02  0.8484042E-01
         -2   -1    0    0    0  501 -0.00000000000E+00  0.00000000000E+00  0.50316427340E+03  0.50316427340E+03  0.00000000000E+00 0. -1.
          2   -1    0    0  501    0  0.00000000000E+00 -0.00000000000E+00 -0.25931518071E+04  0.25931518071E+04  0.00000000000E+00 0.  1.
         23    2    1    2    0    0 -0.36713630025E+03  0.27824962150E+03  0.24790181052E+03  0.53105856870E+03  0.91411054619E+02 0.  0.
        254    2    1    2    0    0  0.36713630025E+03 -0.27824962150E+03 -0.23378893442E+04  0.25652575118E+04  0.95005663050E+03 0.  0.
         23    2    4    4    0    0 -0.72954587015E+02  0.29918655363E+03 -0.80420588813E+03  0.86594838753E+03  0.91019414051E+02 0.  0.
         23    2    4    4    0    0  0.44009088726E+03 -0.57743617513E+03 -0.15336834561E+04  0.16993091242E+04  0.91400387840E+02 0.  0.
          1    1    3    3  502    0 -0.33883764706E+03  0.25157476333E+03  0.19370198369E+03  0.46435037536E+03  0.00000000000E+00 0. -1.
         -1    1    3    3    0  502 -0.28298653186E+02  0.26674858170E+02  0.54199826828E+02  0.66708193341E+02  0.00000000000E+00 0.  1.
         11    1    5    5    0    0  0.90202709518E+01  0.28541862909E+01 -0.59835949185E+02  0.60579307377E+02  0.00000000000E+00 0.  1.
        -11    1    5    5    0    0 -0.81974857967E+02  0.29633236734E+03 -0.74436993894E+03  0.80536908016E+03  0.00000000000E+00 0. -1.
          3    1    6    6  503    0  0.32618885071E+03 -0.47531056451E+03 -0.11543103412E+04  0.12902525578E+04  0.00000000000E+00 0. -1.
         -3    1    6    6    0  503  0.11390203655E+03 -0.10212561061E+03 -0.37937311483E+03  0.40905656642E+03  0.00000000000E+00 0.  1.
<mgrwt>
<rscale>  0 0.22845405E+04</rscale>
<asrwt>0</asrwt>
<pdfrwt beam="1">  1        2 0.39894643E+00 0.22845405E+04</pdfrwt>
<pdfrwt beam="2">  1       -2 0.77409888E-01 0.22845405E+04</pdfrwt>
<totfact> 0.41497930E+00</totfact>
</mgrwt>
</event>
<event>
12    2  0.3561489E-008  0.3001882E+04  0.7818608E-02  0.8243194E-01
          1   -1    0    0  501    0  0.00000000000E+00  0.00000000000E+00  0.17562198889E+04  0.17562198889E+04  0.00000000000E+00 0. -1.
         -1   -1    0    0    0  501 -0.00000000000E+00 -0.00000000000E+00 -0.12827690727E+04  0.12827690727E+04  0.00000000000E+00 0.  1.
         23    2    1    2    0    0 -0.57991166268E+03 -0.43890964755E+03  0.13815296650E+04  0.15643601422E+04  0.98281350601E+02 0.  0.
        254    2    1    2    0    0  0.57991166268E+03  0.43890964755E+03 -0.90807884885E+03  0.14746288195E+04  0.90608153289E+03 0.  0.
         23    2    4    4    0    0  0.64764118709E+03 -0.53362913518E+02 -0.50107558762E+03  0.82574098376E+03  0.92112539904E+02 0.  0.
         23    2    4    4    0    0 -0.67729524403E+02  0.49227256106E+03 -0.40700326124E+03  0.64888783571E+03  0.92109748778E+02 0.  0.
          4    1    3    3  502    0 -0.45950626698E+03 -0.31020093431E+03  0.98226938819E+03  0.11279289783E+04  0.00000000000E+00 0. -1.
         -4    1    3    3    0  502 -0.12040539571E+03 -0.12870871324E+03  0.39926027682E+03  0.43643116390E+03  0.00000000000E+00 0.  1.
         11    1    5    5    0    0  0.69436688394E+02 -0.24563072581E+02 -0.30613172382E+02  0.79761924206E+02  0.00000000000E+00 0. -1.
        -11    1    5    5    0    0  0.57820449869E+03 -0.28799840937E+02 -0.47046241523E+03  0.74597905955E+03  0.00000000000E+00 0.  1.
          1    1    6    6  503    0  0.18597126664E+02  0.41629818693E+02 -0.26004740179E+02  0.52489441189E+02  0.00000000000E+00 0. -1.
         -1    1    6    6    0  503 -0.86326651067E+02  0.45064274237E+03 -0.38099852106E+03  0.59639839452E+03  0.00000000000E+00 0.  1.
<mgrwt>
<rscale>  0 0.30018824E+04</rscale>
<asrwt>0</asrwt>
<pdfrwt beam="1">  1        1 0.27018767E+00 0.30018824E+04</pdfrwt>
<pdfrwt beam="2">  1       -1 0.19734909E+00 0.30018824E+04</pdfrwt>
<totfact> 0.58294635E-01</totfact>
</mgrwt>
</event>
<event>
12    2  0.3561489E-008  0.1334250E+04  0.7818608E-02  0.9002837E-01
         -2   -1    0    0    0  501 -0.00000000000E+00  0.00000000000E+00  0.29294912699E+03  0.29294912699E+03  0.00000000000E+00 0.  1.
          2   -1    0    0  501    0  0.00000000000E+00 -0.00000000000E+00 -0.15192248374E+04  0.15192248374E+04  0.00000000000E+00 0. -1.
         23    2    1    2    0    0  0.11229989064E+03  0.26912855413E+03 -0.60279573170E+03  0.67579521937E+03  0.91077111715E+02 0.  0.
        254    2    1    2    0    0 -0.11229989064E+03 -0.26912855413E+03 -0.62347997873E+03  0.11363787450E+04  0.90420568690E+03 0.  0.
         23    2    4    4    0    0 -0.33053156660E+03 -0.35369876792E+03 -0.31819758913E+02  0.49347202215E+03  0.90267406326E+02 0.  0.
         23    2    4    4    0    0  0.21823167596E+03  0.84570213791E+02 -0.59166021981E+03  0.64290672288E+03  0.92141484508E+02 0.  0.
          4    1    3    3  502    0  0.47234431831E+02  0.26208534432E+02 -0.10461990456E+03  0.11774252952E+03  0.00000000000E+00 0.  1.
         -4    1    3    3    0  502  0.65065458809E+02  0.24292001970E+03 -0.49817582714E+03  0.55805268985E+03  0.00000000000E+00 0. -1.
         11    1    5    5    0    0 -0.30567174681E+03 -0.34020420324E+03 -0.49638138068E+02  0.46004136928E+03  0.00000000000E+00 0.  1.
        -11    1    5    5    0    0 -0.24859819789E+02 -0.13494564684E+02  0.17818379154E+02  0.33430652875E+02  0.00000000000E+00 0. -1.
          4    1    6    6  503    0  0.15412657022E+03  0.69465545565E+02 -0.30441863622E+03  0.34821138371E+03  0.00000000000E+00 0. -1.
         -4    1    6    6    0  503  0.64105105734E+02  0.15104668226E+02 -0.28724158359E+03  0.29469533917E+03  0.00000000000E+00 0.  1.
<mgrwt>
<rscale>  0 0.13342497E+04</rscale>
<asrwt>0</asrwt>
<pdfrwt beam="1">  1        2 0.23372691E+00 0.13342497E+04</pdfrwt>
<pdfrwt beam="2">  1       -2 0.45069095E-01 0.13342497E+04</pdfrwt>
<totfact> 0.56504330E+01</totfact>
</mgrwt>
</event>
<event>
12    2  0.3561489E-008  0.1746549E+04  0.7818608E-02  0.8735252E-01
          1   -1    0    0  501    0  0.00000000000E+00  0.00000000000E+00  0.10490628730E+04  0.10490628730E+04  0.00000000000E+00 0. -1.
         -1   -1    0    0    0  501 -0.00000000000E+00 -0.00000000000E+00 -0.72694240419E+03  0.72694240419E+03  0.00000000000E+00 0.  1.
         23    2    1    2    0    0  0.24119671739E+03  0.58580181298E+03  0.16827067203E+03  0.66249970390E+03  0.96183252350E+02 0.  0.
        254    2    1    2    0    0 -0.24119671739E+03 -0.58580181298E+03  0.15384979678E+03  0.11135055733E+04  0.90270996515E+03 0.  0.
         23    2    4    4    0    0  0.32422591193E+03 -0.16697996841E+03 -0.39912375826E+02  0.37802934006E+03  0.91150602787E+02 0.  0.
         23    2    4    4    0    0 -0.56542262932E+03 -0.41882184457E+03  0.19376217260E+03  0.73547623322E+03  0.90923170097E+02 0.  0.
          1    1    3    3  502    0  0.13389073105E+03  0.29107636800E+03  0.13288358361E+03  0.34685764611E+03  0.00000000000E+00 0. -1.
         -1    1    3    3    0  502  0.10730598635E+03  0.29472544498E+03  0.35387088426E+02  0.31564205779E+03  0.00000000000E+00 0.  1.
         11    1    5    5    0    0  0.16282105694E+03 -0.53614797794E+02 -0.55483484588E+02  0.18017674708E+03  0.00000000000E+00 0. -1.
        -11    1    5    5    0    0  0.16140485498E+03 -0.11336517062E+03  0.15571108762E+02  0.19785259298E+03  0.00000000000E+00 0.  1.
          4    1    6    6  503    0 -0.25902124510E+03 -0.24452048112E+03  0.11461508251E+03  0.37419097829E+03  0.00000000000E+00 0. -1.
         -4    1    6    6    0  503 -0.30640138422E+03 -0.17430136345E+03  0.79147090089E+02  0.36128525492E+03  0.00000000000E+00 0.  1.
<mgrwt>
<rscale>  0 0.17465489E+04</rscale>
<asrwt>0</asrwt>
<pdfrwt beam="1">  1        1 0.16139429E+00 0.17465489E+04</pdfrwt>
<pdfrwt beam="2">  1       -1 0.11183729E+00 0.17465489E+04</pdfrwt>
<totfact> 0.96430647E+00</totfact>
</mgrwt>
</event>
<event>
12    2  0.3561489E-008  0.1501347E+04  0.7818608E-02  0.8883558E-01
          2   -1    0    0  501    0  0.00000000000E+00  0.00000000000E+00  0.64269474812E+03  0.64269474812E+03  0.00000000000E+00 0.  1.
         -2   -1    0    0    0  501 -0.00000000000E+00 -0.00000000000E+00 -0.87679394350E+03  0.87679394350E+03  0.00000000000E+00 0. -1.
         23    2    1    2    0    0 -0.49167568826E+02  0.24830092558E+03 -0.49188010921E+03  0.56008136267E+03  0.87603033618E+02 0.  0.
        254    2    1    2    0    0  0.49167568826E+02 -0.24830092558E+03  0.25778091383E+03  0.95940732896E+03  0.88878603941E+03 0.  0.
         23    2    4    4    0    0 -0.36286194105E+03 -0.20757113540E+03  0.31410506553E+03  0.53110951493E+03  0.93063205082E+02 0.  0.
         23    2    4    4    0    0  0.41202950987E+03 -0.40729790180E+02 -0.56324151700E+02  0.42829781403E+03  0.94017948427E+02 0.  0.
          2    1    3    3  502    0 -0.33169074278E+02  0.14837882561E+03 -0.37966495940E+03  0.40897670444E+03  0.00000000000E+00 0. -1.
         -2    1    3    3    0  502 -0.15998494548E+02  0.99922099974E+02 -0.11221514981E+03  0.15110465823E+03  0.00000000000E+00 0.  1.
         11    1    5    5    0    0 -0.38622073393E+02  0.57747968431E+01  0.18420737938E+02  0.43177962179E+02  0.00000000000E+00 0.  1.
        -11    1    5    5    0    0 -0.32423986765E+03 -0.21334593224E+03  0.29568432759E+03  0.48793155275E+03  0.00000000000E+00 0. -1.
          3    1    6    6  503    0  0.29247236980E+03 -0.40609938676E+02 -0.81072938454E+02  0.30620593653E+03  0.00000000000E+00 0. -1.
         -3    1    6    6    0  503  0.11955714007E+03 -0.11985150438E+00  0.24748786754E+02  0.12209187751E+03  0.00000000000E+00 0.  1.
<mgrwt>
<rscale>  0 0.15013472E+04</rscale>
<asrwt>0</asrwt>
<pdfrwt beam="1">  1        2 0.98876116E-01 0.15013472E+04</pdfrwt>
<pdfrwt beam="2">  1       -2 0.13489138E+00 0.15013472E+04</pdfrwt>
<totfact> 0.17406331E+01</totfact>
</mgrwt>
</event>
<event>
12    2  0.3561489E-008  0.1440060E+04  0.7818608E-02  0.8925321E-01
         -1   -1    0    0    0  501 -0.00000000000E+00  0.00000000000E+00  0.10691434795E+04  0.10691434795E+04  0.00000000000E+00 0.  1.
          1   -1    0    0  501    0  0.00000000000E+00 -0.00000000000E+00 -0.48491422215E+03  0.48491422215E+03  0.00000000000E+00 0. -1.
         23    2    1    2    0    0 -0.21851749625E+03 -0.12128889654E+03  0.56042330050E+03  0.62045736902E+03  0.91826893863E+02 0.  0.
        254    2    1    2    0    0  0.21851749625E+03  0.12128889654E+03  0.23805956812E+02  0.93360033260E+03  0.89921185761E+03 0.  0.
         23    2    4    4    0    0 -0.27466580311E+03 -0.18393547991E+03 -0.27657832188E+02  0.34428788180E+03  0.92171718559E+02 0.  0.
         23    2    4    4    0    0  0.49318329936E+03  0.30522437645E+03  0.51463788999E+02  0.58931245080E+03  0.90823765322E+02 0.  0.
          2    1    3    3  502    0 -0.12206682392E+03 -0.11307290365E+03  0.30728569849E+03  0.34944283014E+03  0.00000000000E+00 0. -1.
         -2    1    3    3    0  502 -0.96450672329E+02 -0.82159928950E+01  0.25313760201E+03  0.27101453887E+03  0.00000000000E+00 0.  1.
         11    1    5    5    0    0 -0.65066008340E+02 -0.22224202640E+02 -0.39493743442E+02  0.79292221531E+02  0.00000000000E+00 0. -1.
        -11    1    5    5    0    0 -0.20959979477E+03 -0.16171127727E+03  0.11835911254E+02  0.26499566027E+03  0.00000000000E+00 0.  1.
          1    1    6    6  503    0  0.17137538285E+03  0.66708024102E+02  0.42011239508E+02  0.18863834862E+03  0.00000000000E+00 0. -1.
         -1    1    6    6    0  503  0.32180791651E+03  0.23851635235E+03  0.94525494911E+01  0.40067410218E+03  0.00000000000E+00 0.  1.
<mgrwt>
<rscale>  0 0.14400596E+04</rscale>
<asrwt>0</asrwt>
<pdfrwt beam="1">  1        1 0.74602189E-01 0.14400596E+04</pdfrwt>
<pdfrwt beam="2">  1       -1 0.16448361E+00 0.14400596E+04</pdfrwt>
<totfact> 0.12150411E+01</totfact>
</mgrwt>
</event>
<event>
12    2  0.3561489E-008  0.2092417E+04  0.7818608E-02  0.8564591E-01
         -1   -1    0    0    0  501 -0.00000000000E+00  0.00000000000E+00  0.46625550212E+03  0.46625550212E+03  0.00000000000E+00 0.  1.
          1   -1    0    0  501    0  0.00000000000E+00 -0.00000000000E+00 -0.23475382783E+04  0.23475382783E+04  0.00000000000E+00 0. -1.
         23    2    1    2    0    0  0.61173769233E+03  0.44489342797E+02 -0.15577179959E+04  0.16766171240E+04  0.91418377515E+02 0.  0.
        254    2    1    2    0    0 -0.61173769233E+03 -0.44489342797E+02 -0.32356478027E+03  0.11371766564E+04  0.90126260051E+03 0.  0.
         23    2    4    4    0    0 -0.34990357516E+03  0.31798639105E+03 -0.45419365253E+03  0.66183076357E+03  0.90444617378E+02 0.  0.
         23    2    4    4    0    0 -0.26183411718E+03 -0.36247573385E+03  0.13062887227E+03  0.47534589287E+03  0.94573003836E+02 0.  0.
          3    1    3    3  502    0  0.19972975501E+03  0.30775519999E+02 -0.62506119856E+03  0.65691750594E+03  0.00000000000E+00 0. -1.
         -3    1    3    3    0  502  0.41200793733E+03  0.13713822798E+02 -0.93265679736E+03  0.10196996180E+04  0.00000000000E+00 0.  1.
         11    1    5    5    0    0 -0.22106429774E+03  0.25643275382E+03 -0.32265904257E+03  0.46769224787E+03  0.00000000000E+00 0. -1.
        -11    1    5    5    0    0 -0.12883927741E+03  0.61553637228E+02 -0.13153460997E+03  0.19413851570E+03  0.00000000000E+00 0.  1.
          2    1    6    6  503    0 -0.21333668530E+03 -0.33525789431E+03  0.92755061372E+02  0.40806114542E+03  0.00000000000E+00 0. -1.
         -2    1    6    6    0  503 -0.48497431878E+02 -0.27217839535E+02  0.37873810894E+02  0.67284747450E+02  0.00000000000E+00 0.  1.
<mgrwt>
<rscale>  0 0.20924174E+04</rscale>
<asrwt>0</asrwt>
<pdfrwt beam="1">  1        1 0.36115975E+00 0.20924174E+04</pdfrwt>
<pdfrwt beam="2">  1       -1 0.71731613E-01 0.20924174E+04</pdfrwt>
<totfact> 0.31171070E+00</totfact>
</mgrwt>
</event>
<event>
12    2  0.3561489E-008  0.2713447E+04  0.7818608E-02  0.8330655E-01
         -1   -1    0    0    0  501 -0.00000000000E+00  0.00000000000E+00  0.10297735520E+04  0.10297735520E+04  0.00000000000E+00 0.  1.
          1   -1    0    0  501    0  0.00000000000E+00 -0.00000000000E+00 -0.17874790507E+04  0.17874790507E+04  0.00000000000E+00 0. -1.
         23    2    1    2    0    0 -0.46430353718E+03  0.10166425406E+04 -0.80454728933E+03  0.13801286010E+04  0.91207370503E+02 0.  0.
        254    2    1    2    0    0  0.46430353718E+03 -0.10166425406E+04  0.46841790703E+02  0.14371240017E+04  0.90221472667E+03 0.  0.
         23    2    4    4    0    0  0.62068060037E+03 -0.30058291736E+03 -0.11471412767E+02  0.69610097583E+03  0.93970619617E+02 0.  0.
         23    2    4    4    0    0 -0.15637706319E+03 -0.71605962325E+03  0.58313203470E+02  0.74102302592E+03  0.92301274665E+02 0.  0.
          2    1    3    3  502    0 -0.37083469795E+03  0.88488887781E+03 -0.70091412734E+03  0.11882033972E+04  0.00000000000E+00 0. -1.
         -2    1    3    3    0  502 -0.93468839231E+02  0.13175366280E+03 -0.10363316198E+03  0.19192520374E+03  0.00000000000E+00 0.  1.
         11    1    5    5    0    0  0.49134047003E+03 -0.27426788954E+03 -0.26046279737E+02  0.56330874430E+03  0.00000000000E+00 0. -1.
        -11    1    5    5    0    0  0.12934013034E+03 -0.26315027825E+02  0.14574866970E+02  0.13279223153E+03  0.00000000000E+00 0.  1.
          2    1    6    6  503    0 -0.13362421396E+03 -0.50522940188E+03  0.61082364292E+01  0.52263705344E+03  0.00000000000E+00 0. -1.
         -2    1    6    6    0  503 -0.22752849233E+02 -0.21083022137E+03  0.52204967041E+02  0.21838597248E+03  0.00000000000E+00 0.  1.
<mgrwt>
<rscale>  0 0.27134470E+04</rscale>
<asrwt>0</asrwt>
<pdfrwt beam="1">  1        1 0.27499677E+00 0.27134470E+04</pdfrwt>
<pdfrwt beam="2">  1       -1 0.15842670E+00 0.27134470E+04</pdfrwt>
<totfact> 0.10885031E+00</totfact>
</mgrwt>
</event>
<event>
12    2  0.3561489E-008  0.1729354E+04  0.7818608E-02  0.8744798E-01
          2   -1    0    0  501    0  0.00000000000E+00  0.00000000000E+00  0.46487681648E+03  0.46487681648E+03  0.00000000000E+00 0. -1.
         -2   -1    0    0    0  501 -0.00000000000E+00 -0.00000000000E+00 -0.16083105908E+04  0.16083105908E+04  0.00000000000E+00 0.  1.
         23    2    1    2    0    0 -0.34306133040E+01 -0.30405734560E+03  0.23892755984E+03  0.39727311994E+03  0.90977549200E+02 0.  0.
        254    2    1    2    0    0  0.34306133040E+01  0.30405734560E+03 -0.13823613342E+04  0.16759142874E+04  0.89738687412E+03 0.  0.
         23    2    4    4    0    0  0.17024262041E+03  0.12188987235E+02 -0.13038361265E+04  0.13188758928E+04  0.10155714968E+03 0.  0.
         23    2    4    4    0    0 -0.16681200711E+03  0.29186835836E+03 -0.78525207648E+02  0.35703839453E+03  0.91086895889E+02 0.  0.
          3    1    3    3  502    0 -0.28388494838E+02 -0.21367057877E+03  0.12301342071E+03  0.24818002447E+03  0.00000000000E+00 0. -1.
         -3    1    3    3    0  502  0.24957881534E+02 -0.90386766830E+02  0.11591413912E+03  0.14909309547E+03  0.00000000000E+00 0.  1.
         11    1    5    5    0    0  0.43876063343E+02  0.45748378271E+02 -0.56671064364E+03  0.57024466386E+03  0.00000000000E+00 0. -1.
        -11    1    5    5    0    0  0.12636655707E+03 -0.33559391036E+02 -0.73712548288E+03  0.74863122897E+03  0.00000000000E+00 0.  1.
          1    1    6    6  503    0 -0.34656372916E+02  0.69610316130E+02  0.20054009129E+02  0.80304567600E+02  0.00000000000E+00 0. -1.
         -1    1    6    6    0  503 -0.13215563419E+03  0.22225804223E+03 -0.98579216777E+02  0.27673382693E+03  0.00000000000E+00 0.  1.
<mgrwt>
<rscale>  0 0.17293540E+04</rscale>
<asrwt>0</asrwt>
<pdfrwt beam="1">  1        2 0.71519509E-01 0.17293540E+04</pdfrwt>
<pdfrwt beam="2">  1       -2 0.24743240E+00 0.17293540E+04</pdfrwt>
<totfact> 0.42387972E+00</totfact>
</mgrwt>
</event>
<event>
12    2  0.3561489E-008  0.2889941E+04  0.7818608E-02  0.8275876E-01
         -1   -1    0    0    0  501 -0.00000000000E+00  0.00000000000E+00  0.99796215339E+03  0.99796215339E+03  0.00000000000E+00 0.  1.
          1   -1    0    0  501    0  0.00000000000E+00 -0.00000000000E+00 -0.20922040442E+04  0.20922040442E+04  0.00000000000E+00 0. -1.
         23    2    1    2    0    0  0.10738784637E+04  0.74432225804E+02 -0.12730586508E+04  0.16699917717E+04  0.97154916810E+02 0.  0.
        254    2    1    2    0    0 -0.10738784637E+04 -0.74432225804E+02  0.17881676003E+03  0.14201744259E+04  0.90893611176E+03 0.  0.
         23    2    4    4    0    0 -0.33276229056E+02  0.28586572614E+03  0.10860698381E+02  0.30247807297E+03  0.92458147579E+02 0.  0.
         23    2    4    4    0    0 -0.10406022347E+04 -0.36029795195E+03  0.16795606165E+03  0.11176963530E+04  0.91478269322E+02 0.  0.
          3    1    3    3  502    0  0.65654897985E+03  0.79890663230E+02 -0.72960688854E+03  0.98476661845E+03  0.00000000000E+00 0. -1.
         -3    1    3    3    0  502  0.41732948389E+03 -0.54584374256E+01 -0.54345176227E+03  0.68522515320E+03  0.00000000000E+00 0.  1.
         11    1    5    5    0    0 -0.23136537301E+01 -0.58868167981E+00  0.14136373144E+02  0.14336547191E+02  0.00000000000E+00 0.  1.
        -11    1    5    5    0    0 -0.30962575325E+02  0.28645440782E+03 -0.32756747627E+01  0.28814152578E+03  0.00000000000E+00 0. -1.
          3    1    6    6  503    0 -0.53405211159E+03 -0.16101883434E+03  0.44766184097E+02  0.55959157798E+03  0.00000000000E+00 0. -1.
         -3    1    6    6    0  503 -0.50655012309E+03 -0.19927911761E+03  0.12318987755E+03  0.55810477497E+03  0.00000000000E+00 0.  1.
<mgrwt>
<rscale>  0 0.28899415E+04</rscale>
<asrwt>0</asrwt>
<pdfrwt beam="1">  1        1 0.32187754E+00 0.28899415E+04</pdfrwt>
<pdfrwt beam="2">  1       -1 0.15353264E+00 0.28899415E+04</pdfrwt>
<totfact> 0.72582321E-01</totfact>
</mgrwt>
</event>
<event>
12    2  0.3561489E-008  0.1356090E+04  0.7818608E-02  0.8986231E-01
          2   -1    0    0  501    0  0.00000000000E+00  0.00000000000E+00  0.58894804457E+03  0.58894804457E+03  0.00000000000E+00 0.  1.
         -2   -1    0    0    0  501 -0.00000000000E+00 -0.00000000000E+00 -0.78062114196E+03  0.78062114196E+03  0.00000000000E+00 0. -1.
         23    2    1    2    0    0  0.20542075430E+03  0.20206144968E+03 -0.28290647066E+03  0.41457463685E+03  0.93859163843E+02 0.  0.
        254    2    1    2    0    0 -0.20542075430E+03 -0.20206144968E+03  0.91233373275E+02  0.95499454968E+03  0.90590537352E+03 0.  0.
         23    2    4    4    0    0 -0.13164362985E+02  0.21315517428E+03  0.35200396182E+03  0.42120883600E+03  0.88891313483E+02 0.  0.
         23    2    4    4    0    0 -0.19225639132E+03 -0.41521662396E+03 -0.26077058854E+03  0.53378571368E+03  0.86939769178E+02 0.  0.
          4    1    3    3  502    0  0.75636519057E+02  0.90697393195E+02 -0.17906536635E+03  0.21450246053E+03  0.00000000000E+00 0. -1.
         -4    1    3    3    0  502  0.12978423525E+03  0.11136405648E+03 -0.10384110431E+03  0.20007217632E+03  0.00000000000E+00 0.  1.
         11    1    5    5    0    0  0.19713098659E+02  0.16610095454E+02  0.79781315652E+02  0.83842470484E+02  0.00000000000E+00 0. -1.
        -11    1    5    5    0    0 -0.32877461643E+02  0.19654507883E+03  0.27222264617E+03  0.33736636552E+03  0.00000000000E+00 0.  1.
          2    1    6    6  503    0 -0.30991524574E+02 -0.47535675881E+02 -0.33247503346E+01  0.56843372891E+02  0.00000000000E+00 0. -1.
         -2    1    6    6    0  503 -0.16126486675E+03 -0.36768094808E+03 -0.25744583821E+03  0.47694234079E+03  0.00000000000E+00 0.  1.
<mgrwt>
<rscale>  0 0.13560904E+04</rscale>
<asrwt>0</asrwt>
<pdfrwt beam="1">  1        2 0.90607391E-01 0.13560904E+04</pdfrwt>
<pdfrwt beam="2">  1       -2 0.12009556E+00 0.13560904E+04</pdfrwt>
<totfact> 0.26239878E+01</totfact>
</mgrwt>
</event>
<event>
12    2  0.3561489E-008  0.1239843E+04  0.7818608E-02  0.9078680E-01
         -2   -1    0    0    0  501 -0.00000000000E+00  0.00000000000E+00  0.50024813261E+03  0.50024813261E+03  0.00000000000E+00 0.  1.
          2   -1    0    0  501    0  0.00000000000E+00 -0.00000000000E+00 -0.76822381354E+03  0.76822381354E+03  0.00000000000E+00 0. -1.
         23    2    1    2    0    0 -0.49468615588E+00 -0.21223588926E+02  0.22494299611E+03  0.24468799987E+03  0.93926462400E+02 0.  0.
        254    2    1    2    0    0  0.49468615588E+00  0.21223588926E+02 -0.49291867704E+03  0.10237839463E+04  0.89705856055E+03 0.  0.
         23    2    4    4    0    0  0.79055375914E+02  0.29034974493E+03 -0.62548193818E+03  0.70030046877E+03  0.92953562261E+02 0.  0.
         23    2    4    4    0    0 -0.78560689758E+02 -0.26912615600E+03  0.13256326113E+03  0.32348347752E+03  0.92021042177E+02 0.  0.
          3    1    3    3  502    0  0.18320142494E+02 -0.44468693784E+02  0.59225970334E+02  0.76294219374E+02  0.00000000000E+00 0. -1.
         -3    1    3    3    0  502 -0.18814828650E+02  0.23245104858E+02  0.16571702577E+03  0.16839378049E+03  0.00000000000E+00 0.  1.
         11    1    5    5    0    0  0.16450964375E+02  0.34854211290E+01 -0.13634530501E+02  0.21649083383E+02  0.00000000000E+00 0.  1.
        -11    1    5    5    0    0  0.62604411539E+02  0.28686432380E+03 -0.61184740767E+03  0.67865138539E+03  0.00000000000E+00 0. -1.
          3    1    6    6  503    0 -0.64167530187E+02 -0.25840159673E+03  0.96495933105E+02  0.28319661408E+03  0.00000000000E+00 0. -1.
         -3    1    6    6    0  503 -0.14393159572E+02 -0.10724559273E+02  0.36067328029E+02  0.40286863432E+02  0.00000000000E+00 0.  1.
<mgrwt>
<rscale>  0 0.12398428E+04</rscale>
<asrwt>0</asrwt>
<pdfrwt beam="1">  1        2 0.11818828E+00 0.12398428E+04</pdfrwt>
<pdfrwt beam="2">  1       -2 0.76961251E-01 0.12398428E+04</pdfrwt>
<totfact> 0.53949929E+01</totfact>
</mgrwt>
</event>
<event>
12    2  0.3561489E-008  0.2005886E+04  0.7818608E-02  0.8603874E-01
         -1   -1    0    0    0  501 -0.00000000000E+00  0.00000000000E+00  0.41764460246E+03  0.41764460246E+03  0.00000000000E+00 0.  1.
          1   -1    0    0  501    0  0.00000000000E+00 -0.00000000000E+00 -0.24084948448E+04  0.24084948448E+04  0.00000000000E+00 0. -1.
         23    2    1    2    0    0 -0.69613234416E+02  0.12915322372E+03  0.30388440242E+03  0.34922142819E+03  0.89907275951E+02 0.  0.
        254    2    1    2    0    0  0.69613234416E+02 -0.12915322372E+03 -0.22947346448E+04  0.24769180191E+04  0.92075470443E+03 0.  0.
         23    2    4    4    0    0 -0.76818791537E+02  0.16500097559E+03 -0.20446500462E+04  0.20547329562E+04  0.90593935740E+02 0.  0.
         23    2    4    4    0    0  0.14643202595E+03 -0.29415419931E+03 -0.25008459854E+03  0.42218506285E+03  0.87914103920E+02 0.  0.
          1    1    3    3  502    0 -0.19146645253E+02 -0.10629578375E+02  0.56949582736E+02  0.61015054984E+02  0.00000000000E+00 0. -1.
         -1    1    3    3    0  502 -0.50466589163E+02  0.13978280210E+03  0.24693481968E+03  0.28820637321E+03  0.00000000000E+00 0.  1.
         11    1    5    5    0    0 -0.32395638314E+02  0.13347218052E+02 -0.17864664170E+03  0.18205012552E+03  0.00000000000E+00 0.  1.
        -11    1    5    5    0    0 -0.44423153223E+02  0.15165375754E+03 -0.18660034045E+04  0.18726828307E+04  0.00000000000E+00 0. -1.
          3    1    6    6  503    0  0.12504291432E+03 -0.29043630353E+03 -0.24465581145E+03  0.39980675695E+03  0.00000000000E+00 0. -1.
         -3    1    6    6    0  503  0.21389111634E+02 -0.37178957838E+01 -0.54287870924E+01  0.22378305898E+02  0.00000000000E+00 0.  1.
<mgrwt>
<rscale>  0 0.20058862E+04</rscale>
<asrwt>0</asrwt>
<pdfrwt beam="1">  1        1 0.37053767E+00 0.20058862E+04</pdfrwt>
<pdfrwt beam="2">  1       -1 0.64253016E-01 0.20058862E+04</pdfrwt>
<totfact> 0.35707717E+00</totfact>
</mgrwt>
</event>
<event>
12    2  0.3561489E-008  0.1314113E+04  0.7818608E-02  0.9018448E-01
         -1   -1    0    0    0  501 -0.00000000000E+00  0.00000000000E+00  0.91179972509E+03  0.91179972509E+03  0.00000000000E+00 0.  1.
          1   -1    0    0  501    0  0.00000000000E+00 -0.00000000000E+00 -0.47348437026E+03  0.47348437026E+03  0.00000000000E+00 0. -1.
         23    2    1    2    0    0  0.38971338670E+02 -0.34154882703E+03  0.17863738481E+03  0.39851484064E+03  0.93425887616E+02 0.  0.
        254    2    1    2    0    0 -0.38971338670E+02  0.34154882703E+03  0.25967797002E+03  0.98676925471E+03  0.88775365246E+03 0.  0.
         23    2    4    4    0    0 -0.64611978122E+02 -0.29259417597E+03  0.82116428014E+02  0.32125722238E+03  0.81713130213E+02 0.  0.
         23    2    4    4    0    0  0.25640639451E+02  0.63414300300E+03  0.17756154201E+03  0.66551203233E+03  0.92646496619E+02 0.  0.
          1    1    3    3  502    0  0.56245049647E+02 -0.21245705675E+03  0.14724627065E+03  0.26454294697E+03  0.00000000000E+00 0. -1.
         -1    1    3    3    0  502 -0.17273710976E+02 -0.12909177028E+03  0.31391114158E+02  0.13397189367E+03  0.00000000000E+00 0.  1.
         11    1    5    5    0    0 -0.27409094191E+02 -0.26681823533E+02  0.27875847054E+02  0.47331184228E+02  0.00000000000E+00 0. -1.
        -11    1    5    5    0    0 -0.37202883930E+02 -0.26591235244E+03  0.54240580960E+02  0.27392603815E+03  0.00000000000E+00 0.  1.
          2    1    6    6  503    0 -0.22035678933E+02  0.25505496980E+03  0.10451559157E+03  0.27651784327E+03  0.00000000000E+00 0.  1.
         -2    1    6    6    0  503  0.47676318385E+02  0.37908803320E+03  0.73045950439E+02  0.38899418907E+03  0.00000000000E+00 0. -1.
<mgrwt>
<rscale>  0 0.13141125E+04</rscale>
<asrwt>0</asrwt>
<pdfrwt beam="1">  1        1 0.72843749E-01 0.13141125E+04</pdfrwt>
<pdfrwt beam="2">  1       -1 0.14027688E+00 0.13141125E+04</pdfrwt>
<totfact> 0.19556058E+01</totfact>
</mgrwt>
</event>
<event>
12    2  0.3561489E-008  0.1214012E+04  0.7818608E-02  0.9100680E-01
         -2   -1    0    0    0  501 -0.00000000000E+00  0.00000000000E+00  0.27547519268E+03  0.27547519268E+03  0.00000000000E+00 0.  1.
          2   -1    0    0  501    0  0.00000000000E+00 -0.00000000000E+00 -0.13375297013E+04  0.13375297013E+04  0.00000000000E+00 0. -1.
         23    2    1    2    0    0 -0.16600464005E+03 -0.12596152510E+03 -0.44717664754E+03  0.50120090419E+03  0.88382950439E+02 0.  0.
        254    2    1    2    0    0  0.16600464005E+03  0.12596152510E+03 -0.61487786104E+03  0.11118039897E+04  0.90255719004E+03 0.  0.
         23    2    4    4    0    0  0.28180200263E+03  0.27961177196E+03 -0.75176399087E+03  0.85528789157E+03  0.93665189809E+02 0.  0.
         23    2    4    4    0    0 -0.11579736258E+03 -0.15365024686E+03  0.13688612984E+03  0.25651609818E+03  0.10022608713E+03 0.  0.
          2    1    3    3  502    0 -0.14271701984E+03 -0.13501178540E+03 -0.42317842283E+03  0.46655793584E+03  0.00000000000E+00 0. -1.
         -2    1    3    3    0  502 -0.23287620209E+02  0.90502602984E+01 -0.23998224715E+02  0.34642968348E+02  0.00000000000E+00 0.  1.
         11    1    5    5    0    0  0.16029574984E+03  0.13532269051E+03 -0.48640414061E+03  0.52971307893E+03  0.00000000000E+00 0.  1.
        -11    1    5    5    0    0  0.12150625280E+03  0.14428908145E+03 -0.26535985026E+03  0.32557481264E+03  0.00000000000E+00 0. -1.
          4    1    6    6  503    0 -0.12906405611E+03 -0.13247966779E+03  0.13911441961E+03  0.23143295941E+03  0.00000000000E+00 0. -1.
         -4    1    6    6    0  503  0.13266693527E+02 -0.21170579068E+02 -0.22282897709E+01  0.25083138769E+02  0.00000000000E+00 0.  1.
<mgrwt>
<rscale>  0 0.12140119E+04</rscale>
<asrwt>0</asrwt>
<pdfrwt beam="1">  1        2 0.20577380E+00 0.12140119E+04</pdfrwt>
<pdfrwt beam="2">  1       -2 0.42380799E-01 0.12140119E+04</pdfrwt>
<totfact> 0.81746783E+01</totfact>
</mgrwt>
</event>
<event>
12    2  0.3561489E-008  0.1060388E+04  0.7818608E-02  0.9244684E-01
         -1   -1    0    0    0  501 -0.00000000000E+00  0.00000000000E+00  0.27227173341E+03  0.27227173341E+03  0.00000000000E+00 0.  1.
          1   -1    0    0  501    0  0.00000000000E+00 -0.00000000000E+00 -0.10324462540E+04  0.10324462540E+04  0.00000000000E+00 0. -1.
         23    2    1    2    0    0 -0.67347972690E+02 -0.13460342018E+02 -0.24321874642E+03  0.26868771568E+03  0.91218417617E+02 0.  0.
        254    2    1    2    0    0  0.67347972690E+02  0.13460342018E+02 -0.51695577417E+03  0.10360302717E+04  0.89520864677E+03 0.  0.
         23    2    4    4    0    0  0.58531816269E+02 -0.18784526740E+03  0.19427176380E+03  0.29112211167E+03  0.91097462613E+02 0.  0.
         23    2    4    4    0    0  0.88161564209E+01  0.20130560942E+03 -0.71122753796E+03  0.74490816006E+03  0.91879721200E+02 0.  0.
          1    1    3    3  502    0  0.13880055353E+02  0.21533773702E+02 -0.49667491044E+02  0.55885767536E+02  0.00000000000E+00 0. -1.
         -1    1    3    3    0  502 -0.81228028043E+02 -0.34994115720E+02 -0.19355125538E+03  0.21280194814E+03  0.00000000000E+00 0.  1.
         11    1    5    5    0    0 -0.20739650618E+02 -0.81966796650E+02  0.74943550273E+02  0.11298329340E+03  0.00000000000E+00 0. -1.
        -11    1    5    5    0    0  0.79271466887E+02 -0.10587847075E+03  0.11932821352E+03  0.17813881826E+03  0.00000000000E+00 0.  1.
          1    1    6    6  503    0  0.38206395572E+02  0.98915853325E+02 -0.45936422683E+03  0.47144412987E+03  0.00000000000E+00 0. -1.
         -1    1    6    6    0  503 -0.29390239151E+02  0.10238975609E+03 -0.25186331114E+03  0.27346403019E+03  0.00000000000E+00 0.  1.
<mgrwt>
<rscale>  0 0.10603885E+04</rscale>
<asrwt>0</asrwt>
<pdfrwt beam="1">  1        1 0.15883789E+00 0.10603885E+04</pdfrwt>
<pdfrwt beam="2">  1       -1 0.41887959E-01 0.10603885E+04</pdfrwt>
<totfact> 0.79741900E+01</totfact>
</mgrwt>
</event>
<event>
12    2  0.3561489E-008  0.1252065E+04  0.7818608E-02  0.9068467E-01
          2   -1    0    0  501    0  0.00000000000E+00  0.00000000000E+00  0.10640784460E+04  0.10640784460E+04  0.00000000000E+00 0.  1.
         -2   -1    0    0    0  501 -0.00000000000E+00 -0.00000000000E+00 -0.36831545031E+03  0.36831545031E+03  0.00000000000E+00 0. -1.
         23    2    1    2    0    0  0.11189775581E+03 -0.27819145900E+03  0.44735638400E+02  0.31692479311E+03  0.92349615741E+02 0.  0.
        254    2    1    2    0    0 -0.11189775581E+03  0.27819145900E+03  0.65102735730E+03  0.11154691032E+04  0.85470644355E+03 0.  0.
         23    2    4    4    0    0 -0.35239294844E+03  0.18320867171E+03 -0.21378811208E+01  0.40750221119E+03  0.91144248783E+02 0.  0.
         23    2    4    4    0    0  0.24049519263E+03  0.94982787292E+02  0.65316523842E+03  0.70796689203E+03  0.87935339674E+02 0.  0.
          1    1    3    3  502    0  0.99558414526E+02 -0.27572722533E+03  0.57790767687E+02  0.29879282709E+03  0.00000000000E+00 0. -1.
         -1    1    3    3    0  502  0.12339341286E+02 -0.24642336700E+01 -0.13055129287E+02  0.18131966017E+02  0.00000000000E+00 0.  1.
         11    1    5    5    0    0 -0.17569207545E+03  0.52661745830E+02 -0.30674493605E+02  0.18596206443E+03  0.00000000000E+00 0. -1.
        -11    1    5    5    0    0 -0.17670087299E+03  0.13054692588E+03  0.28536612484E+02  0.22154014676E+03  0.00000000000E+00 0.  1.
          4    1    6    6  503    0  0.13300337541E+03  0.79277445554E+02  0.28798575179E+03  0.32697187108E+03  0.00000000000E+00 0. -1.
         -4    1    6    6    0  503  0.10749181722E+03  0.15705341738E+02  0.36517948664E+03  0.38099502095E+03  0.00000000000E+00 0.  1.
<mgrwt>
<rscale>  0 0.12520647E+04</rscale>
<asrwt>0</asrwt>
<pdfrwt beam="1">  1        2 0.16370438E+00 0.12520647E+04</pdfrwt>
<pdfrwt beam="2">  1       -2 0.56663916E-01 0.12520647E+04</pdfrwt>
<totfact> 0.65892224E+01</totfact>
</mgrwt>
</event>
<event>
12    2  0.3561489E-008  0.1432909E+04  0.7818608E-02  0.8930336E-01
         -2   -1    0    0    0  501 -0.00000000000E+00  0.00000000000E+00  0.43158533398E+03  0.43158533398E+03  0.00000000000E+00 0.  1.
          2   -1    0    0  501    0  0.00000000000E+00 -0.00000000000E+00 -0.11893528365E+04  0.11893528365E+04  0.00000000000E+00 0. -1.
         23    2    1    2    0    0 -0.20741685847E+03  0.13822917490E+03  0.16105045995E+03  0.31005080667E+03  0.89806425692E+02 0.  0.
        254    2    1    2    0    0  0.20741685847E+03 -0.13822917490E+03 -0.91881796246E+03  0.13108873638E+04  0.90114936304E+03 0.  0.
         23    2    4    4    0    0 -0.83908661326E+02 -0.33625513259E+02  0.14817730849E+03  0.19624599904E+03  0.91567673336E+02 0.  0.
         23    2    4    4    0    0  0.29132551980E+03 -0.10460366164E+03 -0.10669952709E+04  0.11146413648E+04  0.90188576476E+02 0.  0.
          3    1    3    3  502    0 -0.41507236708E+02  0.44463955713E+01 -0.18665294528E+01  0.41786422016E+02  0.00000000000E+00 0. -1.
         -3    1    3    3    0  502 -0.16590962176E+03  0.13378277932E+03  0.16291698940E+03  0.26826438465E+03  0.00000000000E+00 0.  1.
         11    1    5    5    0    0 -0.72799806730E+01 -0.26324996302E+02  0.10393053960E+03  0.10745957663E+03  0.00000000000E+00 0.  1.
        -11    1    5    5    0    0 -0.76628680653E+02 -0.73005169571E+01  0.44246768892E+02  0.88786422407E+02  0.00000000000E+00 0. -1.
          3    1    6    6  503    0  0.13052034261E+03 -0.88839836652E+01 -0.35076651451E+03  0.37436831157E+03  0.00000000000E+00 0. -1.
         -3    1    6    6    0  503  0.16080517718E+03 -0.95719677971E+02 -0.71622875643E+03  0.74027305321E+03  0.00000000000E+00 0.  1.
<mgrwt>
<rscale>  0 0.14329093E+04</rscale>
<asrwt>0</asrwt>
<pdfrwt beam="1">  1        2 0.18297736E+00 0.14329093E+04</pdfrwt>
<pdfrwt beam="2">  1       -2 0.66397744E-01 0.14329093E+04</pdfrwt>
<totfact> 0.38920294E+01</totfact>
</mgrwt>
</event>
<event>
12    2  0.3561489E-008  0.3261861E+04  0.7818608E-02  0.8172668E-01
          1   -1    0    0  501    0  0.00000000000E+00  0.00000000000E+00  0.13612835298E+04  0.13612835298E+04  0.00000000000E+00 0. -1.
         -1   -1    0    0    0  501 -0.00000000000E+00 -0.00000000000E+00 -0.19539899622E+04  0.19539899622E+04  0.00000000000E+00 0.  1.
         23    2    1    2    0    0  0.64454360856E+03  0.62380750751E+03 -0.15023318829E+04  0.17518797717E+04  0.86656669954E+02 0.  0.
        254    2    1    2    0    0 -0.64454360856E+03 -0.62380750751E+03  0.90962545052E+03  0.15633937203E+04  0.90122649457E+03 0.  0.
         23    2    4    4    0    0 -0.43689345819E+03 -0.81850577322E+03  0.84346348601E+03  0.12572831148E+04  0.92209457228E+02 0.  0.
         23    2    4    4    0    0 -0.20765015037E+03  0.19469826571E+03  0.66161964507E+02  0.30611060542E+03  0.91105968958E+02 0.  0.
          2    1    3    3  502    0  0.20661016730E+03  0.19947507064E+03 -0.56215278085E+03  0.63126366445E+03  0.00000000000E+00 0. -1.
         -2    1    3    3    0  502  0.43793344126E+03  0.42433243687E+03 -0.94017910202E+03  0.11206161073E+04  0.00000000000E+00 0.  1.
         11    1    5    5    0    0 -0.23098175346E+03 -0.52130380528E+03  0.53855474292E+03  0.78431590507E+03  0.00000000000E+00 0. -1.
        -11    1    5    5    0    0 -0.20591170473E+03 -0.29720196794E+03  0.30490874309E+03  0.47296720976E+03  0.00000000000E+00 0.  1.
          3    1    6    6  503    0 -0.93783577745E+02  0.14685011340E+03  0.25619719752E+02  0.17611554531E+03  0.00000000000E+00 0.  1.
         -3    1    6    6    0  503 -0.11386657263E+03  0.47848152311E+02  0.40542244756E+02  0.12999506010E+03  0.00000000000E+00 0. -1.
<mgrwt>
<rscale>  0 0.32618610E+04</rscale>
<asrwt>0</asrwt>
<pdfrwt beam="1">  1        1 0.20942824E+00 0.32618610E+04</pdfrwt>
<pdfrwt beam="2">  1       -1 0.30061384E+00 0.32618610E+04</pdfrwt>
<totfact> 0.22279075E-01</totfact>
</mgrwt>
</event>
<event>
12    2  0.3561489E-008  0.1987639E+04  0.7818608E-02  0.8612422E-01
          2   -1    0    0  501    0  0.00000000000E+00  0.00000000000E+00  0.22128972174E+04  0.22128972174E+04  0.00000000000E+00 0. -1.
         -2   -1    0    0    0  501 -0.00000000000E+00 -0.00000000000E+00 -0.44632765959E+03  0.44632765959E+03  0.00000000000E+00 0.  1.
         23    2    1    2    0    0 -0.40586335792E+03  0.44682259892E+03  0.33595543138E+02  0.61171387589E+03  0.93218588423E+02 0.  0.
        254    2    1    2    0    0  0.40586335792E+03 -0.44682259892E+03  0.17329740147E+04  0.20475110011E+04  0.90814473733E+03 0.  0.
         23    2    4    4    0    0 -0.12424958760E+03  0.17224590403E+03  0.64292889371E+03  0.68340702151E+03  0.92633596551E+02 0.  0.
         23    2    4    4    0    0  0.53011294552E+03 -0.61906850295E+03  0.10900451210E+04  0.13641039796E+04  0.91190762054E+02 0.  0.
          1    1    3    3  502    0 -0.30407594835E+03  0.26967658318E+03  0.18636545372E+02  0.40685988092E+03  0.00000000000E+00 0. -1.
         -1    1    3    3    0  502 -0.10178740957E+03  0.17714601574E+03  0.14958997766E+02  0.20485399497E+03  0.00000000000E+00 0.  1.
         11    1    5    5    0    0 -0.11884018351E+03  0.17220365546E+03  0.64463091581E+03  0.67773601483E+03  0.00000000000E+00 0. -1.
        -11    1    5    5    0    0 -0.54094040887E+01  0.42248564746E-01 -0.17020221053E+01  0.56710066816E+01  0.00000000000E+00 0.  1.
          2    1    6    6  503    0  0.43679720845E+03 -0.50429970289E+03  0.94634884076E+03  0.11578800111E+04  0.00000000000E+00 0. -1.
         -2    1    6    6    0  503  0.93315737075E+02 -0.11476880006E+03  0.14369628023E+03  0.20622396855E+03  0.00000000000E+00 0.  1.
<mgrwt>
<rscale>  0 0.19876390E+04</rscale>
<asrwt>0</asrwt>
<pdfrwt beam="1">  1        2 0.34044572E+00 0.19876390E+04</pdfrwt>
<pdfrwt beam="2">  1       -2 0.68665795E-01 0.19876390E+04</pdfrwt>
<totfact> 0.91559922E+00</totfact>
</mgrwt>
</event>
<event>
12    2  0.3561489E-008  0.1925658E+04  0.7818608E-02  0.8642189E-01
         -3   -1    0    0    0  501 -0.00000000000E+00  0.00000000000E+00  0.65146369529E+03  0.65146369529E+03  0.00000000000E+00 0.  1.
          3   -1    0    0  501    0  0.00000000000E+00 -0.00000000000E+00 -0.14230102510E+04  0.14230102510E+04  0.00000000000E+00 0. -1.
         23    2    1    2    0    0  0.48684668968E+02  0.11834505649E+03  0.49250162155E+03  0.51721046780E+03  0.92590881738E+02 0.  0.
        254    2    1    2    0    0 -0.48684668968E+02 -0.11834505649E+03 -0.12640481773E+04  0.15572634785E+04  0.90048653384E+03 0.  0.
         23    2    4    4    0    0 -0.33857171769E+03  0.20838619381E+03 -0.33901629426E+03  0.53024004513E+03  0.90370591987E+02 0.  0.
         23    2    4    4    0    0  0.28988704873E+03 -0.32673125030E+03 -0.92503188299E+03  0.10270234334E+04  0.91133622651E+02 0.  0.
          1    1    3    3  502    0 -0.24415212042E+02  0.20562215085E+02  0.62031020291E+02  0.69762129746E+02  0.00000000000E+00 0. -1.
         -1    1    3    3    0  502  0.73099881009E+02  0.97782841405E+02  0.43047060126E+03  0.44744833805E+03  0.00000000000E+00 0.  1.
         11    1    5    5    0    0 -0.14969491996E+02  0.90636757973E+01  0.43592599138E+01  0.18034385395E+02  0.00000000000E+00 0.  1.
        -11    1    5    5    0    0 -0.32360222570E+03  0.19932251801E+03 -0.34337555417E+03  0.51220565974E+03  0.00000000000E+00 0. -1.
          3    1    6    6  503    0  0.24519317602E+03 -0.24359077211E+03 -0.64892928579E+03  0.73523151169E+03  0.00000000000E+00 0. -1.
         -3    1    6    6    0  503  0.44693872708E+02 -0.83140478183E+02 -0.27610259720E+03  0.29179192167E+03  0.00000000000E+00 0.  1.
<mgrwt>
<rscale>  0 0.19256578E+04</rscale>
<asrwt>0</asrwt>
<pdfrwt beam="1">  1        3 0.21892465E+00 0.19256578E+04</pdfrwt>
<pdfrwt beam="2">  1       -3 0.10022518E+00 0.19256578E+04</pdfrwt>
<totfact> 0.23912719E-01</totfact>
</mgrwt>
</event>
<event>
12    2  0.3561489E-008  0.2000065E+04  0.7818608E-02  0.8606590E-01
         -1   -1    0    0    0  501 -0.00000000000E+00  0.00000000000E+00  0.34873673263E+03  0.34873673263E+03  0.00000000000E+00 0.  1.
          1   -1    0    0  501    0  0.00000000000E+00 -0.00000000000E+00 -0.28676801275E+04  0.28676801275E+04  0.00000000000E+00 0. -1.
         23    2    1    2    0    0  0.71386992046E+01 -0.16411388842E+03  0.24371865746E+03  0.30796846431E+03  0.91986203400E+02 0.  0.
        254    2    1    2    0    0 -0.71386992046E+01  0.16411388842E+03 -0.27626620523E+04  0.29084483958E+04  0.89430762405E+03 0.  0.
         23    2    4    4    0    0  0.85458045728E+02  0.47807307687E+03 -0.10299791322E+04  0.11427978905E+04  0.96296736188E+02 0.  0.
         23    2    4    4    0    0 -0.92596744932E+02 -0.31395918845E+03 -0.17326829201E+04  0.17656505053E+04  0.90482462518E+02 0.  0.
          4    1    3    3  502    0 -0.17544088391E+02 -0.13165993501E+01  0.55979184639E+01  0.18462534021E+02  0.00000000000E+00 0. -1.
         -4    1    3    3    0  502  0.24682787596E+02 -0.16279728907E+03  0.23812073899E+03  0.28950593029E+03  0.00000000000E+00 0.  1.
         11    1    5    5    0    0  0.99759370776E+02  0.44144516235E+03 -0.97782345407E+03  0.10774806127E+04  0.00000000000E+00 0. -1.
        -11    1    5    5    0    0 -0.14301325048E+02  0.36627914523E+02 -0.52155678133E+02  0.65317277821E+02  0.00000000000E+00 0.  1.
          4    1    6    6  503    0 -0.31436807541E+02 -0.83605985341E+02 -0.29099030950E+03  0.30439052856E+03  0.00000000000E+00 0. -1.
         -4    1    6    6    0  503 -0.61159937391E+02 -0.23035320311E+03 -0.14416926106E+04  0.14612599767E+04  0.00000000000E+00 0.  1.
<mgrwt>
<rscale>  0 0.20000654E+04</rscale>
<asrwt>0</asrwt>
<pdfrwt beam="1">  1        1 0.44118158E+00 0.20000654E+04</pdfrwt>
<pdfrwt beam="2">  1       -1 0.53651802E-01 0.20000654E+04</pdfrwt>
<totfact> 0.24275131E+00</totfact>
</mgrwt>
</event>
<event>
12    2  0.3561489E-008  0.2089976E+04  0.7818608E-02  0.8565672E-01
          2   -1    0    0  501    0  0.00000000000E+00  0.00000000000E+00  0.12974884756E+04  0.12974884756E+04  0.00000000000E+00 0. -1.
         -2   -1    0    0    0  501 -0.00000000000E+00 -0.00000000000E+00 -0.84162625563E+03  0.84162625563E+03  0.00000000000E+00 0.  1.
         23    2    1    2    0    0 -0.76694702469E+03 -0.36008021767E+03  0.11787648605E+03  0.86030039651E+03  0.91413371239E+02 0.  0.
        254    2    1    2    0    0  0.76694702469E+03  0.36008021767E+03  0.33798573391E+03  0.12788143347E+04  0.89625121730E+03 0.  0.
         23    2    4    4    0    0 -0.15002818406E+03 -0.16848983358E+02 -0.86698187640E+02  0.19638491541E+03  0.90874171293E+02 0.  0.
         23    2    4    4    0    0  0.91697520875E+03  0.37692920102E+03  0.42468392155E+03  0.10824294193E+04  0.91530642427E+02 0.  0.
          1    1    3    3  502    0 -0.71295891961E+03 -0.31217521837E+03  0.92471675577E+02  0.78378236699E+03  0.00000000000E+00 0. -1.
         -1    1    3    3    0  502 -0.53988105082E+02 -0.47904999291E+02  0.25404810469E+02  0.76518029525E+02  0.00000000000E+00 0.  1.
         11    1    5    5    0    0 -0.13201547544E+03  0.12297368152E+02 -0.40046689179E+02  0.13850288204E+03  0.00000000000E+00 0.  1.
        -11    1    5    5    0    0 -0.18012708616E+02 -0.29146351510E+02 -0.46651498462E+02  0.57882033368E+02  0.00000000000E+00 0. -1.
          4    1    6    6  503    0  0.38003505591E+03  0.18992503063E+03  0.21746310595E+03  0.47727179200E+03  0.00000000000E+00 0. -1.
         -4    1    6    6    0  503  0.53694015284E+03  0.18700417039E+03  0.20722081560E+03  0.60515762731E+03  0.00000000000E+00 0.  1.
<mgrwt>
<rscale>  0 0.20899764E+04</rscale>
<asrwt>0</asrwt>
<pdfrwt beam="1">  1        2 0.19961361E+00 0.20899764E+04</pdfrwt>
<pdfrwt beam="2">  1       -2 0.12948096E+00 0.20899764E+04</pdfrwt>
<totfact> 0.67130066E+00</totfact>
</mgrwt>
</event>
<event>
12    2  0.3561489E-008  0.2360415E+04  0.7818608E-02  0.8454474E-01
          2   -1    0    0  501    0  0.00000000000E+00  0.00000000000E+00  0.19060671632E+04  0.19060671632E+04  0.00000000000E+00 0. -1.
         -2   -1    0    0    0  501 -0.00000000000E+00 -0.00000000000E+00 -0.73076658396E+03  0.73076658396E+03  0.00000000000E+00 0.  1.
         23    2    1    2    0    0  0.10658529945E+03 -0.53892292806E+03  0.14404906273E+04  0.15443630515E+04  0.90805499990E+02 0.  0.
        254    2    1    2    0    0 -0.10658529945E+03  0.53892292806E+03 -0.26519004813E+03  0.10924706957E+04  0.90629361183E+03 0.  0.
         23    2    4    4    0    0  0.26635850505E+03  0.53246956135E+03  0.36887475450E+02  0.60377935114E+03  0.93370937888E+02 0.  0.
         23    2    4    4    0    0 -0.37294380450E+03  0.64533667085E+01 -0.30207752357E+03  0.48869134454E+03  0.91867691394E+02 0.  0.
          2    1    3    3  502    0  0.86047582531E+02 -0.48172342084E+03  0.13441498851E+04  0.14304546670E+04  0.00000000000E+00 0. -1.
         -2    1    3    3    0  502  0.20537716916E+02 -0.57199507220E+02  0.96340742226E+02  0.11390838448E+03  0.00000000000E+00 0.  1.
         11    1    5    5    0    0  0.16144285978E+03  0.24408161644E+03  0.48728487872E+02  0.29667170069E+03  0.00000000000E+00 0. -1.
        -11    1    5    5    0    0  0.10491564527E+03  0.28838794491E+03 -0.11841012422E+02  0.30710765046E+03  0.00000000000E+00 0.  1.
          2    1    6    6  503    0 -0.26943112517E+03  0.37631249262E+02 -0.24660826528E+03  0.36718507409E+03  0.00000000000E+00 0. -1.
         -2    1    6    6    0  503 -0.10351267932E+03 -0.31177882554E+02 -0.55469258297E+02  0.12150627044E+03  0.00000000000E+00 0.  1.
<mgrwt>
<rscale>  0 0.23604154E+04</rscale>
<asrwt>0</asrwt>
<pdfrwt beam="1">  1        2 0.29324110E+00 0.23604154E+04</pdfrwt>
<pdfrwt beam="2">  1       -2 0.11242563E+00 0.23604154E+04</pdfrwt>
<totfact> 0.42357037E+00</totfact>
</mgrwt>
</event>
<event>
12    2  0.3561489E-008  0.1165647E+04  0.7818608E-02  0.9143469E-01
          2   -1    0    0  501    0  0.00000000000E+00  0.00000000000E+00  0.12880745245E+04  0.12880745245E+04  0.00000000000E+00 0. -1.
         -2   -1    0    0    0  501 -0.00000000000E+00 -0.00000000000E+00 -0.26371376766E+03  0.26371376766E+03  0.00000000000E+00 0.  1.
         23    2    1    2    0    0  0.20342302081E+03  0.10476200990E+03  0.20424282603E+03  0.32116011718E+03  0.95250641810E+02 0.  0.
        254    2    1    2    0    0 -0.20342302081E+03 -0.10476200990E+03  0.82011793076E+03  0.12306281749E+04  0.88853603218E+03 0.  0.
         23    2    4    4    0    0 -0.10787541670E+02 -0.31719569086E+03  0.86635615314E+03  0.92706880551E+03  0.90300103569E+02 0.  0.
         23    2    4    4    0    0 -0.19263547914E+03  0.21243368096E+03 -0.46238222382E+02  0.30355936943E+03  0.88169274298E+02 0.  0.
          3    1    3    3  502    0  0.65013371309E+02  0.24962677744E+02  0.12437108108E+03  0.14254136080E+03  0.00000000000E+00 0. -1.
         -3    1    3    3    0  502  0.13840964950E+03  0.79799332161E+02  0.79871744947E+02  0.17861875638E+03  0.00000000000E+00 0.  1.
         11    1    5    5    0    0 -0.41508222634E+02 -0.77667137244E+02  0.25275614092E+03  0.26765795995E+03  0.00000000000E+00 0. -1.
        -11    1    5    5    0    0  0.30720680964E+02 -0.23952855362E+03  0.61360001222E+03  0.65941084556E+03  0.00000000000E+00 0.  1.
          3    1    6    6  503    0 -0.74261813428E+01 -0.78137284611E+01 -0.76401286883E+01  0.13212648795E+02  0.00000000000E+00 0. -1.
         -3    1    6    6    0  503 -0.18520929780E+03  0.22024740942E+03 -0.38598093694E+02  0.29034672063E+03  0.00000000000E+00 0.  1.
<mgrwt>
<rscale>  0 0.11656466E+04</rscale>
<asrwt>0</asrwt>
<pdfrwt beam="1">  1        2 0.19816531E+00 0.11656466E+04</pdfrwt>
<pdfrwt beam="2">  1       -2 0.40571349E-01 0.11656466E+04</pdfrwt>
<totfact> 0.95489627E+01</totfact>
</mgrwt>
</event>
<event>
12    2  0.3561489E-008  0.2183788E+04  0.7818608E-02  0.8525206E-01
          1   -1    0    0  501    0  0.00000000000E+00  0.00000000000E+00  0.25644871608E+04  0.25644871608E+04  0.00000000000E+00 0. -1.
         -1   -1    0    0    0  501 -0.00000000000E+00 -0.00000000000E+00 -0.46490099936E+03  0.46490099936E+03  0.00000000000E+00 0.  1.
         23    2    1    2    0    0 -0.52571524573E+03 -0.46094416364E+03  0.16729829848E+04  0.18155193526E+04  0.91610099852E+02 0.  0.
        254    2    1    2    0    0  0.52571524573E+03  0.46094416364E+03  0.42660317658E+03  0.12138688076E+04  0.89590243337E+03 0.  0.
         23    2    4    4    0    0  0.72239886032E+03  0.19543685600E+03  0.14221892616E+03  0.76788574112E+03  0.96781250171E+02 0.  0.
         23    2    4    4    0    0 -0.19668361459E+03  0.26550730764E+03  0.28438425042E+03  0.44598306644E+03  0.94063377645E+02 0.  0.
          1    1    3    3  502    0 -0.43924652276E+03 -0.42539663947E+03  0.14365890013E+04  0.15613096321E+04  0.00000000000E+00 0. -1.
         -1    1    3    3    0  502 -0.86468722967E+02 -0.35547524166E+02  0.23639398349E+03  0.25420972042E+03  0.00000000000E+00 0.  1.
         11    1    5    5    0    0  0.53202347664E+02  0.19785268120E+02  0.37771800849E+02  0.68181049940E+02  0.00000000000E+00 0.  1.
        -11    1    5    5    0    0  0.66919651265E+03  0.17565158788E+03  0.10444712531E+03  0.69970469118E+03  0.00000000000E+00 0. -1.
          2    1    6    6  503    0 -0.16335279558E+03  0.17689602232E+03  0.15768933915E+03  0.28782332466E+03  0.00000000000E+00 0. -1.
         -2    1    6    6    0  503 -0.33330819010E+02  0.88611285324E+02  0.12669491126E+03  0.15815974179E+03  0.00000000000E+00 0.  1.
<mgrwt>
<rscale>  0 0.21837881E+04</rscale>
<asrwt>0</asrwt>
<pdfrwt beam="1">  1        1 0.39453648E+00 0.21837881E+04</pdfrwt>
<pdfrwt beam="2">  1       -1 0.71523232E-01 0.21837881E+04</pdfrwt>
<totfact> 0.22017303E+00</totfact>
</mgrwt>
</event>
<event>
12    2  0.3561489E-008  0.1562609E+04  0.7818608E-02  0.8843854E-01
          1   -1    0    0  501    0  0.00000000000E+00  0.00000000000E+00  0.89254559386E+03  0.89254559386E+03  0.00000000000E+00 0. -1.
         -1   -1    0    0    0  501 -0.00000000000E+00 -0.00000000000E+00 -0.68392787662E+03  0.68392787662E+03  0.00000000000E+00 0.  1.
         23    2    1    2    0    0 -0.48505952481E+03 -0.11890948597E+03  0.15948971620E+03  0.53155984129E+03  0.87730763358E+02 0.  0.
        254    2    1    2    0    0  0.48505952481E+03  0.11890948597E+03  0.49128001047E+02  0.10449136292E+04  0.91651989805E+03 0.  0.
         23    2    4    4    0    0  0.58496521170E+03 -0.16924310031E+03 -0.19230704577E+03  0.64580601539E+03  0.96207503657E+02 0.  0.
         23    2    4    4    0    0 -0.99905686887E+02  0.28815258627E+03  0.24143504681E+03  0.39910761380E+03  0.89347335264E+02 0.  0.
          3    1    3    3  502    0 -0.36218238101E+03 -0.55559802457E+02  0.13854218030E+03  0.39173575850E+03  0.00000000000E+00 0. -1.
         -3    1    3    3    0  502 -0.12287714380E+03 -0.63349683508E+02  0.20947535899E+02  0.13982408279E+03  0.00000000000E+00 0.  1.
         11    1    5    5    0    0  0.78203935056E+02  0.45442664185E+01 -0.44345350213E+02  0.90016753447E+02  0.00000000000E+00 0.  1.
        -11    1    5    5    0    0  0.50676127664E+03 -0.17378736672E+03 -0.14796169555E+03  0.55578926194E+03  0.00000000000E+00 0. -1.
          3    1    6    6  503    0 -0.10510938900E+03  0.27267926658E+03  0.19877582584E+03  0.35343145731E+03  0.00000000000E+00 0. -1.
         -3    1    6    6    0  503  0.52037021097E+01  0.15473319691E+02  0.42659220975E+02  0.45676156494E+02  0.00000000000E+00 0.  1.
<mgrwt>
<rscale>  0 0.15626091E+04</rscale>
<asrwt>0</asrwt>
<pdfrwt beam="1">  1        1 0.13731471E+00 0.15626091E+04</pdfrwt>
<pdfrwt beam="2">  1       -1 0.10521967E+00 0.15626091E+04</pdfrwt>
<totfact> 0.15053425E+01</totfact>
</mgrwt>
</event>
<event>
12    2  0.3561489E-008  0.2645556E+04  0.7818608E-02  0.8352889E-01
         -1   -1    0    0    0  501 -0.00000000000E+00  0.00000000000E+00  0.94884624368E+03  0.94884624368E+03  0.00000000000E+00 0.  1.
          1   -1    0    0  501    0  0.00000000000E+00 -0.00000000000E+00 -0.18440732946E+04  0.18440732946E+04  0.00000000000E+00 0. -1.
         23    2    1    2    0    0 -0.13271820266E+02 -0.25686567726E+03  0.80303857310E+03  0.84817564984E+03  0.91514292488E+02 0.  0.
        254    2    1    2    0    0  0.13271820266E+02  0.25686567726E+03 -0.16982656240E+04  0.19447438884E+04  0.91201235985E+03 0.  0.
         23    2    4    4    0    0  0.24442533918E+03  0.18298684890E+03 -0.11461592510E+03  0.33995287552E+03  0.95933383076E+02 0.  0.
         23    2    4    4    0    0 -0.23115351891E+03  0.73878828365E+02 -0.15836496989E+04  0.16047910129E+04  0.92291904627E+02 0.  0.
          2    1    3    3  502    0 -0.34151877762E+02 -0.37909091585E+02  0.11437002314E+03  0.12523558669E+03  0.00000000000E+00 0. -1.
         -2    1    3    3    0  502  0.20880057496E+02 -0.21895658568E+03  0.68866854996E+03  0.72294006315E+03  0.00000000000E+00 0.  1.
         11    1    5    5    0    0  0.81491212506E+02  0.39385445253E+02  0.74508202203E+01  0.90815999337E+02  0.00000000000E+00 0. -1.
        -11    1    5    5    0    0  0.16293412667E+03  0.14360140365E+03 -0.12206674532E+03  0.24913687619E+03  0.00000000000E+00 0.  1.
          4    1    6    6  503    0  0.94504662136E+00  0.21259377169E+02 -0.10852042704E+03  0.11058723849E+03  0.00000000000E+00 0. -1.
         -4    1    6    6    0  503 -0.23209856553E+03  0.52619451196E+02 -0.14751292719E+04  0.14942037744E+04  0.00000000000E+00 0.  1.
<mgrwt>
<rscale>  0 0.26455563E+04</rscale>
<asrwt>0</asrwt>
<pdfrwt beam="1">  1        1 0.28370358E+00 0.26455563E+04</pdfrwt>
<pdfrwt beam="2">  1       -1 0.14597635E+00 0.26455563E+04</pdfrwt>
<totfact> 0.12518914E+00</totfact>
</mgrwt>
</event>
<event>
12    2  0.3561489E-008  0.1685286E+04  0.7818608E-02  0.8769801E-01
          2   -1    0    0  501    0  0.00000000000E+00  0.00000000000E+00  0.20985522127E+04  0.20985522127E+04  0.00000000000E+00 0. -1.
         -2   -1    0    0    0  501 -0.00000000000E+00 -0.00000000000E+00 -0.33835080793E+03  0.33835080793E+03  0.00000000000E+00 0.  1.
         23    2    1    2    0    0 -0.99514833741E+02 -0.24855520112E+03  0.14238833687E+04  0.14528286258E+04  0.10763028464E+03 0.  0.
        254    2    1    2    0    0  0.99514833741E+02  0.24855520112E+03  0.33631803608E+03  0.98407439484E+03  0.88521731967E+03 0.  0.
         23    2    4    4    0    0 -0.79232206545E+02 -0.18154151492E+03 -0.17680686888E+03  0.28416380365E+03  0.10125874889E+03 0.  0.
         23    2    4    4    0    0  0.17874704029E+03  0.43009671604E+03  0.51312490496E+03  0.69991059119E+03  0.98203757623E+02 0.  0.
          1    1    3    3  502    0 -0.55390149184E+02 -0.20915302260E+03  0.12633286697E+04  0.12817224283E+04  0.00000000000E+00 0. -1.
         -1    1    3    3    0  502 -0.44124684557E+02 -0.39402178522E+02  0.16055469902E+03  0.17110619754E+03  0.00000000000E+00 0.  1.
         11    1    5    5    0    0 -0.89878082027E+02 -0.18889421954E+03 -0.16994355128E+03  0.26951791485E+03  0.00000000000E+00 0. -1.
        -11    1    5    5    0    0  0.10645875483E+02  0.73527046239E+01 -0.68633176037E+01  0.14645888796E+02  0.00000000000E+00 0.  1.
          3    1    6    6  503    0  0.14116398723E+03  0.40625722751E+03  0.44797882910E+03  0.62101307354E+03  0.00000000000E+00 0. -1.
         -3    1    6    6    0  503  0.37583053057E+02  0.23839488533E+02  0.65146075863E+02  0.78897517647E+02  0.00000000000E+00 0.  1.
<mgrwt>
<rscale>  0 0.16852855E+04</rscale>
<asrwt>0</asrwt>
<pdfrwt beam="1">  1        2 0.32285418E+00 0.16852855E+04</pdfrwt>
<pdfrwt beam="2">  1       -2 0.52053972E-01 0.16852855E+04</pdfrwt>
<totfact> 0.19546126E+01</totfact>
</mgrwt>
</event>
<event>
12    2  0.3561489E-008  0.1659634E+04  0.7818608E-02  0.8784727E-01
          1   -1    0    0  501    0  0.00000000000E+00  0.00000000000E+00  0.21736283782E+04  0.21736283782E+04  0.00000000000E+00 0. -1.
         -1   -1    0    0    0  501 -0.00000000000E+00 -0.00000000000E+00 -0.31679578811E+03  0.31679578811E+03  0.00000000000E+00 0.  1.
         23    2    1    2    0    0 -0.12836372930E+03  0.14577701320E+03 -0.16189233186E+03  0.26838019436E+03  0.89947857301E+02 0.  0.
        254    2    1    2    0    0  0.12836372930E+03 -0.14577701320E+03  0.20187249219E+04  0.22220439719E+04  0.90802032915E+03 0.  0.
         23    2    4    4    0    0 -0.36676628126E+02 -0.16556098475E+03  0.20172339363E+04  0.20264433876E+04  0.92110992557E+02 0.  0.
         23    2    4    4    0    0  0.16504035742E+03  0.19783971553E+02  0.14909856310E+01  0.19560058425E+03  0.10309044773E+03 0.  0.
          3    1    3    3  502    0 -0.21401563905E+02  0.78550382855E+02 -0.32849176350E+02  0.87790990262E+02  0.00000000000E+00 0. -1.
         -3    1    3    3    0  502 -0.10696216539E+03  0.67226630346E+02 -0.12904315551E+03  0.18058920410E+03  0.00000000000E+00 0.  1.
         11    1    5    5    0    0 -0.57675419284E+02 -0.15790549584E+03  0.18674043219E+04  0.18749558664E+04  0.00000000000E+00 0. -1.
        -11    1    5    5    0    0  0.20998791158E+02 -0.76554889117E+01  0.14982961440E+03  0.15148752124E+03  0.00000000000E+00 0.  1.
          4    1    6    6  503    0  0.16005880963E+03  0.42061019353E+02  0.19345785165E+02  0.16661996066E+03  0.00000000000E+00 0. -1.
         -4    1    6    6    0  503  0.49815477978E+01 -0.22277047801E+02 -0.17854799534E+02  0.28980623589E+02  0.00000000000E+00 0.  1.
<mgrwt>
<rscale>  0 0.16596341E+04</rscale>
<asrwt>0</asrwt>
<pdfrwt beam="1">  1        1 0.33440436E+00 0.16596341E+04</pdfrwt>
<pdfrwt beam="2">  1       -1 0.48737815E-01 0.16596341E+04</pdfrwt>
<totfact> 0.91423558E+00</totfact>
</mgrwt>
</event>
<event>
12    2  0.3561489E-008  0.1152315E+04  0.7818608E-02  0.9155650E-01
          3   -1    0    0  501    0  0.00000000000E+00  0.00000000000E+00  0.49243367274E+03  0.49243367274E+03  0.00000000000E+00 0. -1.
         -3   -1    0    0    0  501 -0.00000000000E+00 -0.00000000000E+00 -0.67411662709E+03  0.67411662709E+03  0.00000000000E+00 0.  1.
         23    2    1    2    0    0  0.34605415675E+02 -0.20909093506E+02 -0.27108715739E+03  0.28857475834E+03  0.90290748513E+02 0.  0.
        254    2    1    2    0    0 -0.34605415675E+02  0.20909093506E+02  0.89404203033E+02  0.87797554149E+03  0.87247533773E+03 0.  0.
         23    2    4    4    0    0  0.14840309938E+03 -0.18876951573E+03  0.38374828132E+03  0.46183481166E+03  0.91494479968E+02 0.  0.
         23    2    4    4    0    0 -0.18300851506E+03  0.20967860924E+03 -0.29434407829E+03  0.41614072983E+03  0.95275573185E+02 0.  0.
          1    1    3    3  502    0 -0.70585781875E+00  0.31966965777E+02 -0.58318937597E+02  0.66509274681E+02  0.00000000000E+00 0.  1.
         -1    1    3    3    0  502  0.35311273494E+02 -0.52876059283E+02 -0.21276821979E+03  0.22206548366E+03  0.00000000000E+00 0. -1.
         11    1    5    5    0    0 -0.13576894216E+01 -0.25975209178E+02  0.92625401716E+02  0.96208210957E+02  0.00000000000E+00 0.  1.
        -11    1    5    5    0    0  0.14976078881E+03 -0.16279430655E+03  0.29112287961E+03  0.36562660070E+03  0.00000000000E+00 0. -1.
          4    1    6    6  503    0 -0.15623873312E+03  0.20689941674E+03 -0.23072054355E+03  0.34705889931E+03  0.00000000000E+00 0. -1.
         -4    1    6    6    0  503 -0.26769781939E+02  0.27791925018E+01 -0.63623534737E+02  0.69081830524E+02  0.00000000000E+00 0.  1.
<mgrwt>
<rscale>  0 0.11523155E+04</rscale>
<asrwt>0</asrwt>
<pdfrwt beam="1">  1        3 0.75759027E-01 0.11523155E+04</pdfrwt>
<pdfrwt beam="2">  1       -3 0.10371025E+00 0.11523155E+04</pdfrwt>
<totfact> 0.34159450E+00</totfact>
</mgrwt>
</event>
<event>
12    2  0.3561489E-008  0.1042315E+04  0.7818608E-02  0.9263314E-01
         -2   -1    0    0    0  501 -0.00000000000E+00  0.00000000000E+00  0.20293874431E+03  0.20293874431E+03  0.00000000000E+00 0.  1.
          2   -1    0    0  501    0  0.00000000000E+00 -0.00000000000E+00 -0.13383607608E+04  0.13383607608E+04  0.00000000000E+00 0. -1.
         23    2    1    2    0    0 -0.25204139114E+02 -0.73986553799E+02 -0.25129885000E+03  0.27834616536E+03  0.90643350486E+02 0.  0.
        254    2    1    2    0    0  0.25204139114E+02  0.73986553799E+02 -0.88412316648E+03  0.12629533397E+04  0.89848099929E+03 0.  0.
         23    2    4    4    0    0  0.20268591147E+03 -0.24264164084E+03 -0.30086841971E+02  0.33051933605E+03  0.91549270184E+02 0.  0.
         23    2    4    4    0    0 -0.17748177235E+03  0.31662819464E+03 -0.85403632450E+03  0.93243400369E+03  0.91114952124E+02 0.  0.
          2    1    3    3  502    0 -0.67122548068E+01  0.21214550333E+02 -0.38001727895E+02  0.44036834961E+02  0.00000000000E+00 0. -1.
         -2    1    3    3    0  502 -0.18491884307E+02 -0.95201104132E+02 -0.21329712210E+03  0.23430933039E+03  0.00000000000E+00 0.  1.
         11    1    5    5    0    0  0.20846543959E+03 -0.24420088996E+03 -0.34718009404E+02  0.32295085437E+03  0.00000000000E+00 0.  1.
        -11    1    5    5    0    0 -0.57795281269E+01  0.15592491234E+01  0.46311674331E+01  0.75684816833E+01  0.00000000000E+00 0. -1.
          2    1    6    6  503    0 -0.96610378545E+02  0.91364542994E+02 -0.35159458848E+03  0.37589865604E+03  0.00000000000E+00 0. -1.
         -2    1    6    6    0  503 -0.80871393807E+02  0.22526365164E+03 -0.50244173602E+03  0.55653534765E+03  0.00000000000E+00 0.  1.
<mgrwt>
<rscale>  0 0.10423152E+04</rscale>
<asrwt>0</asrwt>
<pdfrwt beam="1">  1        2 0.20590166E+00 0.10423152E+04</pdfrwt>
<pdfrwt beam="2">  1       -2 0.31221345E-01 0.10423152E+04</pdfrwt>
<totfact> 0.14867352E+02</totfact>
</mgrwt>
</event>
<event>
12    2  0.3561489E-008  0.1585097E+04  0.7818608E-02  0.8829756E-01
         -2   -1    0    0    0  501 -0.00000000000E+00  0.00000000000E+00  0.69064081192E+03  0.69064081192E+03  0.00000000000E+00 0.  1.
          2   -1    0    0  501    0  0.00000000000E+00 -0.00000000000E+00 -0.90949310610E+03  0.90949310610E+03  0.00000000000E+00 0. -1.
         23    2    1    2    0    0 -0.27431613220E+03 -0.38822550965E+03 -0.32582653193E+03  0.58351815198E+03  0.91444617428E+02 0.  0.
        254    2    1    2    0    0  0.27431613220E+03  0.38822550965E+03  0.10697423776E+03  0.10166157660E+04  0.89224197474E+03 0.  0.
         23    2    4    4    0    0  0.14589657543E+03  0.14061699029E+03  0.48774719785E+03  0.53590005743E+03  0.90733642413E+02 0.  0.
         23    2    4    4    0    0  0.12841955677E+03  0.24760851936E+03 -0.38077296009E+03  0.48071570861E+03  0.91093270609E+02 0.  0.
          2    1    3    3  502    0 -0.28007199175E+03 -0.37198113595E+03 -0.30565801607E+03  0.55698932562E+03  0.00000000000E+00 0. -1.
         -2    1    3    3    0  502  0.57558595557E+01 -0.16244373702E+02 -0.20168515862E+02  0.26528826364E+02  0.00000000000E+00 0.  1.
         11    1    5    5    0    0  0.71312459645E+02  0.10499875449E+03  0.20312920801E+03  0.23952386205E+03  0.00000000000E+00 0. -1.
        -11    1    5    5    0    0  0.74584115780E+02  0.35618235804E+02  0.28461798983E+03  0.29637619537E+03  0.00000000000E+00 0.  1.
          3    1    6    6  503    0  0.13580515426E+03  0.19225290165E+03 -0.32923936752E+03  0.40472556040E+03  0.00000000000E+00 0. -1.
         -3    1    6    6    0  503 -0.73855974864E+01  0.55355617708E+02 -0.51533592569E+02  0.75990148211E+02  0.00000000000E+00 0.  1.
<mgrwt>
<rscale>  0 0.15850969E+04</rscale>
<asrwt>0</asrwt>
<pdfrwt beam="1">  1        2 0.13992201E+00 0.15850969E+04</pdfrwt>
<pdfrwt beam="2">  1       -2 0.10625243E+00 0.15850969E+04</pdfrwt>
<totfact> 0.19818311E+01</totfact>
</mgrwt>
</event>
<event>
12    2  0.3561489E-008  0.3691078E+04  0.7818608E-02  0.8069942E-01
          2   -1    0    0  501    0  0.00000000000E+00  0.00000000000E+00  0.34901461935E+04  0.34901461935E+04  0.00000000000E+00 0. -1.
         -2   -1    0    0    0  501 -0.00000000000E+00 -0.00000000000E+00 -0.97589431192E+03  0.97589431192E+03  0.00000000000E+00 0.  1.
         23    2    1    2    0    0  0.34924908457E+02  0.86577480781E+03  0.30046805835E+04  0.31283678090E+04  0.88283475227E+02 0.  0.
        254    2    1    2    0    0 -0.34924908457E+02 -0.86577480781E+03 -0.49042870192E+03  0.13376726965E+04  0.89334325107E+03 0.  0.
         23    2    4    4    0    0 -0.17011246546E+03  0.44648018066E+02  0.11721185563E+03  0.23091857233E+03  0.93021887342E+02 0.  0.
         23    2    4    4    0    0  0.13518755700E+03 -0.91042282587E+03 -0.60764055755E+03  0.11067541242E+04  0.92370161603E+02 0.  0.
          4    1    3    3  502    0  0.31962697639E+02  0.70506888506E+03  0.25607442000E+04  0.26562293960E+04  0.00000000000E+00 0. -1.
         -4    1    3    3    0  502  0.29622108182E+01  0.16070592275E+03  0.44393638357E+03  0.47213841292E+03  0.00000000000E+00 0.  1.
         11    1    5    5    0    0 -0.13829907310E+03  0.64271762166E+02  0.62853205404E+02  0.16494853276E+03  0.00000000000E+00 0. -1.
        -11    1    5    5    0    0 -0.31813392364E+02 -0.19623744100E+02  0.54358650224E+02  0.65970039566E+02  0.00000000000E+00 0.  1.
          2    1    6    6  503    0  0.94574118202E+02 -0.82016946738E+03 -0.53163419847E+03  0.98196595666E+03  0.00000000000E+00 0. -1.
         -2    1    6    6    0  503  0.40613438803E+02 -0.90253358491E+02 -0.76006359077E+02  0.12478816751E+03  0.00000000000E+00 0.  1.
<mgrwt>
<rscale>  0 0.36910778E+04</rscale>
<asrwt>0</asrwt>
<pdfrwt beam="1">  1        2 0.53694556E+00 0.36910778E+04</pdfrwt>
<pdfrwt beam="2">  1       -2 0.15013759E+00 0.36910778E+04</pdfrwt>
<totfact> 0.19938290E-01</totfact>
</mgrwt>
</event>
<event>
12    2  0.3561489E-008  0.2293734E+04  0.7818608E-02  0.8480396E-01
          1   -1    0    0  501    0  0.00000000000E+00  0.00000000000E+00  0.22432278842E+04  0.22432278842E+04  0.00000000000E+00 0. -1.
         -1   -1    0    0    0  501 -0.00000000000E+00 -0.00000000000E+00 -0.58634431033E+03  0.58634431033E+03  0.00000000000E+00 0.  1.
         23    2    1    2    0    0 -0.36779810940E+03  0.37354631596E+03  0.17094546507E+04  0.17904258999E+04  0.92614258544E+02 0.  0.
        254    2    1    2    0    0  0.36779810940E+03 -0.37354631596E+03 -0.52571076793E+02  0.10391462946E+04  0.89568354015E+03 0.  0.
         23    2    4    4    0    0 -0.53590499085E+02  0.54330321013E+02  0.31005470009E+03  0.33170713502E+03  0.89844204040E+02 0.  0.
         23    2    4    4    0    0  0.42138860848E+03 -0.42787663697E+03 -0.36262577688E+03  0.70743915962E+03  0.91246559799E+02 0.  0.
          4    1    3    3  502    0 -0.37292439896E+03  0.36388353967E+03  0.16637158796E+04  0.17433973631E+04  0.00000000000E+00 0. -1.
         -4    1    3    3    0  502  0.51262895620E+01  0.96627762893E+01  0.45738771075E+02  0.47028536759E+02  0.00000000000E+00 0.  1.
         11    1    5    5    0    0  0.20708921453E+02 -0.47822843841E+01  0.37715409062E+02  0.43291820849E+02  0.00000000000E+00 0.  1.
        -11    1    5    5    0    0 -0.74299420538E+02  0.59112605397E+02  0.27233929103E+03  0.28841531417E+03  0.00000000000E+00 0. -1.
          4    1    6    6  503    0  0.41918598834E+03 -0.40060085664E+03 -0.34201172156E+03  0.67317899318E+03  0.00000000000E+00 0. -1.
         -4    1    6    6    0  503  0.22026201416E+01 -0.27275780326E+02 -0.20614055318E+02  0.34260166441E+02  0.00000000000E+00 0.  1.
<mgrwt>
<rscale>  0 0.22937340E+04</rscale>
<asrwt>0</asrwt>
<pdfrwt beam="1">  1        1 0.34511198E+00 0.22937340E+04</pdfrwt>
<pdfrwt beam="2">  1       -1 0.90206818E-01 0.22937340E+04</pdfrwt>
<totfact> 0.22117984E+00</totfact>
</mgrwt>
</event>
<event>
12    2  0.3561489E-008  0.3153704E+04  0.7818608E-02  0.8201152E-01
         -2   -1    0    0    0  501 -0.00000000000E+00  0.00000000000E+00  0.91050380312E+03  0.91050380312E+03  0.00000000000E+00 0.  1.
          2   -1    0    0  501    0  0.00000000000E+00 -0.00000000000E+00 -0.27308639543E+04  0.27308639543E+04  0.00000000000E+00 0. -1.
         23    2    1    2    0    0 -0.97755630415E+03  0.71349204910E+03  0.81116555877E+02  0.12163345677E+04  0.90568499484E+02 0.  0.
        254    2    1    2    0    0  0.97755630415E+03 -0.71349204910E+03 -0.19014767070E+04  0.24250331897E+04  0.89469831323E+03 0.  0.
         23    2    4    4    0    0  0.42175091452E+03 -0.76223646973E+03 -0.14821696483E+04  0.17214900652E+04  0.88447208603E+02 0.  0.
         23    2    4    4    0    0  0.55580538964E+03  0.48744420634E+02 -0.41930705874E+03  0.70354312443E+03  0.88650260764E+02 0.  0.
          4    1    3    3  502    0 -0.38882210005E+03  0.31625868344E+03  0.69749032296E+02  0.50603073804E+03  0.00000000000E+00 0. -1.
         -4    1    3    3    0  502 -0.58873420411E+03  0.39723336566E+03  0.11367523580E+02  0.71030382969E+03  0.00000000000E+00 0.  1.
         11    1    5    5    0    0  0.18192385564E+03 -0.32878495224E+03 -0.55423480210E+03  0.66960589150E+03  0.00000000000E+00 0. -1.
        -11    1    5    5    0    0  0.23982705888E+03 -0.43345151749E+03 -0.92793484620E+03  0.10518841737E+04  0.00000000000E+00 0.  1.
          2    1    6    6  503    0  0.91019951839E+01 -0.10226705004E+02 -0.18872055174E+02  0.23314936802E+02  0.00000000000E+00 0.  1.
         -2    1    6    6    0  503  0.54670339445E+03  0.58971125639E+02 -0.40043500357E+03  0.68022818763E+03  0.00000000000E+00 0. -1.
<mgrwt>
<rscale>  0 0.31537039E+04</rscale>
<asrwt>0</asrwt>
<pdfrwt beam="1">  1        2 0.42013290E+00 0.31537039E+04</pdfrwt>
<pdfrwt beam="2">  1       -2 0.14007751E+00 0.31537039E+04</pdfrwt>
<totfact> 0.77123956E-01</totfact>
</mgrwt>
</event>
<event>
12    2  0.3561489E-008  0.1541220E+04  0.7818608E-02  0.8857495E-01
         -2   -1    0    0    0  501 -0.00000000000E+00  0.00000000000E+00  0.15145991080E+03  0.15145991080E+03  0.00000000000E+00 0. -1.
          2   -1    0    0  501    0  0.00000000000E+00 -0.00000000000E+00 -0.39207744425E+04  0.39207744425E+04  0.00000000000E+00 0.  1.
         23    2    1    2    0    0  0.32377256340E+03  0.23185687985E+03 -0.44253199348E+03  0.60192710420E+03  0.88855995729E+02 0.  0.
        254    2    1    2    0    0 -0.32377256340E+03 -0.23185687985E+03 -0.33267825383E+04  0.34703072491E+04  0.90386064248E+03 0.  0.
         23    2    4    4    0    0  0.12091912717E+03 -0.35828602041E+03 -0.69467615588E+03  0.79648464262E+03  0.93928252659E+02 0.  0.
         23    2    4    4    0    0 -0.44469169057E+03  0.12642914056E+03 -0.26321063824E+04  0.26738226065E+04  0.87225545098E+02 0.  0.
          1    1    3    3  502    0 -0.46719115487E+01  0.10111997810E+02 -0.73572196698E+01  0.13349454614E+02  0.00000000000E+00 0. -1.
         -1    1    3    3    0  502  0.32844447495E+03  0.22174488204E+03 -0.43517477381E+03  0.58857764959E+03  0.00000000000E+00 0.  1.
         11    1    5    5    0    0  0.92677817990E+02 -0.28154246411E+03 -0.61303909592E+03  0.68093485016E+03  0.00000000000E+00 0. -1.
        -11    1    5    5    0    0  0.28241309179E+02 -0.76743556300E+02 -0.81637059962E+02  0.11554979246E+03  0.00000000000E+00 0.  1.
          3    1    6    6  503    0 -0.42173901014E+03  0.97678317881E+02 -0.23807628835E+04  0.24198009740E+04  0.00000000000E+00 0. -1.
         -3    1    6    6    0  503 -0.22952680433E+02  0.28750822679E+02 -0.25134349887E+03  0.25402163248E+03  0.00000000000E+00 0.  1.
<mgrwt>
<rscale>  0 0.15412205E+04</rscale>
<asrwt>0</asrwt>
<pdfrwt beam="1">  1        2 0.60319610E+00 0.15412205E+04</pdfrwt>
<pdfrwt beam="2">  1       -2 0.23301523E-01 0.15412205E+04</pdfrwt>
<totfact> 0.63408759E+00</totfact>
</mgrwt>
</event>
<event>
12    2  0.3561489E-008  0.1487595E+04  0.7818608E-02  0.8892744E-01
          2   -1    0    0  501    0  0.00000000000E+00  0.00000000000E+00  0.90926893956E+03  0.90926893956E+03  0.00000000000E+00 0. -1.
         -2   -1    0    0    0  501 -0.00000000000E+00 -0.00000000000E+00 -0.60843916781E+03  0.60843916781E+03  0.00000000000E+00 0.  1.
         23    2    1    2    0    0  0.37063221500E+03  0.28022420146E+03  0.83338192064E+02  0.48097512163E+03  0.92184442745E+02 0.  0.
        254    2    1    2    0    0 -0.37063221500E+03 -0.28022420146E+03  0.21749157969E+03  0.10367329857E+04  0.90089891476E+03 0.  0.
         23    2    4    4    0    0 -0.28287361719E+03 -0.59938283793E+03  0.16235368174E+03  0.68900690948E+03  0.95365264258E+02 0.  0.
         23    2    4    4    0    0 -0.87758597815E+02  0.31915863647E+03  0.55137897947E+02  0.34772607627E+03  0.91156072774E+02 0.  0.
          4    1    3    3  502    0  0.35951277784E+03  0.28446917245E+03  0.90202910530E+02  0.46723517908E+03  0.00000000000E+00 0. -1.
         -4    1    3    3    0  502  0.11119437161E+02 -0.42449709877E+01 -0.68647184653E+01  0.13739942542E+02  0.00000000000E+00 0.  1.
         11    1    5    5    0    0 -0.21635823766E+03 -0.45945152068E+03  0.16521860335E+03  0.53404473010E+03  0.00000000000E+00 0.  1.
        -11    1    5    5    0    0 -0.66515379533E+02 -0.13993131725E+03 -0.28649216021E+01  0.15496217938E+03  0.00000000000E+00 0. -1.
          3    1    6    6  503    0 -0.55654901773E+01  0.42013690583E+02  0.39964574684E+02  0.58251970842E+02  0.00000000000E+00 0. -1.
         -3    1    6    6    0  503 -0.82193107638E+02  0.27714494588E+03  0.15173323263E+02  0.28947410542E+03  0.00000000000E+00 0.  1.
<mgrwt>
<rscale>  0 0.14875952E+04</rscale>
<asrwt>0</asrwt>
<pdfrwt beam="1">  1        2 0.13988753E+00 0.14875952E+04</pdfrwt>
<pdfrwt beam="2">  1       -2 0.93606026E-01 0.14875952E+04</pdfrwt>
<totfact> 0.26971724E+01</totfact>
</mgrwt>
</event>
<event>
12    2  0.3561489E-008  0.1632053E+04  0.7818608E-02  0.8801095E-01
          1   -1    0    0  501    0  0.00000000000E+00  0.00000000000E+00  0.11169250459E+04  0.11169250459E+04  0.00000000000E+00 0. -1.
         -1   -1    0    0    0  501 -0.00000000000E+00 -0.00000000000E+00 -0.59618949985E+03  0.59618949985E+03  0.00000000000E+00 0.  1.
         23    2    1    2    0    0  0.52402893465E+03  0.16142338053E+03  0.27855288916E+03  0.62175579277E+03  0.91239912563E+02 0.  0.
        254    2    1    2    0    0 -0.52402893465E+03 -0.16142338053E+03  0.24218265693E+03  0.10913587530E+04  0.91200200458E+03 0.  0.
         23    2    4    4    0    0 -0.54308574705E+03  0.87932181824E+02  0.48024036989E+03  0.73529941039E+03  0.85791682544E+02 0.  0.
         23    2    4    4    0    0  0.19056812400E+02 -0.24935556235E+03 -0.23805771295E+03  0.35605934264E+03  0.86979435571E+02 0.  0.
          1    1    3    3  502    0  0.11617903491E+03  0.24262730680E+01  0.80031909594E+02  0.14109770199E+03  0.00000000000E+00 0. -1.
         -1    1    3    3    0  502  0.40784989975E+03  0.15899710746E+03  0.19852097957E+03  0.48065809078E+03  0.00000000000E+00 0.  1.
         11    1    5    5    0    0 -0.37875292496E+03  0.10041648600E+03  0.32988340048E+03  0.51221119349E+03  0.00000000000E+00 0. -1.
        -11    1    5    5    0    0 -0.16433282210E+03 -0.12484304178E+02  0.15035696941E+03  0.22308821690E+03  0.00000000000E+00 0.  1.
          3    1    6    6  503    0  0.81526922429E+01 -0.17314381038E+03 -0.21401516428E+03  0.27540467681E+03  0.00000000000E+00 0. -1.
         -3    1    6    6    0  503  0.10904120157E+02 -0.76211751968E+02 -0.24042548672E+02  0.80654665835E+02  0.00000000000E+00 0.  1.
<mgrwt>
<rscale>  0 0.16320527E+04</rscale>
<asrwt>0</asrwt>
<pdfrwt beam="1">  1        1 0.17183462E+00 0.16320527E+04</pdfrwt>
<pdfrwt beam="2">  1       -1 0.91721462E-01 0.16320527E+04</pdfrwt>
<totfact> 0.13650046E+01</totfact>
</mgrwt>
</event>
<event>
12    2  0.3561489E-008  0.1536469E+04  0.7818608E-02  0.8860558E-01
          3   -1    0    0  501    0  0.00000000000E+00  0.00000000000E+00  0.26124735896E+04  0.26124735896E+04  0.00000000000E+00 0. -1.
         -3   -1    0    0    0  501 -0.00000000000E+00 -0.00000000000E+00 -0.22590998533E+03  0.22590998533E+03  0.00000000000E+00 0.  1.
         23    2    1    2    0    0 -0.11610614734E+03 -0.30738186446E+03  0.11137754923E+03  0.35867702001E+03  0.90994495237E+02 0.  0.
        254    2    1    2    0    0  0.11610614734E+03  0.30738186446E+03  0.22751860550E+04  0.24797065549E+04  0.92978963503E+03 0.  0.
         23    2    4    4    0    0 -0.71797683572E+02  0.37849219615E+02 -0.46545150881E+02  0.13308492193E+03  0.94644992377E+02 0.  0.
         23    2    4    4    0    0  0.18790383091E+03  0.26953264484E+03  0.23217312059E+04  0.23466216330E+04  0.90783256061E+02 0.  0.
          4    1    3    3  502    0 -0.70351264362E+02 -0.26361535156E+03  0.11305810319E+03  0.29533792285E+03  0.00000000000E+00 0. -1.
         -4    1    3    3    0  502 -0.45754882977E+02 -0.43766512897E+02 -0.16805539633E+01  0.63339097160E+02  0.00000000000E+00 0.  1.
         11    1    5    5    0    0  0.11028305369E+02 -0.20348866960E+02 -0.50970132551E+01  0.23699777425E+02  0.00000000000E+00 0.  1.
        -11    1    5    5    0    0 -0.82825988941E+02  0.58198086575E+02 -0.41448137626E+02  0.10938514450E+03  0.00000000000E+00 0. -1.
          2    1    6    6  503    0  0.17318535778E+03  0.19277202914E+03  0.19143989481E+04  0.19318585755E+04  0.00000000000E+00 0. -1.
         -2    1    6    6    0  503  0.14718473136E+02  0.76760615699E+02  0.40733225779E+03  0.41476305744E+03  0.00000000000E+00 0.  1.
<mgrwt>
<rscale>  0 0.15364685E+04</rscale>
<asrwt>0</asrwt>
<pdfrwt beam="1">  1        3 0.40191899E+00 0.15364685E+04</pdfrwt>
<pdfrwt beam="2">  1       -3 0.34755384E-01 0.15364685E+04</pdfrwt>
<totfact> 0.22659306E-01</totfact>
</mgrwt>
</event>
<event>
12    2  0.3561489E-008  0.2269949E+04  0.7818608E-02  0.8489865E-01
         -1   -1    0    0    0  501 -0.00000000000E+00  0.00000000000E+00  0.19710543859E+04  0.19710543859E+04  0.00000000000E+00 0.  1.
          1   -1    0    0  501    0  0.00000000000E+00 -0.00000000000E+00 -0.65354214419E+03  0.65354214419E+03  0.00000000000E+00 0. -1.
         23    2    1    2    0    0  0.38859481098E+03  0.58542182187E+03  0.12931309932E+04  0.14746125391E+04  0.92572880457E+02 0.  0.
        254    2    1    2    0    0 -0.38859481098E+03 -0.58542182187E+03  0.24381248537E+02  0.11499839910E+04  0.91002422919E+03 0.  0.
         23    2    4    4    0    0 -0.11518159490E+03 -0.40697630278E+03  0.43784527878E+03  0.61543192390E+03  0.90285402877E+02 0.  0.
         23    2    4    4    0    0 -0.27341321607E+03 -0.17844551909E+03 -0.41346403024E+03  0.53455206714E+03  0.90530758144E+02 0.  0.
          4    1    3    3  502    0  0.37486256190E+03  0.56257040849E+03  0.12724165042E+04  0.14408508476E+04  0.00000000000E+00 0.  1.
         -4    1    3    3    0  502  0.13732249079E+02  0.22851413386E+02  0.20714489011E+02  0.33761691508E+02  0.00000000000E+00 0. -1.
         11    1    5    5    0    0 -0.10642904665E+01 -0.11024904734E+03  0.76794801511E+02  0.13436304065E+03  0.00000000000E+00 0.  1.
        -11    1    5    5    0    0 -0.11411730444E+03 -0.29672725544E+03  0.36105047727E+03  0.48106888325E+03  0.00000000000E+00 0. -1.
          3    1    6    6  503    0 -0.20816199526E+03 -0.16644595761E+03 -0.36693882389E+03  0.45351931994E+03  0.00000000000E+00 0. -1.
         -3    1    6    6    0  503 -0.65251220808E+02 -0.11999561477E+02 -0.46525206349E+02  0.81032747198E+02  0.00000000000E+00 0.  1.
<mgrwt>
<rscale>  0 0.22699490E+04</rscale>
<asrwt>0</asrwt>
<pdfrwt beam="1">  1        1 0.10054495E+00 0.22699490E+04</pdfrwt>
<pdfrwt beam="2">  1       -1 0.30323913E+00 0.22699490E+04</pdfrwt>
<totfact> 0.86173415E-01</totfact>
</mgrwt>
</event>
<event>
12    2  0.3561489E-008  0.2725219E+04  0.7818608E-02  0.8326868E-01
          2   -1    0    0  501    0  0.00000000000E+00  0.00000000000E+00  0.11353291821E+04  0.11353291821E+04  0.00000000000E+00 0. -1.
         -2   -1    0    0    0  501 -0.00000000000E+00 -0.00000000000E+00 -0.16353890491E+04  0.16353890491E+04  0.00000000000E+00 0.  1.
         23    2    1    2    0    0  0.45202193701E+03 -0.18996659666E+03 -0.13495649762E+04  0.14393646042E+04  0.10016835545E+03 0.  0.
        254    2    1    2    0    0 -0.45202193701E+03  0.18996659666E+03  0.84950510920E+03  0.13313536270E+04  0.90024019582E+03 0.  0.
         23    2    4    4    0    0  0.10625578292E+03 -0.26203428853E+03  0.18537602980E+03  0.34889330669E+03  0.86081399026E+02 0.  0.
         23    2    4    4    0    0 -0.55827771993E+03  0.45200088520E+03  0.66412907940E+03  0.98246032031E+03  0.90454596792E+02 0.  0.
          4    1    3    3  502    0  0.69991742619E+02 -0.61609933883E+02 -0.18765967853E+03  0.20954899888E+03  0.00000000000E+00 0. -1.
         -4    1    3    3    0  502  0.38203019440E+03 -0.12835666278E+03 -0.11619052976E+04  0.12298156053E+04  0.00000000000E+00 0.  1.
         11    1    5    5    0    0  0.31536064037E+02 -0.48223159583E+02  0.81266054465E+02  0.99620118768E+02  0.00000000000E+00 0. -1.
        -11    1    5    5    0    0  0.74719718881E+02 -0.21381112895E+03  0.10410997534E+03  0.24927318792E+03  0.00000000000E+00 0.  1.
          3    1    6    6  503    0 -0.21472327778E+03  0.22594135838E+03  0.31246534105E+03  0.44135039685E+03  0.00000000000E+00 0. -1.
         -3    1    6    6    0  503 -0.34355444215E+03  0.22605952682E+03  0.35166373835E+03  0.54110992346E+03  0.00000000000E+00 0.  1.
<mgrwt>
<rscale>  0 0.27252192E+04</rscale>
<asrwt>0</asrwt>
<pdfrwt beam="1">  1        2 0.17466603E+00 0.27252192E+04</pdfrwt>
<pdfrwt beam="2">  1       -2 0.25159831E+00 0.27252192E+04</pdfrwt>
<totfact> 0.11398172E+00</totfact>
</mgrwt>
</event>
<event>
12    2  0.3561489E-008  0.1755539E+04  0.7818608E-02  0.8730307E-01
          3   -1    0    0  501    0  0.00000000000E+00  0.00000000000E+00  0.99123492189E+03  0.99123492189E+03  0.00000000000E+00 0. -1.
         -3   -1    0    0    0  501 -0.00000000000E+00 -0.00000000000E+00 -0.77729237208E+03  0.77729237208E+03  0.00000000000E+00 0.  1.
         23    2    1    2    0    0  0.25613251914E+03 -0.15077500657E+03  0.72257616107E+03  0.78670115123E+03  0.91898981624E+02 0.  0.
        254    2    1    2    0    0 -0.25613251914E+03  0.15077500657E+03 -0.50863361126E+03  0.98182614275E+03  0.78545366134E+03 0.  0.
         23    2    4    4    0    0 -0.27643789856E+03  0.31446421172E+03 -0.62703393617E+03  0.75935023851E+03  0.90197424573E+02 0.  0.
         23    2    4    4    0    0  0.20305379426E+02 -0.16368920515E+03  0.11840032491E+03  0.22247590423E+03  0.90941886440E+02 0.  0.
          3    1    3    3  502    0  0.23144070580E+03 -0.16051667710E+03  0.62414137000E+03  0.68475021261E+03  0.00000000000E+00 0. -1.
         -3    1    3    3    0  502  0.24691813336E+02  0.97416705258E+01  0.98434791078E+02  0.10195093862E+03  0.00000000000E+00 0.  1.
         11    1    5    5    0    0 -0.26212461239E+03  0.30919113145E+03 -0.56435389742E+03  0.69484083769E+03  0.00000000000E+00 0. -1.
        -11    1    5    5    0    0 -0.14313286176E+02  0.52730802754E+01 -0.62680038752E+02  0.64509400824E+02  0.00000000000E+00 0.  1.
          1    1    6    6  503    0  0.39459072727E+01 -0.12744955293E+03  0.12894085581E+03  0.18134139909E+03  0.00000000000E+00 0. -1.
         -1    1    6    6    0  503  0.16359472153E+02 -0.36239652215E+02 -0.10540530897E+02  0.41134505143E+02  0.00000000000E+00 0.  1.
<mgrwt>
<rscale>  0 0.17555391E+04</rscale>
<asrwt>0</asrwt>
<pdfrwt beam="1">  1        3 0.15249768E+00 0.17555391E+04</pdfrwt>
<pdfrwt beam="2">  1       -3 0.11958344E+00 0.17555391E+04</pdfrwt>
<totfact> 0.43814824E-01</totfact>
</mgrwt>
</event>
<event>
12    2  0.3561489E-008  0.1141005E+04  0.7818608E-02  0.9166122E-01
         -1   -1    0    0    0  501 -0.00000000000E+00  0.00000000000E+00  0.38280599951E+03  0.38280599951E+03  0.00000000000E+00 0.  1.
          1   -1    0    0  501    0  0.00000000000E+00 -0.00000000000E+00 -0.85022960027E+03  0.85022960027E+03  0.00000000000E+00 0. -1.
         23    2    1    2    0    0  0.36469185003E+02 -0.48577991658E+02 -0.29739614615E+03  0.31713692799E+03  0.91877857078E+02 0.  0.
        254    2    1    2    0    0 -0.36469185003E+02  0.48577991658E+02 -0.17002745460E+03  0.91589867179E+03  0.89792606541E+03 0.  0.
         23    2    4    4    0    0 -0.10072087446E+03  0.42974023242E+03  0.63585909072E+02  0.45538653517E+03  0.92262487849E+02 0.  0.
         23    2    4    4    0    0  0.64251689455E+02 -0.38116224076E+03 -0.23361336367E+03  0.46051213662E+03  0.89907123797E+02 0.  0.
          1    1    3    3  502    0  0.54674472654E+02 -0.59304763164E+02 -0.17202118349E+03  0.18999379059E+03  0.00000000000E+00 0.  1.
         -1    1    3    3    0  502 -0.18205287651E+02  0.10726771506E+02 -0.12537496266E+03  0.12714313740E+03  0.00000000000E+00 0. -1.
         11    1    5    5    0    0 -0.82312148317E+02  0.42235449265E+03  0.55105942367E+02  0.43381479009E+03  0.00000000000E+00 0. -1.
        -11    1    5    5    0    0 -0.18408726141E+02  0.73857397748E+01  0.84799667046E+01  0.21571745072E+02  0.00000000000E+00 0.  1.
          2    1    6    6  503    0  0.80928510360E+02 -0.29167322364E+03 -0.20304967408E+03  0.36448849546E+03  0.00000000000E+00 0. -1.
         -2    1    6    6    0  503 -0.16676820905E+02 -0.89489017121E+02 -0.30563689595E+02  0.96023641164E+02  0.00000000000E+00 0.  1.
<mgrwt>
<rscale>  0 0.11410048E+04</rscale>
<asrwt>0</asrwt>
<pdfrwt beam="1">  1        1 0.13080455E+00 0.11410048E+04</pdfrwt>
<pdfrwt beam="2">  1       -1 0.58893231E-01 0.11410048E+04</pdfrwt>
<totfact> 0.58136484E+01</totfact>
</mgrwt>
</event>
<event>
12    2  0.3561489E-008  0.2276727E+04  0.7818608E-02  0.8487154E-01
          1   -1    0    0  501    0  0.00000000000E+00  0.00000000000E+00  0.19910990327E+04  0.19910990327E+04  0.00000000000E+00 0. -1.
         -1   -1    0    0    0  501 -0.00000000000E+00 -0.00000000000E+00 -0.65083250589E+03  0.65083250589E+03  0.00000000000E+00 0.  1.
         23    2    1    2    0    0 -0.85034681952E+03 -0.42502323860E+03  0.43213835555E+03  0.10483568535E+04  0.92596258322E+02 0.  0.
        254    2    1    2    0    0  0.85034681952E+03  0.42502323860E+03  0.90812817121E+03  0.15935746851E+04  0.90058260850E+03 0.  0.
         23    2    4    4    0    0 -0.16022637685E+03 -0.23307755656E+02  0.60765083687E+02  0.19768182112E+03  0.95759927398E+02 0.  0.
         23    2    4    4    0    0  0.10105731964E+04  0.44833099426E+03  0.84736308752E+03  0.13958928640E+04  0.90740398425E+02 0.  0.
          1    1    3    3  502    0 -0.38213142430E+03 -0.21738176968E+03  0.15616531035E+03  0.46654781468E+03  0.00000000000E+00 0. -1.
         -1    1    3    3    0  502 -0.46821539523E+03 -0.20764146892E+03  0.27597304520E+03  0.58180903880E+03  0.00000000000E+00 0.  1.
         11    1    5    5    0    0 -0.85116550466E+02  0.18521402602E+02  0.69265788906E+02  0.11129069606E+03  0.00000000000E+00 0.  1.
        -11    1    5    5    0    0 -0.75109826379E+02 -0.41829158258E+02 -0.85007052192E+01  0.86391125057E+02  0.00000000000E+00 0. -1.
          3    1    6    6  503    0  0.37327831369E+03  0.15926120449E+03  0.36634264937E+03  0.54672458101E+03  0.00000000000E+00 0. -1.
         -3    1    6    6    0  503  0.63729488268E+03  0.28906978977E+03  0.48102043815E+03  0.84916828295E+03  0.00000000000E+00 0.  1.
<mgrwt>
<rscale>  0 0.22767275E+04</rscale>
<asrwt>0</asrwt>
<pdfrwt beam="1">  1        1 0.30632293E+00 0.22767275E+04</pdfrwt>
<pdfrwt beam="2">  1       -1 0.10012808E+00 0.22767275E+04</pdfrwt>
<totfact> 0.26003940E+00</totfact>
</mgrwt>
</event>
<event>
12    2  0.3561489E-008  0.1393585E+04  0.7818608E-02  0.8958475E-01
         -3   -1    0    0    0  501 -0.00000000000E+00  0.00000000000E+00  0.34139929923E+04  0.34139929923E+04  0.00000000000E+00 0.  1.
          3   -1    0    0  501    0  0.00000000000E+00 -0.00000000000E+00 -0.14221472936E+03  0.14221472936E+03  0.00000000000E+00 0. -1.
         23    2    1    2    0    0  0.18128827850E+03 -0.32878940925E+03  0.60132189949E+03  0.71482778598E+03  0.91775929543E+02 0.  0.
        254    2    1    2    0    0 -0.18128827850E+03  0.32878940925E+03  0.26704563634E+04  0.28413799356E+04  0.89506135779E+03 0.  0.
         23    2    4    4    0    0 -0.17580069435E+02 -0.42047697197E+02 -0.34146626207E+02  0.10509773999E+03  0.88331620546E+02 0.  0.
         23    2    4    4    0    0 -0.16370820906E+03  0.37083710644E+03  0.27046029896E+04  0.27362821957E+04  0.89679348579E+02 0.  0.
          4    1    3    3  502    0  0.17452051619E+02 -0.68825275341E+02  0.17880726138E+03  0.19238900528E+03  0.00000000000E+00 0. -1.
         -4    1    3    3    0  502  0.16383622688E+03 -0.25996413390E+03  0.42251463811E+03  0.52243878069E+03  0.00000000000E+00 0.  1.
         11    1    5    5    0    0 -0.93090971775E+01 -0.13514274137E+02 -0.62145067151E+02  0.64275222807E+02  0.00000000000E+00 0. -1.
        -11    1    5    5    0    0 -0.82709722574E+01 -0.28533423060E+02  0.27998440945E+02  0.40822517180E+02  0.00000000000E+00 0.  1.
          4    1    6    6  503    0 -0.83019919160E+01  0.99656961622E+02  0.53273841489E+03  0.54204303498E+03  0.00000000000E+00 0.  1.
         -4    1    6    6    0  503 -0.15540621715E+03  0.27118014482E+03  0.21718645747E+04  0.21942391607E+04  0.00000000000E+00 0. -1.
<mgrwt>
<rscale>  0 0.13935854E+04</rscale>
<asrwt>0</asrwt>
<pdfrwt beam="1">  1        3 0.21879192E-01 0.13935854E+04</pdfrwt>
<pdfrwt beam="2">  1       -3 0.52522963E+00 0.13935854E+04</pdfrwt>
<totfact> 0.11364183E-01</totfact>
</mgrwt>
</event>
<event>
12    2  0.3561489E-008  0.1899632E+04  0.7818608E-02  0.8655040E-01
          2   -1    0    0  501    0  0.00000000000E+00  0.00000000000E+00  0.26188526036E+04  0.26188526036E+04  0.00000000000E+00 0. -1.
         -2   -1    0    0    0  501 -0.00000000000E+00 -0.00000000000E+00 -0.34448308966E+03  0.34448308966E+03  0.00000000000E+00 0.  1.
         23    2    1    2    0    0  0.59927725117E+03 -0.33942888101E+03  0.48387215841E+03  0.84677594916E+03  0.92477312713E+02 0.  0.
        254    2    1    2    0    0 -0.59927725117E+03  0.33942888101E+03  0.17904973555E+04  0.21165597441E+04  0.89420309840E+03 0.  0.
         23    2    4    4    0    0  0.67029650818E+02 -0.18297080850E+03  0.13023440059E+03  0.25064251893E+03  0.88822195133E+02 0.  0.
         23    2    4    4    0    0 -0.66630690199E+03  0.52239968950E+03  0.16602629549E+04  0.18659172252E+04  0.91146521839E+02 0.  0.
          3    1    3    3  502    0  0.84637794970E+02 -0.35095946389E+02  0.10310595251E+03  0.13793519940E+03  0.00000000000E+00 0. -1.
         -3    1    3    3    0  502  0.51463945620E+03 -0.30433293462E+03  0.38076620590E+03  0.70884074976E+03  0.00000000000E+00 0.  1.
         11    1    5    5    0    0  0.37876280243E+02 -0.52487184235E+02  0.90306561109E+02  0.11110711990E+03  0.00000000000E+00 0. -1.
        -11    1    5    5    0    0  0.29153370576E+02 -0.13048362426E+03  0.39927839485E+02  0.13953539903E+03  0.00000000000E+00 0.  1.
          4    1    6    6  503    0 -0.14959615631E+03  0.12077420656E+03  0.29851142217E+03  0.35506969473E+03  0.00000000000E+00 0. -1.
         -4    1    6    6    0  503 -0.51671074567E+03  0.40162548295E+03  0.13617515328E+04  0.15108475304E+04  0.00000000000E+00 0.  1.
<mgrwt>
<rscale>  0 0.18996320E+04</rscale>
<asrwt>0</asrwt>
<pdfrwt beam="1">  1        2 0.40290039E+00 0.18996320E+04</pdfrwt>
<pdfrwt beam="2">  1       -2 0.52997400E-01 0.18996320E+04</pdfrwt>
<totfact> 0.93401729E+00</totfact>
</mgrwt>
</event>
<event>
12    2  0.3561489E-008  0.2392293E+04  0.7818608E-02  0.8442394E-01
         -1   -1    0    0    0  501 -0.00000000000E+00  0.00000000000E+00  0.78254475557E+03  0.78254475557E+03  0.00000000000E+00 0.  1.
          1   -1    0    0  501    0  0.00000000000E+00 -0.00000000000E+00 -0.18283513679E+04  0.18283513679E+04  0.00000000000E+00 0. -1.
         23    2    1    2    0    0  0.43672794267E+03  0.40882203306E+03  0.46094154000E+03  0.76072638362E+03  0.91491949414E+02 0.  0.
        254    2    1    2    0    0 -0.43672794267E+03 -0.40882203306E+03 -0.15067481523E+04  0.18501697398E+04  0.89161164252E+03 0.  0.
         23    2    4    4    0    0 -0.23832134322E+03 -0.63669380038E+03 -0.13088153715E+04  0.14779208597E+04  0.95269788625E+02 0.  0.
         23    2    4    4    0    0 -0.19840659945E+03  0.22787176732E+03 -0.19793278078E+03  0.37224888016E+03  0.90006233286E+02 0.  0.
          3    1    3    3  502    0  0.84247522591E+02  0.42258117725E+02  0.97911059601E+02  0.13590426472E+03  0.00000000000E+00 0. -1.
         -3    1    3    3    0  502  0.35248042008E+03  0.36656391534E+03  0.36303048040E+03  0.62482211890E+03  0.00000000000E+00 0.  1.
         11    1    5    5    0    0 -0.56580382229E+02 -0.18481764586E+03 -0.28774319338E+03  0.34663388065E+03  0.00000000000E+00 0. -1.
        -11    1    5    5    0    0 -0.18174096099E+03 -0.45187615452E+03 -0.10210721781E+04  0.11312869790E+04  0.00000000000E+00 0.  1.
          4    1    6    6  503    0 -0.14119894286E+03  0.11911610786E+03 -0.15786866965E+03  0.24299857093E+03  0.00000000000E+00 0. -1.
         -4    1    6    6    0  503 -0.57207656588E+02  0.10875565946E+03 -0.40064111133E+02  0.12925030924E+03  0.00000000000E+00 0.  1.
<mgrwt>
<rscale>  0 0.23922933E+04</rscale>
<asrwt>0</asrwt>
<pdfrwt beam="1">  1        1 0.28128483E+00 0.23922933E+04</pdfrwt>
<pdfrwt beam="2">  1       -1 0.12039150E+00 0.23922933E+04</pdfrwt>
<totfact> 0.21460144E+00</totfact>
</mgrwt>
</event>
<event>
12    2  0.3561489E-008  0.1970159E+04  0.7818608E-02  0.8620701E-01
         -2   -1    0    0    0  501 -0.00000000000E+00  0.00000000000E+00  0.55075708664E+03  0.55075708664E+03  0.00000000000E+00 0.  1.
          2   -1    0    0  501    0  0.00000000000E+00 -0.00000000000E+00 -0.17619058073E+04  0.17619058073E+04  0.00000000000E+00 0. -1.
         23    2    1    2    0    0  0.63550639105E+03  0.40736292448E+03 -0.67078114210E+03  0.10138687730E+04  0.90385966248E+02 0.  0.
        254    2    1    2    0    0 -0.63550639105E+03 -0.40736292448E+03 -0.54036757858E+03  0.12987941210E+04  0.90832600062E+03 0.  0.
         23    2    4    4    0    0 -0.62591306366E+03 -0.43204276018E+02 -0.64947734393E+03  0.90762555586E+03  0.91266404832E+02 0.  0.
         23    2    4    4    0    0 -0.95933273987E+01 -0.36415864847E+03  0.10910976535E+03  0.39116856512E+03  0.91675254350E+02 0.  0.
          3    1    3    3  502    0  0.55360756524E+03  0.32195788265E+03 -0.54209567807E+03  0.83905061747E+03  0.00000000000E+00 0. -1.
         -3    1    3    3    0  502  0.81898825811E+02  0.85405041838E+02 -0.12868546404E+03  0.17481815551E+03  0.00000000000E+00 0.  1.
         11    1    5    5    0    0 -0.76109388112E+02  0.22411732607E+02 -0.65573868837E+02  0.10293132172E+03  0.00000000000E+00 0. -1.
        -11    1    5    5    0    0 -0.54980367554E+03 -0.65616008625E+02 -0.58390347509E+03  0.80469423414E+03  0.00000000000E+00 0.  1.
          4    1    6    6  503    0 -0.40674479412E+02 -0.19784680246E+03  0.29301086707E+02  0.20409880990E+03  0.00000000000E+00 0. -1.
         -4    1    6    6    0  503  0.31081152013E+02 -0.16631184600E+03  0.79808678644E+02  0.18706975522E+03  0.00000000000E+00 0.  1.
<mgrwt>
<rscale>  0 0.19701595E+04</rscale>
<asrwt>0</asrwt>
<pdfrwt beam="1">  1        2 0.27106243E+00 0.19701595E+04</pdfrwt>
<pdfrwt beam="2">  1       -2 0.84731860E-01 0.19701595E+04</pdfrwt>
<totfact> 0.10238969E+01</totfact>
</mgrwt>
</event>
<event>
12    2  0.3561489E-008  0.2776478E+04  0.7818608E-02  0.8310609E-01
         -2   -1    0    0    0  501 -0.00000000000E+00  0.00000000000E+00  0.98466534921E+03  0.98466534921E+03  0.00000000000E+00 0. -1.
          2   -1    0    0  501    0  0.00000000000E+00 -0.00000000000E+00 -0.19572202550E+04  0.19572202550E+04  0.00000000000E+00 0.  1.
         23    2    1    2    0    0  0.42734772348E+03  0.29519835232E+03  0.75853037397E+03  0.92401662238E+03  0.93114156941E+02 0.  0.
        254    2    1    2    0    0 -0.42734772348E+03 -0.29519835232E+03 -0.17310852798E+04  0.20178689819E+04  0.89742455844E+03 0.  0.
         23    2    4    4    0    0  0.19963595659E+03 -0.31293056261E+03 -0.46481634771E+03  0.60181745235E+03  0.91378097380E+02 0.  0.
         23    2    4    4    0    0 -0.62698368007E+03  0.17732210290E+02 -0.12662689321E+04  0.14160515295E+04  0.91334328291E+02 0.  0.
          1    1    3    3  502    0  0.41554300149E+03  0.30122141985E+03  0.74771377900E+03  0.90691026302E+03  0.00000000000E+00 0. -1.
         -1    1    3    3    0  502  0.11804721996E+02 -0.60230675314E+01  0.10816594970E+02  0.17106359363E+02  0.00000000000E+00 0.  1.
         11    1    5    5    0    0  0.96602001114E+02 -0.10268054632E+03 -0.23301353650E+03  0.27234270580E+03  0.00000000000E+00 0.  1.
        -11    1    5    5    0    0  0.10303395547E+03 -0.21025001629E+03 -0.23180281121E+03  0.32947474655E+03  0.00000000000E+00 0. -1.
          1    1    6    6  503    0 -0.40149269443E+03 -0.63712569292E+01 -0.89589028499E+03  0.98176187507E+03  0.00000000000E+00 0. -1.
         -1    1    6    6    0  503 -0.22549098564E+03  0.24103467219E+02 -0.37037864709E+03  0.43428965445E+03  0.00000000000E+00 0.  1.
<mgrwt>
<rscale>  0 0.27764776E+04</rscale>
<asrwt>0</asrwt>
<pdfrwt beam="1">  1        2 0.30111081E+00 0.27764776E+04</pdfrwt>
<pdfrwt beam="2">  1       -2 0.15148698E+00 0.27764776E+04</pdfrwt>
<totfact> 0.17959909E+00</totfact>
</mgrwt>
</event>
<event>
12    2  0.3561489E-008  0.2905276E+04  0.7818608E-02  0.8271310E-01
          2   -1    0    0  501    0  0.00000000000E+00  0.00000000000E+00  0.22513490267E+04  0.22513490267E+04  0.00000000000E+00 0. -1.
         -2   -1    0    0    0  501 -0.00000000000E+00 -0.00000000000E+00 -0.93728542993E+03  0.93728542993E+03  0.00000000000E+00 0.  1.
         23    2    1    2    0    0  0.65010446249E+03 -0.93500787998E+03  0.13150745589E+04  0.17432312476E+04  0.11206488773E+03 0.  0.
        254    2    1    2    0    0 -0.65010446249E+03  0.93500787998E+03 -0.10109621910E+01  0.14454032091E+04  0.89012014186E+03 0.  0.
         23    2    4    4    0    0 -0.15168160823E+02  0.20273795099E+03 -0.34701644334E+03  0.41241666436E+03  0.91292624119E+02 0.  0.
         23    2    4    4    0    0 -0.63493630167E+03  0.73226992900E+03  0.34600548115E+03  0.10329865447E+04  0.89319944383E+02 0.  0.
          2    1    3    3  502    0  0.49522865882E+03 -0.78816642720E+03  0.10636709503E+04  0.14134545030E+04  0.00000000000E+00 0. -1.
         -2    1    3    3    0  502  0.15487580367E+03 -0.14684145278E+03  0.25140360864E+03  0.32977674457E+03  0.00000000000E+00 0.  1.
         11    1    5    5    0    0  0.21872735477E+02  0.10105983483E+03 -0.10528466287E+03  0.14756817749E+03  0.00000000000E+00 0.  1.
        -11    1    5    5    0    0 -0.37040896300E+02  0.10167811615E+03 -0.24173178048E+03  0.26484848686E+03  0.00000000000E+00 0. -1.
          2    1    6    6  503    0 -0.22254080453E+01  0.18734118081E+00 -0.35323638758E+01  0.41791305600E+01  0.00000000000E+00 0.  1.
         -2    1    6    6    0  503 -0.63271089362E+03  0.73208258782E+03  0.34953784503E+03  0.10288074141E+04  0.00000000000E+00 0. -1.
<mgrwt>
<rscale>  0 0.29052756E+04</rscale>
<asrwt>0</asrwt>
<pdfrwt beam="1">  1        2 0.34636139E+00 0.29052756E+04</pdfrwt>
<pdfrwt beam="2">  1       -2 0.14419776E+00 0.29052756E+04</pdfrwt>
<totfact> 0.13854942E+00</totfact>
</mgrwt>
</event>
<event>
12    2  0.3561489E-008  0.2118734E+04  0.7818608E-02  0.8553036E-01
          2   -1    0    0  501    0  0.00000000000E+00  0.00000000000E+00  0.18555300770E+04  0.18555300770E+04  0.00000000000E+00 0.  1.
         -2   -1    0    0    0  501 -0.00000000000E+00 -0.00000000000E+00 -0.60481807227E+03  0.60481807227E+03  0.00000000000E+00 0. -1.
         23    2    1    2    0    0 -0.49193416228E+02 -0.28624146967E+03  0.14595757720E+04  0.14908874036E+04  0.89608284969E+02 0.  0.
        254    2    1    2    0    0  0.49193416228E+02  0.28624146967E+03 -0.20886376727E+03  0.96946074571E+03  0.90104156011E+03 0.  0.
         23    2    4    4    0    0  0.25968221919E+03  0.82719833878E+02  0.27382056977E+03  0.39729504276E+03  0.92672653461E+02 0.  0.
         23    2    4    4    0    0 -0.21048880296E+03  0.20352163579E+03 -0.48268433703E+03  0.57216570295E+03  0.93074325189E+02 0.  0.
          2    1    3    3  502    0 -0.94813795578E+01 -0.22946014413E+03  0.12228916465E+04  0.12442691965E+04  0.00000000000E+00 0.  1.
         -2    1    3    3    0  502 -0.39712036671E+02 -0.56781325533E+02  0.23668412547E+03  0.24661820702E+03  0.00000000000E+00 0. -1.
         11    1    5    5    0    0  0.29195176176E+02  0.15676707774E+02 -0.24993083724E-01  0.33137865097E+02  0.00000000000E+00 0. -1.
        -11    1    5    5    0    0  0.23048704301E+03  0.67043126104E+02  0.27384556285E+03  0.36415717767E+03  0.00000000000E+00 0.  1.
          1    1    6    6  503    0 -0.78255675784E+02  0.44568745949E+02 -0.84474702086E+02  0.12347590534E+03  0.00000000000E+00 0. -1.
         -1    1    6    6    0  503 -0.13223312717E+03  0.15895288984E+03 -0.39820963495E+03  0.44868979760E+03  0.00000000000E+00 0.  1.
<mgrwt>
<rscale>  0 0.21187337E+04</rscale>
<asrwt>0</asrwt>
<pdfrwt beam="1">  1        2 0.28546616E+00 0.21187337E+04</pdfrwt>
<pdfrwt beam="2">  1       -2 0.93048935E-01 0.21187337E+04</pdfrwt>
<totfact> 0.72345549E+00</totfact>
</mgrwt>
</event>
<event>
12    2  0.3561489E-008  0.1355590E+04  0.7818608E-02  0.8986607E-01
         -1   -1    0    0    0  501 -0.00000000000E+00  0.00000000000E+00  0.39616379252E+03  0.39616379252E+03  0.00000000000E+00 0. -1.
          1   -1    0    0  501    0  0.00000000000E+00 -0.00000000000E+00 -0.11596366545E+04  0.11596366545E+04  0.00000000000E+00 0.  1.
         23    2    1    2    0    0  0.72976033200E+02 -0.12686988246E+03  0.16898153890E+03  0.24202659910E+03  0.92739666189E+02 0.  0.
        254    2    1    2    0    0 -0.72976033200E+02  0.12686988246E+03 -0.93245440089E+03  0.13137738479E+04  0.91384300909E+03 0.  0.
         23    2    4    4    0    0  0.22378879344E+03 -0.13346285612E+03 -0.85877557942E+03  0.90203250508E+03  0.90958157262E+02 0.  0.
         23    2    4    4    0    0 -0.29676482664E+03  0.26033273858E+03 -0.73678821470E+02  0.41174134285E+03  0.90883813596E+02 0.  0.
          3    1    3    3  502    0  0.72503515913E+02 -0.13987229179E+03  0.16562757118E+03  0.22859026700E+03  0.00000000000E+00 0. -1.
         -3    1    3    3    0  502  0.47251728706E+00  0.13002409327E+02  0.33539677168E+01  0.13436332101E+02  0.00000000000E+00 0.  1.
         11    1    5    5    0    0  0.18738795867E+03 -0.66770608596E+02 -0.58431069210E+03  0.61724512645E+03  0.00000000000E+00 0. -1.
        -11    1    5    5    0    0  0.36400834769E+02 -0.66692247523E+02 -0.27446488732E+03  0.28478737863E+03  0.00000000000E+00 0.  1.
          3    1    6    6  503    0 -0.20017754765E+03  0.11882381946E+03 -0.56546121183E+02  0.23955712153E+03  0.00000000000E+00 0. -1.
         -3    1    6    6    0  503 -0.96587278984E+02  0.14150891912E+03 -0.17132700287E+02  0.17218422132E+03  0.00000000000E+00 0.  1.
<mgrwt>
<rscale>  0 0.13555900E+04</rscale>
<asrwt>0</asrwt>
<pdfrwt beam="1">  1        1 0.17840564E+00 0.13555900E+04</pdfrwt>
<pdfrwt beam="2">  1       -1 0.60948276E-01 0.13555900E+04</pdfrwt>
<totfact> 0.30564767E+01</totfact>
</mgrwt>
</event>
<event>
12    2  0.3561489E-008  0.1348989E+04  0.7818608E-02  0.8991594E-01
         -2   -1    0    0    0  501 -0.00000000000E+00  0.00000000000E+00  0.24974419520E+03  0.24974419520E+03  0.00000000000E+00 0.  1.
          2   -1    0    0  501    0  0.00000000000E+00 -0.00000000000E+00 -0.18216349838E+04  0.18216349838E+04  0.00000000000E+00 0. -1.
         23    2    1    2    0    0 -0.15522490013E+03  0.28348864170E+03 -0.68458266513E+03  0.76188514671E+03  0.85761132160E+02 0.  0.
        254    2    1    2    0    0  0.15522490013E+03 -0.28348864170E+03 -0.88730812349E+03  0.13094940323E+04  0.90719255677E+03 0.  0.
         23    2    4    4    0    0  0.21914675576E+03 -0.38027079713E+03 -0.41007349588E+02  0.45031966551E+03  0.92059864833E+02 0.  0.
         23    2    4    4    0    0 -0.63921855633E+02  0.96782155429E+02 -0.84630077390E+03  0.85917436680E+03  0.92210647016E+02 0.  0.
          1    1    3    3  502    0 -0.10964883135E+03  0.16568795071E+03 -0.50183195961E+03  0.53973204362E+03  0.00000000000E+00 0. -1.
         -1    1    3    3    0  502 -0.45576068777E+02  0.11780069100E+03 -0.18275070552E+03  0.22215310309E+03  0.00000000000E+00 0.  1.
         11    1    5    5    0    0  0.21120565457E+03 -0.34724436698E+03 -0.60880033345E+02  0.41096576181E+03  0.00000000000E+00 0. -1.
        -11    1    5    5    0    0  0.79411011956E+01 -0.33026430152E+02  0.19872683756E+02  0.39353903701E+02  0.00000000000E+00 0.  1.
          3    1    6    6  503    0 -0.77789053702E+02  0.78245094827E+02 -0.49664485637E+03  0.50875293129E+03  0.00000000000E+00 0. -1.
         -3    1    6    6    0  503  0.13867198069E+02  0.18537060602E+02 -0.34965591754E+03  0.35042143551E+03  0.00000000000E+00 0.  1.
<mgrwt>
<rscale>  0 0.13489889E+04</rscale>
<asrwt>0</asrwt>
<pdfrwt beam="1">  1        2 0.28025153E+00 0.13489889E+04</pdfrwt>
<pdfrwt beam="2">  1       -2 0.38422184E-01 0.13489889E+04</pdfrwt>
<totfact> 0.52463870E+01</totfact>
</mgrwt>
</event>
<event>
12    2  0.3561489E-008  0.1740795E+04  0.7818608E-02  0.8738434E-01
          1   -1    0    0  501    0  0.00000000000E+00  0.00000000000E+00  0.11526960061E+04  0.11526960061E+04  0.00000000000E+00 0. -1.
         -1   -1    0    0    0  501 -0.00000000000E+00 -0.00000000000E+00 -0.65723463953E+03  0.65723463953E+03  0.00000000000E+00 0.  1.
         23    2    1    2    0    0 -0.26593730510E+03  0.52059564830E+03  0.43035535541E+03  0.73159076956E+03  0.90977155951E+02 0.  0.
        254    2    1    2    0    0  0.26593730510E+03 -0.52059564830E+03  0.65106011145E+02  0.10783398760E+04  0.90378958631E+03 0.  0.
         23    2    4    4    0    0 -0.25702945096E+03 -0.46809778220E+03  0.78343176698E+01  0.54181259590E+03  0.91213157943E+02 0.  0.
         23    2    4    4    0    0  0.52296675606E+03 -0.52497866108E+02  0.57271693476E+02  0.53652728015E+03  0.91275525673E+02 0.  0.
          2    1    3    3  502    0 -0.22116266110E+03  0.47720179075E+03  0.40686172492E+03  0.66495934836E+03  0.00000000000E+00 0. -1.
         -2    1    3    3    0  502 -0.44774643997E+02  0.43393857553E+02  0.23493630485E+02  0.66631421204E+02  0.00000000000E+00 0.  1.
         11    1    5    5    0    0 -0.16526597350E+03 -0.29068997282E+03  0.48778055083E+02  0.33792425328E+03  0.00000000000E+00 0.  1.
        -11    1    5    5    0    0 -0.91763477457E+02 -0.17740780937E+03 -0.40943737413E+02  0.20388834262E+03  0.00000000000E+00 0. -1.
          2    1    6    6  503    0  0.31491287583E+03 -0.69757654293E+01  0.71754748572E+02  0.32305963012E+03  0.00000000000E+00 0. -1.
         -2    1    6    6    0  503  0.20805388022E+03 -0.45522100679E+02 -0.14483055096E+02  0.21346765003E+03  0.00000000000E+00 0.  1.
<mgrwt>
<rscale>  0 0.17407949E+04</rscale>
<asrwt>0</asrwt>
<pdfrwt beam="1">  1        1 0.17733785E+00 0.17407949E+04</pdfrwt>
<pdfrwt beam="2">  1       -1 0.10111302E+00 0.17407949E+04</pdfrwt>
<totfact> 0.10204498E+01</totfact>
</mgrwt>
</event>
<event>
12    2  0.3561489E-008  0.1325514E+04  0.7818608E-02  0.9009574E-01
          2   -1    0    0  501    0  0.00000000000E+00  0.00000000000E+00  0.47225910250E+03  0.47225910250E+03  0.00000000000E+00 0. -1.
         -2   -1    0    0    0  501 -0.00000000000E+00 -0.00000000000E+00 -0.93009652668E+03  0.93009652668E+03  0.00000000000E+00 0.  1.
         23    2    1    2    0    0  0.22447339265E+02  0.52248114097E+02  0.24005491037E+03  0.26286176075E+03  0.90753494709E+02 0.  0.
        254    2    1    2    0    0 -0.22447339265E+02 -0.52248114097E+02 -0.69789233455E+03  0.11394938684E+04  0.89897653869E+03 0.  0.
         23    2    4    4    0    0 -0.33930759960E+03 -0.30523130683E+03 -0.48884005470E+03  0.67478583788E+03  0.89863953329E+02 0.  0.
         23    2    4    4    0    0  0.31686026034E+03  0.25298319273E+03 -0.20905227985E+03  0.46470803055E+03  0.88598970438E+02 0.  0.
          4    1    3    3  502    0  0.19697258676E+02  0.78377523425E+02  0.18264494914E+03  0.19972530041E+03  0.00000000000E+00 0. -1.
         -4    1    3    3    0  502  0.27500805896E+01 -0.26129409328E+02  0.57409961233E+02  0.63136460336E+02  0.00000000000E+00 0.  1.
         11    1    5    5    0    0 -0.34413406565E+02 -0.73460823004E+02 -0.68926323053E+02  0.10645004968E+03  0.00000000000E+00 0. -1.
        -11    1    5    5    0    0 -0.30489419304E+03 -0.23177048383E+03 -0.41991373165E+03  0.56833578820E+03  0.00000000000E+00 0.  1.
          1    1    6    6  503    0  0.28536146162E+03  0.25601645319E+03 -0.19214987219E+03  0.42883232325E+03  0.00000000000E+00 0. -1.
         -1    1    6    6    0  503  0.31498798716E+02 -0.30332604579E+01 -0.16902407663E+02  0.35875707301E+02  0.00000000000E+00 0.  1.
<mgrwt>
<rscale>  0 0.13255136E+04</rscale>
<asrwt>0</asrwt>
<pdfrwt beam="1">  1        2 0.72655247E-01 0.13255136E+04</pdfrwt>
<pdfrwt beam="2">  1       -2 0.14309177E+00 0.13255136E+04</pdfrwt>
<totfact> 0.21821812E+01</totfact>
</mgrwt>
</event>
<event>
12    2  0.3561489E-008  0.2150705E+04  0.7818608E-02  0.8539230E-01
          1   -1    0    0  501    0  0.00000000000E+00  0.00000000000E+00  0.72249428311E+03  0.72249428311E+03  0.00000000000E+00 0. -1.
         -1   -1    0    0    0  501 -0.00000000000E+00 -0.00000000000E+00 -0.16005430600E+04  0.16005430600E+04  0.00000000000E+00 0.  1.
         23    2    1    2    0    0  0.46031589016E+02  0.77205852637E+03  0.10882562085E+03  0.78637619725E+03  0.91385078208E+02 0.  0.
        254    2    1    2    0    0 -0.46031589016E+02 -0.77205852637E+03 -0.98687439774E+03  0.15366611458E+04  0.88837667963E+03 0.  0.
         23    2    4    4    0    0 -0.36683514030E+03 -0.66195067871E+03 -0.42644706149E+03  0.87408136999E+03  0.97027954184E+02 0.  0.
         23    2    4    4    0    0  0.32080355128E+03 -0.11010784766E+03 -0.56042733625E+03  0.66257977586E+03  0.99471119114E+02 0.  0.
          1    1    3    3  502    0  0.34685092221E+02  0.70832287160E+03  0.74425483490E+02  0.71306626525E+03  0.00000000000E+00 0. -1.
         -1    1    3    3    0  502  0.11346496795E+02  0.63735654775E+02  0.34400137361E+02  0.73309931998E+02  0.00000000000E+00 0.  1.
         11    1    5    5    0    0 -0.17630451383E+03 -0.36695975429E+03 -0.18041564923E+03  0.44530051578E+03  0.00000000000E+00 0. -1.
        -11    1    5    5    0    0 -0.19053062647E+03 -0.29499092442E+03 -0.24603141226E+03  0.42878085420E+03  0.00000000000E+00 0.  1.
          1    1    6    6  503    0  0.30569374759E+03 -0.12383777750E+03 -0.54483465006E+03  0.63689030324E+03  0.00000000000E+00 0. -1.
         -1    1    6    6    0  503  0.15109803698E+02  0.13729929844E+02 -0.15592686185E+02  0.25689472625E+02  0.00000000000E+00 0.  1.
<mgrwt>
<rscale>  0 0.21507052E+04</rscale>
<asrwt>0</asrwt>
<pdfrwt beam="1">  1        1 0.11115297E+00 0.21507052E+04</pdfrwt>
<pdfrwt beam="2">  1       -1 0.24623739E+00 0.21507052E+04</pdfrwt>
<totfact> 0.17534607E+00</totfact>
</mgrwt>
</event>
<event>
12    2  0.3561489E-008  0.1578018E+04  0.7818608E-02  0.8834168E-01
          2   -1    0    0  501    0  0.00000000000E+00  0.00000000000E+00  0.64986269396E+03  0.64986269396E+03  0.00000000000E+00 0. -1.
         -2   -1    0    0    0  501 -0.00000000000E+00 -0.00000000000E+00 -0.95794823068E+03  0.95794823068E+03  0.00000000000E+00 0.  1.
         23    2    1    2    0    0 -0.33454968613E+02 -0.10314235924E+03  0.41863175977E+03  0.44764827637E+03  0.11566696959E+03 0.  0.
        254    2    1    2    0    0  0.33454968613E+02  0.10314235924E+03 -0.72671729649E+03  0.11601626483E+04  0.89783169927E+03 0.  0.
         23    2    4    4    0    0 -0.26663749312E+03  0.11339080830E+03  0.63091395130E+02  0.31033345920E+03  0.91505757270E+02 0.  0.
         23    2    4    4    0    0  0.30009246174E+03 -0.10248449054E+02 -0.78980869162E+03  0.84982918907E+03  0.90837023981E+02 0.  0.
          2    1    3    3  502    0 -0.74777010568E+02 -0.70188915026E+02  0.23158981794E+03  0.25328231063E+03  0.00000000000E+00 0. -1.
         -2    1    3    3    0  502  0.41322041955E+02 -0.32953444218E+02  0.18704194183E+03  0.19436596575E+03  0.00000000000E+00 0.  1.
         11    1    5    5    0    0 -0.25354631228E+03  0.12774213682E+03  0.63420710800E+02  0.29090543575E+03  0.00000000000E+00 0. -1.
        -11    1    5    5    0    0 -0.13091180839E+02 -0.14351328524E+02 -0.32931567065E+00  0.19428023445E+02  0.00000000000E+00 0.  1.
          4    1    6    6  503    0  0.13647476959E+03 -0.24888261867E+02 -0.47355812122E+03  0.49345930175E+03  0.00000000000E+00 0. -1.
         -4    1    6    6    0  503  0.16361769215E+03  0.14639812814E+02 -0.31625057040E+03  0.35636988731E+03  0.00000000000E+00 0.  1.
<mgrwt>
<rscale>  0 0.15780175E+04</rscale>
<asrwt>0</asrwt>
<pdfrwt beam="1">  1        2 0.99978876E-01 0.15780175E+04</pdfrwt>
<pdfrwt beam="2">  1       -2 0.14737665E+00 0.15780175E+04</pdfrwt>
<totfact> 0.13553860E+01</totfact>
</mgrwt>
</event>
<event>
12    2  0.3561489E-008  0.1169047E+04  0.7818608E-02  0.9140389E-01
          2   -1    0    0  501    0  0.00000000000E+00  0.00000000000E+00  0.26456340869E+04  0.26456340869E+04  0.00000000000E+00 0. -1.
         -2   -1    0    0    0  501 -0.00000000000E+00 -0.00000000000E+00 -0.12914399338E+03  0.12914399338E+03  0.00000000000E+00 0.  1.
         23    2    1    2    0    0  0.34333476037E+02  0.50065846656E+02  0.10328672823E+04  0.10385207172E+04  0.89582814174E+02 0.  0.
        254    2    1    2    0    0 -0.34333476037E+02 -0.50065846656E+02  0.14836228112E+04  0.17362573630E+04  0.89987088425E+03 0.  0.
         23    2    4    4    0    0  0.15490657960E+03 -0.42088716173E+03  0.93751863903E+03  0.10433121566E+04  0.91744243193E+02 0.  0.
         23    2    4    4    0    0 -0.18924005563E+03  0.37082131507E+03  0.54610417214E+03  0.69294520650E+03  0.92860357590E+02 0.  0.
          1    1    3    3  502    0  0.53421937930E+02  0.59542142935E+02  0.62522111672E+03  0.63031786825E+03  0.00000000000E+00 0. -1.
         -1    1    3    3    0  502 -0.19088461893E+02 -0.94762962787E+01  0.40764616560E+03  0.40820284896E+03  0.00000000000E+00 0.  1.
         11    1    5    5    0    0  0.11762853872E+03 -0.18783855352E+03  0.46670396120E+03  0.51665499389E+03  0.00000000000E+00 0. -1.
        -11    1    5    5    0    0  0.37278040877E+02 -0.23304860821E+03  0.47081467783E+03  0.52665716266E+03  0.00000000000E+00 0.  1.
          4    1    6    6  503    0  0.51782269010E+01  0.56915829403E+02  0.79844022495E+02  0.98190089106E+02  0.00000000000E+00 0. -1.
         -4    1    6    6    0  503 -0.19441828253E+03  0.31390548567E+03  0.46626014964E+03  0.59475511739E+03  0.00000000000E+00 0.  1.
<mgrwt>
<rscale>  0 0.11690470E+04</rscale>
<asrwt>0</asrwt>
<pdfrwt beam="1">  1        2 0.40702059E+00 0.11690470E+04</pdfrwt>
<pdfrwt beam="2">  1       -2 0.19868309E-01 0.11690470E+04</pdfrwt>
<totfact> 0.61725897E+01</totfact>
</mgrwt>
</event>
<event>
12    2  0.3561489E-008  0.2598499E+04  0.7818608E-02  0.8368711E-01
          2   -1    0    0  501    0  0.00000000000E+00  0.00000000000E+00  0.30123563820E+04  0.30123563820E+04  0.00000000000E+00 0. -1.
         -2   -1    0    0    0  501 -0.00000000000E+00 -0.00000000000E+00 -0.56037493007E+03  0.56037493007E+03  0.00000000000E+00 0.  1.
         23    2    1    2    0    0 -0.10881723571E+04  0.36648143516E+03  0.11591382500E+04  0.16338193762E+04  0.85653665043E+02 0.  0.
        254    2    1    2    0    0  0.10881723571E+04 -0.36648143516E+03  0.12928432019E+04  0.19389119359E+04  0.87721618164E+03 0.  0.
         23    2    4    4    0    0  0.96830646379E+03 -0.12127726250E+03  0.13270393424E+04  0.16496593709E+04  0.89537932318E+02 0.  0.
         23    2    4    4    0    0  0.11986589330E+03 -0.24520417266E+03 -0.34196140469E+02  0.28925256505E+03  0.89469277958E+02 0.  0.
          4    1    3    3  502    0 -0.28509755077E+03  0.12466369928E+03  0.27655984864E+03  0.41630157488E+03  0.00000000000E+00 0. -1.
         -4    1    3    3    0  502 -0.80307480633E+03  0.24181773588E+03  0.88257840138E+03  0.12175178013E+04  0.00000000000E+00 0.  1.
         11    1    5    5    0    0  0.94443228689E+03 -0.10458446035E+03  0.12968885563E+04  0.16077344872E+04  0.00000000000E+00 0. -1.
        -11    1    5    5    0    0  0.23874176903E+02 -0.16692802148E+02  0.30150786085E+02  0.41924883636E+02  0.00000000000E+00 0.  1.
          2    1    6    6  503    0  0.11475375360E+03 -0.19261581015E+03 -0.57563576403E+02  0.23147967430E+03  0.00000000000E+00 0. -1.
         -2    1    6    6    0  503  0.51121397027E+01 -0.52588362506E+02  0.23367435934E+02  0.57772890749E+02  0.00000000000E+00 0.  1.
<mgrwt>
<rscale>  0 0.25984988E+04</rscale>
<asrwt>0</asrwt>
<pdfrwt beam="1">  1        2 0.46343943E+00 0.25984988E+04</pdfrwt>
<pdfrwt beam="2">  1       -2 0.86211530E-01 0.25984988E+04</pdfrwt>
<totfact> 0.17650146E+00</totfact>
</mgrwt>
</event>
<event>
12    2  0.3561489E-008  0.1653078E+04  0.7818608E-02  0.8788588E-01
          2   -1    0    0  501    0  0.00000000000E+00  0.00000000000E+00  0.52018878446E+03  0.52018878446E+03  0.00000000000E+00 0.  1.
         -2   -1    0    0    0  501 -0.00000000000E+00 -0.00000000000E+00 -0.13133056006E+04  0.13133056006E+04  0.00000000000E+00 0. -1.
         23    2    1    2    0    0  0.28077907024E+03 -0.24968387868E+03 -0.77392428102E+03  0.86521082760E+03  0.91935074388E+02 0.  0.
        254    2    1    2    0    0 -0.28077907024E+03  0.24968387868E+03 -0.19192535106E+02  0.96828355743E+03  0.89220276206E+03 0.  0.
         23    2    4    4    0    0 -0.32761211444E+03  0.55134131696E+03 -0.39039657219E+02  0.64878101521E+03  0.89920884933E+02 0.  0.
         23    2    4    4    0    0  0.46833044204E+02 -0.30165743828E+03  0.19847122113E+02  0.31950254222E+03  0.92181463057E+02 0.  0.
          2    1    3    3  502    0  0.28777033647E+03 -0.24453404205E+03 -0.76219308045E+03  0.85061563362E+03  0.00000000000E+00 0. -1.
         -2    1    3    3    0  502 -0.69912662276E+01 -0.51498366240E+01 -0.11731200561E+02  0.14595193980E+02  0.00000000000E+00 0.  1.
         11    1    5    5    0    0 -0.29732076541E+03  0.52384979364E+03 -0.17610399112E+02  0.60260133587E+03  0.00000000000E+00 0.  1.
        -11    1    5    5    0    0 -0.30291349035E+02  0.27491523319E+02 -0.21429258107E+02  0.46179679338E+02  0.00000000000E+00 0. -1.
          3    1    6    6  503    0  0.40619896537E+02 -0.57530039072E+02  0.26393497275E+02  0.75208364486E+02  0.00000000000E+00 0. -1.
         -3    1    6    6    0  503  0.62131476670E+01 -0.24412739921E+03 -0.65463751622E+01  0.24429417773E+03  0.00000000000E+00 0.  1.
<mgrwt>
<rscale>  0 0.16530782E+04</rscale>
<asrwt>0</asrwt>
<pdfrwt beam="1">  1        2 0.80029045E-01 0.16530782E+04</pdfrwt>
<pdfrwt beam="2">  1       -2 0.20204701E+00 0.16530782E+04</pdfrwt>
<totfact> 0.72339352E+00</totfact>
</mgrwt>
</event>
<event>
12    2  0.3561489E-008  0.1458427E+04  0.7818608E-02  0.8912579E-01
          2   -1    0    0  501    0  0.00000000000E+00  0.00000000000E+00  0.10510103079E+04  0.10510103079E+04  0.00000000000E+00 0. -1.
         -2   -1    0    0    0  501 -0.00000000000E+00 -0.00000000000E+00 -0.50594412106E+03  0.50594412106E+03  0.00000000000E+00 0.  1.
         23    2    1    2    0    0 -0.28571125848E+03  0.33978348269E+03  0.14787572923E+03  0.47684260084E+03  0.91803574816E+02 0.  0.
        254    2    1    2    0    0  0.28571125848E+03 -0.33978348269E+03  0.39719045765E+03  0.10801118282E+04  0.90099809288E+03 0.  0.
         23    2    4    4    0    0  0.59037042300E+03 -0.31621468009E+03  0.19967890845E+03  0.70475633946E+03  0.90999292729E+02 0.  0.
         23    2    4    4    0    0 -0.30465916452E+03 -0.23568802600E+02  0.19751154920E+03  0.37535548871E+03  0.92240098955E+02 0.  0.
          3    1    3    3  502    0 -0.14451607243E+02 -0.23845670515E+01 -0.28330022537E+01  0.14918478933E+02  0.00000000000E+00 0. -1.
         -3    1    3    3    0  502 -0.27125965123E+03  0.34216804974E+03  0.15070873149E+03  0.46192412190E+03  0.00000000000E+00 0.  1.
         11    1    5    5    0    0  0.25635666873E+03 -0.88459187618E+02  0.92270795878E+02  0.28645709844E+03  0.00000000000E+00 0. -1.
        -11    1    5    5    0    0  0.33401375427E+03 -0.22775549247E+03  0.10740811257E+03  0.41829924102E+03  0.00000000000E+00 0.  1.
          4    1    6    6  503    0 -0.11785367318E+03 -0.48175576474E+02  0.53050449158E+02  0.13793014394E+03  0.00000000000E+00 0. -1.
         -4    1    6    6    0  503 -0.18680549134E+03  0.24606773874E+02  0.14446110004E+03  0.23742534478E+03  0.00000000000E+00 0.  1.
<mgrwt>
<rscale>  0 0.14584272E+04</rscale>
<asrwt>0</asrwt>
<pdfrwt beam="1">  1        2 0.16169389E+00 0.14584272E+04</pdfrwt>
<pdfrwt beam="2">  1       -2 0.77837557E-01 0.14584272E+04</pdfrwt>
<totfact> 0.33307711E+01</totfact>
</mgrwt>
</event>
<event>
12    2  0.3561489E-008  0.2633809E+04  0.7818608E-02  0.8356807E-01
          2   -1    0    0  501    0  0.00000000000E+00  0.00000000000E+00  0.11373832307E+04  0.11373832307E+04  0.00000000000E+00 0. -1.
         -2   -1    0    0    0  501 -0.00000000000E+00 -0.00000000000E+00 -0.15247612593E+04  0.15247612593E+04  0.00000000000E+00 0.  1.
         23    2    1    2    0    0 -0.19393275906E+03 -0.10548514902E+04  0.26987836864E+03  0.11096431923E+04  0.90288974755E+02 0.  0.
        254    2    1    2    0    0  0.19393275906E+03  0.10548514902E+04 -0.65725639723E+03  0.15525012977E+04  0.90991907683E+03 0.  0.
         23    2    4    4    0    0 -0.13905458945E+03  0.10221632332E+04 -0.36255760447E+03  0.10974308905E+04  0.93555805314E+02 0.  0.
         23    2    4    4    0    0  0.33298734851E+03  0.32688256957E+02 -0.29469879276E+03  0.45507040721E+03  0.91063717543E+02 0.  0.
          3    1    3    3  502    0 -0.16413670362E+02 -0.41303984161E+02  0.28294989050E+02  0.52688082975E+02  0.00000000000E+00 0.  1.
         -3    1    3    3    0  502 -0.17751908869E+03 -0.10135475060E+04  0.24158337959E+03  0.10569551093E+04  0.00000000000E+00 0. -1.
         11    1    5    5    0    0 -0.70346320942E+02  0.69210729351E+03 -0.20464628850E+03  0.72514909776E+03  0.00000000000E+00 0.  1.
        -11    1    5    5    0    0 -0.68708268513E+02  0.33005593971E+03 -0.15791131597E+03  0.37228179275E+03  0.00000000000E+00 0. -1.
          4    1    6    6  503    0  0.75047932408E+02 -0.24775873390E+02 -0.42303891867E+02  0.89641816849E+02  0.00000000000E+00 0. -1.
         -4    1    6    6    0  503  0.25793941610E+03  0.57464130348E+02 -0.25239490089E+03  0.36542859036E+03  0.00000000000E+00 0.  1.
<mgrwt>
<rscale>  0 0.26338093E+04</rscale>
<asrwt>0</asrwt>
<pdfrwt beam="1">  1        2 0.17498204E+00 0.26338093E+04</pdfrwt>
<pdfrwt beam="2">  1       -2 0.23457865E+00 0.26338093E+04</pdfrwt>
<totfact> 0.14590664E+00</totfact>
</mgrwt>
</event>
<event>
12    2  0.3561489E-008  0.2182167E+04  0.7818608E-02  0.8525887E-01
          2   -1    0    0  501    0  0.00000000000E+00  0.00000000000E+00  0.10925093309E+04  0.10925093309E+04  0.00000000000E+00 0. -1.
         -2   -1    0    0    0  501 -0.00000000000E+00 -0.00000000000E+00 -0.10896597237E+04  0.10896597237E+04  0.00000000000E+00 0.  1.
         23    2    1    2    0    0 -0.69952599909E+03  0.20969779637E+03 -0.52866113382E+03  0.90609525298E+03  0.90643388308E+02 0.  0.
        254    2    1    2    0    0  0.69952599909E+03 -0.20969779637E+03  0.53151074101E+03  0.12760738017E+04  0.90141604728E+03 0.  0.
         23    2    4    4    0    0  0.72657239886E+03 -0.38593707527E+03  0.14260744248E+03  0.83992986457E+03  0.91051731980E+02 0.  0.
         23    2    4    4    0    0 -0.27046399763E+02  0.17623927890E+03  0.38890329853E+03  0.43614393710E+03  0.84758286296E+02 0.  0.
          2    1    3    3  502    0 -0.98397204720E+02  0.67998820391E+01 -0.45509111781E+02  0.10862470965E+03  0.00000000000E+00 0. -1.
         -2    1    3    3    0  502 -0.60112879437E+03  0.20289791433E+03 -0.48315202204E+03  0.79747054332E+03  0.00000000000E+00 0.  1.
         11    1    5    5    0    0  0.58486286117E+03 -0.26788798917E+03  0.10997112107E+03  0.65262714362E+03  0.00000000000E+00 0.  1.
        -11    1    5    5    0    0  0.14170953769E+03 -0.11804908610E+03  0.32636321409E+02  0.18730272095E+03  0.00000000000E+00 0. -1.
          1    1    6    6  503    0  0.22764497352E+02  0.12032097454E+03  0.24733988329E+03  0.27599343673E+03  0.00000000000E+00 0. -1.
         -1    1    6    6    0  503 -0.49810897115E+02  0.55918304357E+02  0.14156341525E+03  0.16015050037E+03  0.00000000000E+00 0.  1.
<mgrwt>
<rscale>  0 0.21821672E+04</rscale>
<asrwt>0</asrwt>
<pdfrwt beam="1">  1        2 0.16807836E+00 0.21821672E+04</pdfrwt>
<pdfrwt beam="2">  1       -2 0.16763996E+00 0.21821672E+04</pdfrwt>
<totfact> 0.44659942E+00</totfact>
</mgrwt>
</event>
<event>
12    2  0.3561489E-008  0.1843606E+04  0.7818608E-02  0.8683448E-01
         -2   -1    0    0    0  501 -0.00000000000E+00  0.00000000000E+00  0.28589246186E+03  0.28589246186E+03  0.00000000000E+00 0.  1.
          2   -1    0    0  501    0  0.00000000000E+00 -0.00000000000E+00 -0.29721697069E+04  0.29721697069E+04  0.00000000000E+00 0. -1.
         23    2    1    2    0    0  0.40713461258E+03 -0.17113198746E+03 -0.19804437105E+04  0.20310704003E+04  0.89693537632E+02 0.  0.
        254    2    1    2    0    0 -0.40713461258E+03  0.17113198746E+03 -0.70583353454E+03  0.12269917684E+04  0.90125638496E+03 0.  0.
         23    2    4    4    0    0  0.14216910739E+03 -0.23651458746E+03 -0.33339302010E+03  0.44178517698E+03  0.88724469997E+02 0.  0.
         23    2    4    4    0    0 -0.54930371996E+03  0.40764657493E+03 -0.37244051444E+03  0.78520659145E+03  0.99635072349E+02 0.  0.
          4    1    3    3  502    0  0.25011074872E+03 -0.14854874532E+03 -0.13484068125E+04  0.13794285224E+04  0.00000000000E+00 0. -1.
         -4    1    3    3    0  502  0.15702386386E+03 -0.22583242145E+02 -0.63203689799E+03  0.65164187792E+03  0.00000000000E+00 0.  1.
         11    1    5    5    0    0  0.59035350768E+02 -0.17431994509E+03 -0.23739517478E+03  0.30038156552E+03  0.00000000000E+00 0. -1.
        -11    1    5    5    0    0  0.83133756619E+02 -0.62194642375E+02 -0.95997845319E+02  0.14140361147E+03  0.00000000000E+00 0.  1.
          1    1    6    6  503    0 -0.45531617210E+03  0.36981153603E+03 -0.28876280954E+03  0.65380222463E+03  0.00000000000E+00 0. -1.
         -1    1    6    6    0  503 -0.93987547865E+02  0.37835038893E+02 -0.83677704895E+02  0.13140436682E+03  0.00000000000E+00 0.  1.
<mgrwt>
<rscale>  0 0.18436062E+04</rscale>
<asrwt>0</asrwt>
<pdfrwt beam="1">  1        2 0.45725686E+00 0.18436062E+04</pdfrwt>
<pdfrwt beam="2">  1       -2 0.43983457E-01 0.18436062E+04</pdfrwt>
<totfact> 0.83857937E+00</totfact>
</mgrwt>
</event>
<event>
12    2  0.3561489E-008  0.1363407E+04  0.7818608E-02  0.8980741E-01
          1   -1    0    0  501    0  0.00000000000E+00  0.00000000000E+00  0.32996102641E+03  0.32996102641E+03  0.00000000000E+00 0. -1.
         -1   -1    0    0    0  501 -0.00000000000E+00 -0.00000000000E+00 -0.14084070499E+04  0.14084070499E+04  0.00000000000E+00 0.  1.
         23    2    1    2    0    0 -0.34809447618E+02 -0.94922161061E+02 -0.76014016174E+03  0.77242971231E+03  0.92804529287E+02 0.  0.
        254    2    1    2    0    0  0.34809447618E+02  0.94922161061E+02 -0.31830586177E+03  0.96593836401E+03  0.90636437879E+03 0.  0.
         23    2    4    4    0    0  0.32928827146E+03  0.20300580609E+03 -0.46181306685E+03  0.60919074451E+03  0.90553472920E+02 0.  0.
         23    2    4    4    0    0 -0.29447882384E+03 -0.10808364503E+03  0.14350720509E+03  0.35674761950E+03  0.90965345557E+02 0.  0.
          2    1    3    3  502    0  0.29856967954E+02 -0.20957474954E+02 -0.14643211402E+03  0.15090731694E+03  0.00000000000E+00 0. -1.
         -2    1    3    3    0  502 -0.64666415572E+02 -0.73964686106E+02 -0.61370804772E+03  0.62152239536E+03  0.00000000000E+00 0.  1.
         11    1    5    5    0    0  0.30242613532E+03  0.19222614748E+03 -0.45550594311E+03  0.57956718619E+03  0.00000000000E+00 0. -1.
        -11    1    5    5    0    0  0.26862136144E+02  0.10779658611E+02 -0.63071237424E+01  0.29623558326E+02  0.00000000000E+00 0.  1.
          1    1    6    6  503    0 -0.94325440606E+02  0.61999264379E+01  0.58062867736E+02  0.11093702918E+03  0.00000000000E+00 0. -1.
         -1    1    6    6    0  503 -0.20015338324E+03 -0.11428357147E+03  0.85444337351E+02  0.24581059032E+03  0.00000000000E+00 0.  1.
<mgrwt>
<rscale>  0 0.13634067E+04</rscale>
<asrwt>0</asrwt>
<pdfrwt beam="1">  1        1 0.50763236E-01 0.13634067E+04</pdfrwt>
<pdfrwt beam="2">  1       -1 0.21667800E+00 0.13634067E+04</pdfrwt>
<totfact> 0.87697047E+00</totfact>
</mgrwt>
</event>
<event>
12    2  0.3561489E-008  0.1375146E+04  0.7818608E-02  0.8972008E-01
          3   -1    0    0  501    0  0.00000000000E+00  0.00000000000E+00  0.18220616543E+04  0.18220616543E+04  0.00000000000E+00 0. -1.
         -3   -1    0    0    0  501 -0.00000000000E+00 -0.00000000000E+00 -0.25946237622E+03  0.25946237622E+03  0.00000000000E+00 0.  1.
         23    2    1    2    0    0  0.16033959915E+03 -0.34510523163E+03  0.59690351518E+03  0.71362379990E+03  0.90325596606E+02 0.  0.
        254    2    1    2    0    0 -0.16033959915E+03  0.34510523163E+03  0.96569576285E+03  0.13679002306E+04  0.89094125870E+03 0.  0.
         23    2    4    4    0    0 -0.47445142757E+03  0.37793148246E+03  0.77242237516E+03  0.98567381802E+03  0.83547515404E+02 0.  0.
         23    2    4    4    0    0  0.31411182843E+03 -0.32826250831E+02  0.19327338770E+03  0.38222641255E+03  0.94861080305E+02 0.  0.
          2    1    3    3  502    0  0.12325406144E+03 -0.24325825438E+03  0.34781307511E+03  0.44197293719E+03  0.00000000000E+00 0.  1.
         -2    1    3    3    0  502  0.37085537702E+02 -0.10184697725E+03  0.24909044007E+03  0.27165086271E+03  0.00000000000E+00 0. -1.
         11    1    5    5    0    0 -0.29244662502E+02  0.41563519453E+02  0.38684141457E+02  0.63868922290E+02  0.00000000000E+00 0.  1.
        -11    1    5    5    0    0 -0.44520676507E+03  0.33636796301E+03  0.73373823370E+03  0.92180489573E+03  0.00000000000E+00 0. -1.
          1    1    6    6  503    0  0.18667495522E+03 -0.16357622750E+02  0.16713980938E+03  0.25109923658E+03  0.00000000000E+00 0. -1.
         -1    1    6    6    0  503  0.12743687320E+03 -0.16468628082E+02  0.26133578316E+02  0.13112717597E+03  0.00000000000E+00 0.  1.
<mgrwt>
<rscale>  0 0.13751457E+04</rscale>
<asrwt>0</asrwt>
<pdfrwt beam="1">  1        3 0.28031717E+00 0.13751457E+04</pdfrwt>
<pdfrwt beam="2">  1       -3 0.39917290E-01 0.13751457E+04</pdfrwt>
<totfact> 0.79735505E-01</totfact>
</mgrwt>
</event>
<event>
12    2  0.3561489E-008  0.1883421E+04  0.7818608E-02  0.8663153E-01
         -1   -1    0    0    0  501 -0.00000000000E+00  0.00000000000E+00  0.15324321087E+04  0.15324321087E+04  0.00000000000E+00 0.  1.
          1   -1    0    0  501    0  0.00000000000E+00 -0.00000000000E+00 -0.57870041924E+03  0.57870041924E+03  0.00000000000E+00 0. -1.
         23    2    1    2    0    0 -0.62689071726E+02  0.64224325901E+03  0.48814069427E+03  0.81424648867E+03  0.91157465103E+02 0.  0.
        254    2    1    2    0    0  0.62689071726E+02 -0.64224325901E+03  0.46559099520E+03  0.12968860393E+04  0.10240762182E+04 0.  0.
         23    2    4    4    0    0  0.53132758418E+03 -0.33245247067E+03  0.31762430392E+03  0.70858830089E+03  0.91534336512E+02 0.  0.
         23    2    4    4    0    0 -0.46863851245E+03 -0.30979078835E+03  0.14796669128E+03  0.58829773839E+03  0.92777687869E+02 0.  0.
          3    1    3    3  502    0 -0.35866502288E+02  0.74574846466E+02  0.74524361757E+02  0.11136289421E+03  0.00000000000E+00 0. -1.
         -3    1    3    3    0  502 -0.26822569438E+02  0.56766841255E+03  0.41361633251E+03  0.70288359446E+03  0.00000000000E+00 0.  1.
         11    1    5    5    0    0  0.46178421073E+00 -0.46787063758E+01  0.13921303488E+02  0.14693747950E+02  0.00000000000E+00 0.  1.
        -11    1    5    5    0    0  0.53086579997E+03 -0.32777376429E+03  0.30370300043E+03  0.69389455294E+03  0.00000000000E+00 0. -1.
          3    1    6    6  503    0 -0.94661324925E+02 -0.33961726826E+02 -0.14949393180E+00  0.10056931776E+03  0.00000000000E+00 0. -1.
         -3    1    6    6    0  503 -0.37397718753E+03 -0.27582906152E+03  0.14811618521E+03  0.48772842063E+03  0.00000000000E+00 0.  1.
<mgrwt>
<rscale>  0 0.18834215E+04</rscale>
<asrwt>0</asrwt>
<pdfrwt beam="1">  1        1 0.89030834E-01 0.18834215E+04</pdfrwt>
<pdfrwt beam="2">  1       -1 0.23575878E+00 0.18834215E+04</pdfrwt>
<totfact> 0.29225303E+00</totfact>
</mgrwt>
</event>
<event>
12    2  0.3561489E-008  0.1222509E+04  0.7818608E-02  0.9093380E-01
          2   -1    0    0  501    0  0.00000000000E+00  0.00000000000E+00  0.14458814429E+04  0.14458814429E+04  0.00000000000E+00 0. -1.
         -2   -1    0    0    0  501 -0.00000000000E+00 -0.00000000000E+00 -0.25841112190E+03  0.25841112190E+03  0.00000000000E+00 0.  1.
         23    2    1    2    0    0 -0.14211931170E+02 -0.49313587219E+02 -0.93663947571E+02  0.14030539861E+03  0.90988246125E+02 0.  0.
        254    2    1    2    0    0  0.14211931170E+02  0.49313587219E+02  0.12811342686E+04  0.15639871662E+04  0.89560986655E+03 0.  0.
         23    2    4    4    0    0 -0.30031606429E+03  0.27299759553E+03  0.32733773450E+03  0.53060387026E+03  0.98351660244E+02 0.  0.
         23    2    4    4    0    0  0.31452799547E+03 -0.22368400831E+03  0.95379653410E+03  0.10333832960E+04  0.95868724832E+02 0.  0.
          2    1    3    3  502    0 -0.21404638525E+02  0.23152533427E+02 -0.25375746953E+02  0.40473780252E+02  0.00000000000E+00 0. -1.
         -2    1    3    3    0  502  0.71927073547E+01 -0.72466120646E+02 -0.68288200618E+02  0.99831618359E+02  0.00000000000E+00 0.  1.
         11    1    5    5    0    0 -0.52042375104E+02  0.80655899431E+02  0.36916447606E+02  0.10284263232E+03  0.00000000000E+00 0. -1.
        -11    1    5    5    0    0 -0.24827368919E+03  0.19234169610E+03  0.29042128690E+03  0.42776123794E+03  0.00000000000E+00 0.  1.
          4    1    6    6  503    0  0.19092732371E+02 -0.34349779332E+02  0.17227335775E+03  0.17669903667E+03  0.00000000000E+00 0. -1.
         -4    1    6    6    0  503  0.29543526309E+03 -0.18933422898E+03  0.78152317636E+03  0.85668425929E+03  0.00000000000E+00 0.  1.
<mgrwt>
<rscale>  0 0.12225086E+04</rscale>
<asrwt>0</asrwt>
<pdfrwt beam="1">  1        2 0.22244329E+00 0.12225086E+04</pdfrwt>
<pdfrwt beam="2">  1       -2 0.39755558E-01 0.12225086E+04</pdfrwt>
<totfact> 0.80303069E+01</totfact>
</mgrwt>
</event>
<event>
12    2  0.3561489E-008  0.1550591E+04  0.7818608E-02  0.8851490E-01
         -1   -1    0    0    0  501 -0.00000000000E+00  0.00000000000E+00  0.25681989053E+03  0.25681989053E+03  0.00000000000E+00 0.  1.
          1   -1    0    0  501    0  0.00000000000E+00 -0.00000000000E+00 -0.23404850294E+04  0.23404850294E+04  0.00000000000E+00 0. -1.
         23    2    1    2    0    0 -0.22545153991E+03  0.41697982885E+03 -0.10144908689E+04  0.11234665632E+04  0.91020993142E+02 0.  0.
        254    2    1    2    0    0  0.22545153991E+03 -0.41697982885E+03 -0.10691742700E+04  0.14738383567E+04  0.89686415220E+03 0.  0.
         23    2    4    4    0    0  0.52028628681E+03 -0.45589830699E+03 -0.80846906807E+03  0.10676763843E+04  0.88144999355E+02 0.  0.
         23    2    4    4    0    0 -0.29483474690E+03  0.38918478135E+02 -0.26070520193E+03  0.40616197244E+03  0.92510375743E+02 0.  0.
          3    1    3    3  502    0 -0.22083913618E+03  0.42173716427E+03 -0.10003906050E+04  0.11078869628E+04  0.00000000000E+00 0. -1.
         -3    1    3    3    0  502 -0.46124037234E+01 -0.47573354205E+01 -0.14100263814E+02  0.15579600381E+02  0.00000000000E+00 0.  1.
         11    1    5    5    0    0  0.16314933954E+03 -0.14306362720E+03 -0.31870049901E+03  0.38555792884E+03  0.00000000000E+00 0. -1.
        -11    1    5    5    0    0  0.35713694726E+03 -0.31283467978E+03 -0.48976856907E+03  0.68211845542E+03  0.00000000000E+00 0.  1.
          4    1    6    6  503    0 -0.62153488612E+02 -0.24344362798E+02 -0.83608839614E+02  0.10698664500E+03  0.00000000000E+00 0. -1.
         -4    1    6    6    0  503 -0.23268125829E+03  0.63262840933E+02 -0.17709636232E+03  0.29917532744E+03  0.00000000000E+00 0.  1.
<mgrwt>
<rscale>  0 0.15505910E+04</rscale>
<asrwt>0</asrwt>
<pdfrwt beam="1">  1        1 0.36007462E+00 0.15505910E+04</pdfrwt>
<pdfrwt beam="2">  1       -1 0.39510753E-01 0.15505910E+04</pdfrwt>
<totfact> 0.10494697E+01</totfact>
</mgrwt>
</event>
<event>
12    2  0.3561489E-008  0.3820842E+04  0.7818608E-02  0.8041697E-01
          2   -1    0    0  501    0  0.00000000000E+00  0.00000000000E+00  0.21074398956E+04  0.21074398956E+04  0.00000000000E+00 0. -1.
         -2   -1    0    0    0  501 -0.00000000000E+00 -0.00000000000E+00 -0.17318211173E+04  0.17318211173E+04  0.00000000000E+00 0.  1.
         23    2    1    2    0    0  0.31755292470E+03 -0.17346969665E+04 -0.19961852040E+03  0.17770002445E+04  0.88706761375E+02 0.  0.
        254    2    1    2    0    0 -0.31755292470E+03  0.17346969665E+04  0.57523729863E+03  0.20622607684E+04  0.90111492134E+03 0.  0.
         23    2    4    4    0    0  0.17738320313E+03  0.63606634746E+03 -0.10763586338E+03  0.67423599706E+03  0.83447597507E+02 0.  0.
         23    2    4    4    0    0 -0.49493612783E+03  0.10986306191E+04  0.68287316201E+03  0.13880247713E+04  0.91356459299E+02 0.  0.
          3    1    3    3  502    0  0.16649748493E+03 -0.98356008349E+03 -0.70704710132E+02  0.10000555016E+04  0.00000000000E+00 0. -1.
         -3    1    3    3    0  502  0.15105543978E+03 -0.75113688305E+03 -0.12891381027E+03  0.77694474285E+03  0.00000000000E+00 0.  1.
         11    1    5    5    0    0  0.11067828425E+03  0.50362250410E+03 -0.63634728602E+02  0.51955239190E+03  0.00000000000E+00 0.  1.
        -11    1    5    5    0    0  0.66704918876E+02  0.13244384336E+03 -0.44001134777E+02  0.15468360517E+03  0.00000000000E+00 0. -1.
          2    1    6    6  503    0 -0.32166505791E+02  0.49228816874E+02  0.14470772854E+02  0.60560414238E+02  0.00000000000E+00 0. -1.
         -2    1    6    6    0  503 -0.46276962204E+03  0.10494018022E+04  0.66840238915E+03  0.13274643571E+04  0.00000000000E+00 0.  1.
<mgrwt>
<rscale>  0 0.38208423E+04</rscale>
<asrwt>0</asrwt>
<pdfrwt beam="1">  1        2 0.32422152E+00 0.38208423E+04</pdfrwt>
<pdfrwt beam="2">  1       -2 0.26643402E+00 0.38208423E+04</pdfrwt>
<totfact> 0.23741732E-01</totfact>
</mgrwt>
</event>
<event>
12    2  0.3561489E-008  0.2181561E+04  0.7818608E-02  0.8526142E-01
          1   -1    0    0  501    0  0.00000000000E+00  0.00000000000E+00  0.12866715529E+04  0.12866715529E+04  0.00000000000E+00 0. -1.
         -1   -1    0    0    0  501 -0.00000000000E+00 -0.00000000000E+00 -0.92471353887E+03  0.92471353887E+03  0.00000000000E+00 0.  1.
         23    2    1    2    0    0  0.70019895054E+03 -0.14682450057E+03  0.70621489669E+03  0.10094649375E+04  0.91891106619E+02 0.  0.
        254    2    1    2    0    0 -0.70019895054E+03  0.14682450057E+03 -0.34425688261E+03  0.12019201543E+04  0.90236536490E+03 0.  0.
         23    2    4    4    0    0 -0.29131335593E+03  0.41754962121E+03 -0.45721127258E+03  0.69021669618E+03  0.90253988276E+02 0.  0.
         23    2    4    4    0    0 -0.40888559461E+03 -0.27072512064E+03  0.11295438997E+03  0.51170345811E+03  0.92748123424E+02 0.  0.
          2    1    3    3  502    0  0.40642074986E+03 -0.10568876289E+03  0.46988098298E+03  0.63018733618E+03  0.00000000000E+00 0. -1.
         -2    1    3    3    0  502  0.29377820068E+03 -0.41135737685E+02  0.23633391371E+03  0.37927760134E+03  0.00000000000E+00 0.  1.
         11    1    5    5    0    0 -0.17918957098E+03  0.23610011353E+03 -0.32212794222E+03  0.43774259231E+03  0.00000000000E+00 0. -1.
        -11    1    5    5    0    0 -0.11212378494E+03  0.18144950768E+03 -0.13508333036E+03  0.25247410388E+03  0.00000000000E+00 0.  1.
          2    1    6    6  503    0 -0.15878524298E+03 -0.14430399725E+03  0.15950964020E+02  0.21515303917E+03  0.00000000000E+00 0. -1.
         -2    1    6    6    0  503 -0.25010035164E+03 -0.12642112339E+03  0.97003425951E+02  0.29655041894E+03  0.00000000000E+00 0.  1.
<mgrwt>
<rscale>  0 0.21815615E+04</rscale>
<asrwt>0</asrwt>
<pdfrwt beam="1">  1        1 0.19794947E+00 0.21815615E+04</pdfrwt>
<pdfrwt beam="2">  1       -1 0.14226362E+00 0.21815615E+04</pdfrwt>
<totfact> 0.33935514E+00</totfact>
</mgrwt>
</event>
<event>
12    2  0.3561489E-008  0.2194462E+04  0.7818608E-02  0.8520737E-01
         -2   -1    0    0    0  501 -0.00000000000E+00  0.00000000000E+00  0.46652417400E+03  0.46652417400E+03  0.00000000000E+00 0.  1.
          2   -1    0    0  501    0  0.00000000000E+00 -0.00000000000E+00 -0.25806066821E+04  0.25806066821E+04  0.00000000000E+00 0. -1.
         23    2    1    2    0    0 -0.10596109225E+03  0.67788071677E+03 -0.17102374273E+04  0.18448692541E+04  0.88772112003E+02 0.  0.
        254    2    1    2    0    0  0.10596109225E+03 -0.67788071677E+03 -0.40384508078E+03  0.12022616019E+04  0.90088406081E+03 0.  0.
         23    2    4    4    0    0 -0.38317684041E+02 -0.81707297720E+03 -0.49899742627E+03  0.96255149830E+03  0.91817539039E+02 0.  0.
         23    2    4    4    0    0  0.14427877629E+03  0.13919226043E+03  0.95152345492E+02  0.23971010365E+03  0.90642783975E+02 0.  0.
          4    1    3    3  502    0 -0.80403324808E+02  0.61561211970E+03 -0.14786483456E+04  0.16036969497E+04  0.00000000000E+00 0. -1.
         -4    1    3    3    0  502 -0.25557767445E+02  0.62268597064E+02 -0.23158908172E+03  0.24117230444E+03  0.00000000000E+00 0.  1.
         11    1    5    5    0    0 -0.67035229415E+02 -0.46898056190E+03 -0.29409429777E+03  0.55760913318E+03  0.00000000000E+00 0. -1.
        -11    1    5    5    0    0  0.28717545374E+02 -0.34809241529E+03 -0.20490312850E+03  0.40494236512E+03  0.00000000000E+00 0.  1.
          2    1    6    6  503    0  0.10295754884E+03  0.38593847943E+02  0.60884605444E+02  0.12568483259E+03  0.00000000000E+00 0. -1.
         -2    1    6    6    0  503  0.41321227456E+02  0.10059841249E+03  0.34267740049E+02  0.11402527107E+03  0.00000000000E+00 0.  1.
<mgrwt>
<rscale>  0 0.21944616E+04</rscale>
<asrwt>0</asrwt>
<pdfrwt beam="1">  1        2 0.39701641E+00 0.21944616E+04</pdfrwt>
<pdfrwt beam="2">  1       -2 0.71772950E-01 0.21944616E+04</pdfrwt>
<totfact> 0.50283247E+00</totfact>
</mgrwt>
</event>
<event>
12    2  0.3561489E-008  0.1417533E+04  0.7818608E-02  0.8941224E-01
         -2   -1    0    0    0  501 -0.00000000000E+00  0.00000000000E+00  0.38795253042E+03  0.38795253042E+03  0.00000000000E+00 0.  1.
          2   -1    0    0  501    0  0.00000000000E+00 -0.00000000000E+00 -0.12948740303E+04  0.12948740303E+04  0.00000000000E+00 0. -1.
         23    2    1    2    0    0  0.28753179440E+03 -0.21856491956E+03 -0.54417810295E+03  0.65952889754E+03  0.91670072014E+02 0.  0.
        254    2    1    2    0    0 -0.28753179440E+03  0.21856491956E+03 -0.36274339691E+03  0.10232976632E+04  0.88606443251E+03 0.  0.
         23    2    4    4    0    0 -0.42063824853E+03  0.30838761843E+03  0.85214924097E+02  0.53722806765E+03  0.96503647873E+02 0.  0.
         23    2    4    4    0    0  0.13310645413E+03 -0.89822698874E+02 -0.44795832101E+03  0.48606959551E+03  0.99053263216E+02 0.  0.
          1    1    3    3  502    0  0.16765248935E+03 -0.14813149826E+03 -0.40569127732E+03  0.46328793472E+03  0.00000000000E+00 0. -1.
         -1    1    3    3    0  502  0.11987930505E+03 -0.70433421291E+02 -0.13848682563E+03  0.19624096282E+03  0.00000000000E+00 0.  1.
         11    1    5    5    0    0 -0.39272253541E+03  0.30850379038E+03  0.66962279378E+02  0.50387451350E+03  0.00000000000E+00 0.  1.
        -11    1    5    5    0    0 -0.27915713119E+02 -0.11617195032E+00  0.18252644719E+02  0.33353554145E+02  0.00000000000E+00 0. -1.
          4    1    6    6  503    0  0.45321288032E+02  0.15644760254E+02 -0.16104368384E+03  0.16802930036E+03  0.00000000000E+00 0. -1.
         -4    1    6    6    0  503  0.87785166096E+02 -0.10546745913E+03 -0.28691463716E+03  0.31804029515E+03  0.00000000000E+00 0.  1.
<mgrwt>
<rscale>  0 0.14175326E+04</rscale>
<asrwt>0</asrwt>
<pdfrwt beam="1">  1        2 0.19921139E+00 0.14175326E+04</pdfrwt>
<pdfrwt beam="2">  1       -2 0.59685005E-01 0.14175326E+04</pdfrwt>
<totfact> 0.42374414E+01</totfact>
</mgrwt>
</event>
<event>
12    2  0.3561489E-008  0.2213993E+04  0.7818608E-02  0.8512627E-01
          2   -1    0    0  501    0  0.00000000000E+00  0.00000000000E+00  0.20166166262E+04  0.20166166262E+04  0.00000000000E+00 0. -1.
         -2   -1    0    0    0  501 -0.00000000000E+00 -0.00000000000E+00 -0.60767173843E+03  0.60767173843E+03  0.00000000000E+00 0.  1.
         23    2    1    2    0    0 -0.68121475674E+03  0.32831965385E+03  0.12115067131E+04  0.14310848164E+04  0.91694580257E+02 0.  0.
        254    2    1    2    0    0  0.68121475674E+03 -0.32831965385E+03  0.19743817470E+03  0.11932035482E+04  0.90161274100E+03 0.  0.
         23    2    4    4    0    0 -0.17267872088E+03 -0.21924813563E+02 -0.11695694620E+03  0.22871336984E+03  0.91281105308E+02 0.  0.
         23    2    4    4    0    0  0.85389347762E+03 -0.30639484029E+03  0.31439512090E+03  0.96449017837E+03  0.91570425690E+02 0.  0.
          1    1    3    3  502    0 -0.50832496862E+03  0.19979855381E+03  0.85648710858E+03  0.10158168649E+04  0.00000000000E+00 0. -1.
         -1    1    3    3    0  502 -0.17288978812E+03  0.12852110004E+03  0.35501960451E+03  0.41526795155E+03  0.00000000000E+00 0.  1.
         11    1    5    5    0    0 -0.16836142132E+03 -0.41393698852E+02 -0.90474855290E+02  0.19556253714E+03  0.00000000000E+00 0.  1.
        -11    1    5    5    0    0 -0.43172995586E+01  0.19468885289E+02 -0.26482090906E+02  0.33150832699E+02  0.00000000000E+00 0. -1.
          3    1    6    6  503    0  0.71643377886E+03 -0.26794434965E+03  0.29766187233E+03  0.82077653733E+03  0.00000000000E+00 0. -1.
         -3    1    6    6    0  503  0.13745969876E+03 -0.38450490640E+02  0.16733248570E+02  0.14371364104E+03  0.00000000000E+00 0.  1.
<mgrwt>
<rscale>  0 0.22139927E+04</rscale>
<asrwt>0</asrwt>
<pdfrwt beam="1">  1        2 0.31024871E+00 0.22139927E+04</pdfrwt>
<pdfrwt beam="2">  1       -2 0.93487961E-01 0.22139927E+04</pdfrwt>
<totfact> 0.57772107E+00</totfact>
</mgrwt>
</event>
<event>
12    2  0.3561489E-008  0.1198903E+04  0.7818608E-02  0.9113817E-01
         -2   -1    0    0    0  501 -0.00000000000E+00  0.00000000000E+00  0.50547032328E+03  0.50547032328E+03  0.00000000000E+00 0.  1.
          2   -1    0    0  501    0  0.00000000000E+00 -0.00000000000E+00 -0.71090694387E+03  0.71090694387E+03  0.00000000000E+00 0. -1.
         23    2    1    2    0    0 -0.18318378631E+03  0.30887197564E+02 -0.21596646313E+03  0.29921774905E+03  0.91539224410E+02 0.  0.
        254    2    1    2    0    0  0.18318378631E+03 -0.30887197564E+02  0.10529842535E+02  0.91715951811E+03  0.89808707013E+03 0.  0.
         23    2    4    4    0    0 -0.16075204956E+02 -0.37876829866E+01  0.43171439204E+03  0.44148067112E+03  0.90857624466E+02 0.  0.
         23    2    4    4    0    0  0.19925899127E+03 -0.27099514577E+02 -0.42118454950E+03  0.47567884698E+03  0.91844495954E+02 0.  0.
          1    1    3    3  502    0 -0.35610940947E+02  0.24139685104E+02 -0.10796698291E+03  0.11622277277E+03  0.00000000000E+00 0. -1.
         -1    1    3    3    0  502 -0.14757284536E+03  0.67475124602E+01 -0.10799948022E+03  0.18299497627E+03  0.00000000000E+00 0.  1.
         11    1    5    5    0    0  0.37443933496E+02  0.10169790348E+00  0.21398416846E+03  0.21723554693E+03  0.00000000000E+00 0. -1.
        -11    1    5    5    0    0 -0.53519138452E+02 -0.38893808901E+01  0.21773022358E+03  0.22424512419E+03  0.00000000000E+00 0.  1.
          3    1    6    6  503    0  0.15263774597E+01  0.16609712059E+02 -0.18283155426E+02  0.24748457229E+02  0.00000000000E+00 0. -1.
         -3    1    6    6    0  503  0.19773261381E+03 -0.43709226637E+02 -0.40290139408E+03  0.45093038976E+03  0.00000000000E+00 0.  1.
<mgrwt>
<rscale>  0 0.11989034E+04</rscale>
<asrwt>0</asrwt>
<pdfrwt beam="1">  1        2 0.10937030E+00 0.11989034E+04</pdfrwt>
<pdfrwt beam="2">  1       -2 0.77764665E-01 0.11989034E+04</pdfrwt>
<totfact> 0.58430365E+01</totfact>
</mgrwt>
</event>
<event>
12    2  0.3561489E-008  0.1387779E+04  0.7818608E-02  0.8962712E-01
          2   -1    0    0  501    0  0.00000000000E+00  0.00000000000E+00  0.15669338035E+04  0.15669338035E+04  0.00000000000E+00 0. -1.
         -2   -1    0    0    0  501 -0.00000000000E+00 -0.00000000000E+00 -0.30727717009E+03  0.30727717009E+03  0.00000000000E+00 0.  1.
         23    2    1    2    0    0  0.13692886421E+03  0.24088345837E+03 -0.94796344891E+01  0.29341687785E+03  0.96068966731E+02 0.  0.
        254    2    1    2    0    0 -0.13692886421E+03 -0.24088345837E+03  0.12691362679E+04  0.15807940957E+04  0.90079340152E+03 0.  0.
         23    2    4    4    0    0 -0.28946964722E+02  0.20026528270E+03 -0.64322082266E+01  0.22379922472E+03  0.95397114532E+02 0.  0.
         23    2    4    4    0    0 -0.10798189949E+03 -0.44114874107E+03  0.12755684761E+04  0.13569948710E+04  0.89932420763E+02 0.  0.
          2    1    3    3  502    0 -0.61821028299E+00 -0.63355878334E+01  0.76975959941E+01  0.99887357177E+01  0.00000000000E+00 0. -1.
         -2    1    3    3    0  502  0.13754707450E+03  0.24721904620E+03 -0.17177230483E+02  0.28342814213E+03  0.00000000000E+00 0.  1.
         11    1    5    5    0    0 -0.58802491262E+02  0.79396391450E+02  0.38367729607E+01  0.98874874364E+02  0.00000000000E+00 0.  1.
        -11    1    5    5    0    0  0.29855526540E+02  0.12086889125E+03 -0.10268981187E+02  0.12492435036E+03  0.00000000000E+00 0. -1.
          4    1    6    6  503    0 -0.12126517162E+03 -0.41258341648E+03  0.11577205535E+04  0.12350089867E+04  0.00000000000E+00 0. -1.
         -4    1    6    6    0  503  0.13283272130E+02 -0.28565324582E+02  0.11784792264E+03  0.12198588425E+03  0.00000000000E+00 0.  1.
<mgrwt>
<rscale>  0 0.13877795E+04</rscale>
<asrwt>0</asrwt>
<pdfrwt beam="1">  1        2 0.24106673E+00 0.13877795E+04</pdfrwt>
<pdfrwt beam="2">  1       -2 0.47273412E-01 0.13877795E+04</pdfrwt>
<totfact> 0.48071825E+01</totfact>
</mgrwt>
</event>
<event>
12    2  0.3561489E-008  0.1900945E+04  0.7818608E-02  0.8654386E-01
         -1   -1    0    0    0  501 -0.00000000000E+00  0.00000000000E+00  0.11402686222E+04  0.11402686222E+04  0.00000000000E+00 0.  1.
          1   -1    0    0  501    0  0.00000000000E+00 -0.00000000000E+00 -0.79226777727E+03  0.79226777727E+03  0.00000000000E+00 0. -1.
         23    2    1    2    0    0 -0.52032483645E+03  0.45313176926E+03 -0.11397840566E+03  0.70578862711E+03  0.95289944217E+02 0.  0.
        254    2    1    2    0    0  0.52032483645E+03 -0.45313176926E+03  0.46197925054E+03  0.12267477723E+04  0.90300550010E+03 0.  0.
         23    2    4    4    0    0  0.16228332229E+03 -0.19773607556E+03 -0.25993131231E+03  0.37639710239E+03  0.93139998369E+02 0.  0.
         23    2    4    4    0    0  0.35804151415E+03 -0.25539569370E+03  0.72191056285E+03  0.85035066992E+03  0.92307718344E+02 0.  0.
          1    1    3    3  502    0 -0.26991398575E+03  0.21250832022E+03 -0.10178283181E+03  0.35829190714E+03  0.00000000000E+00 0. -1.
         -1    1    3    3    0  502 -0.25041085069E+03  0.24062344904E+03 -0.12195573853E+02  0.34749671998E+03  0.00000000000E+00 0.  1.
         11    1    5    5    0    0  0.10395904777E+03 -0.59300523640E+02 -0.13992216987E+03  0.18412563466E+03  0.00000000000E+00 0.  1.
        -11    1    5    5    0    0  0.58324274521E+02 -0.13843555192E+03 -0.12000914243E+03  0.19227146773E+03  0.00000000000E+00 0. -1.
          1    1    6    6  503    0 -0.39258742590E+01 -0.87616271833E+01  0.68134393624E+01  0.11772916187E+02  0.00000000000E+00 0. -1.
         -1    1    6    6    0  503  0.36196738841E+03 -0.24663406652E+03  0.71509712349E+03  0.83857775374E+03  0.00000000000E+00 0.  1.
<mgrwt>
<rscale>  0 0.19009451E+04</rscale>
<asrwt>0</asrwt>
<pdfrwt beam="1">  1        1 0.12188735E+00 0.19009451E+04</pdfrwt>
<pdfrwt beam="2">  1       -1 0.17542594E+00 0.19009451E+04</pdfrwt>
<totfact> 0.47180598E+00</totfact>
</mgrwt>
</event>
<event>
12    2  0.3561489E-008  0.1629892E+04  0.7818608E-02  0.8802392E-01
         -2   -1    0    0    0  501 -0.00000000000E+00  0.00000000000E+00  0.33853814890E+03  0.33853814890E+03  0.00000000000E+00 0.  1.
          2   -1    0    0  501    0  0.00000000000E+00 -0.00000000000E+00 -0.19617795563E+04  0.19617795563E+04  0.00000000000E+00 0. -1.
         23    2    1    2    0    0  0.20023345005E+03 -0.44175060838E+02 -0.12959713280E+04  0.13153319704E+04  0.92258543416E+02 0.  0.
        254    2    1    2    0    0 -0.20023345005E+03  0.44175060838E+02 -0.32727007940E+03  0.98498573480E+03  0.90611606451E+03 0.  0.
         23    2    4    4    0    0 -0.48427182675E+03 -0.19990641547E+03 -0.26394504921E+03  0.59438198004E+03  0.95609476845E+02 0.  0.
         23    2    4    4    0    0  0.28403837669E+03  0.24408147631E+03 -0.63325030192E+02  0.39060375476E+03  0.91146405712E+02 0.  0.
          3    1    3    3  502    0  0.13416424399E+03 -0.69314781982E+02 -0.97861154485E+03  0.99019449558E+03  0.00000000000E+00 0. -1.
         -3    1    3    3    0  502  0.66069206063E+02  0.25139721144E+02 -0.31735978315E+03  0.32513747481E+03  0.00000000000E+00 0.  1.
         11    1    5    5    0    0 -0.48002522433E+03 -0.20784198507E+03 -0.26252323424E+03  0.58526998494E+03  0.00000000000E+00 0.  1.
        -11    1    5    5    0    0 -0.42466024122E+01  0.79355695959E+01 -0.14218149704E+01  0.91119950982E+01  0.00000000000E+00 0. -1.
          3    1    6    6  503    0  0.22067862120E+02  0.46025896671E+02 -0.33029035507E+02  0.60797128957E+02  0.00000000000E+00 0. -1.
         -3    1    6    6    0  503  0.26197051457E+03  0.19805557964E+03 -0.30295994685E+02  0.32980662581E+03  0.00000000000E+00 0.  1.
<mgrwt>
<rscale>  0 0.16298923E+04</rscale>
<asrwt>0</asrwt>
<pdfrwt beam="1">  1        2 0.30181223E+00 0.16298923E+04</pdfrwt>
<pdfrwt beam="2">  1       -2 0.52082793E-01 0.16298923E+04</pdfrwt>
<totfact> 0.23366006E+01</totfact>
</mgrwt>
</event>
<event>
12    2  0.3561489E-008  0.2850583E+04  0.7818608E-02  0.8287734E-01
         -2   -1    0    0    0  501 -0.00000000000E+00  0.00000000000E+00  0.82400073530E+03  0.82400073530E+03  0.00000000000E+00 0. -1.
          2   -1    0    0  501    0  0.00000000000E+00 -0.00000000000E+00 -0.24653561784E+04  0.24653561784E+04  0.00000000000E+00 0.  1.
         23    2    1    2    0    0  0.26252863081E+03  0.10779989129E+04 -0.15024313103E+04  0.18688849334E+04  0.66544073919E+02 0.  0.
        254    2    1    2    0    0 -0.26252863081E+03 -0.10779989129E+04 -0.13892413289E+03  0.14204719804E+04  0.87603526989E+03 0.  0.
         23    2    4    4    0    0 -0.24948988283E+03 -0.72765736865E+03 -0.48749090639E+03  0.91535010236E+03  0.92130224608E+02 0.  0.
         23    2    4    4    0    0 -0.13038747985E+02 -0.35034154429E+03  0.34856677350E+03  0.50512187804E+03  0.10363449948E+03 0.  0.
          3    1    3    3  502    0  0.14490854728E+02  0.12938148409E+03 -0.15410561595E+03  0.20173768652E+03  0.00000000000E+00 0. -1.
         -3    1    3    3    0  502  0.24803777609E+03  0.94861742885E+03 -0.13483256943E+04  0.16671472468E+04  0.00000000000E+00 0.  1.
         11    1    5    5    0    0 -0.48627593304E+02 -0.58526513224E+02 -0.46077039864E+02  0.88955546107E+02  0.00000000000E+00 0.  1.
        -11    1    5    5    0    0 -0.20086228953E+03 -0.66913085543E+03 -0.44141386653E+03  0.82639455625E+03  0.00000000000E+00 0. -1.
          1    1    6    6  503    0 -0.56139118817E+02 -0.14778767039E+03  0.13923052492E+03  0.21066071122E+03  0.00000000000E+00 0. -1.
         -1    1    6    6    0  503  0.43100370832E+02 -0.20255387390E+03  0.20933624858E+03  0.29446116683E+03  0.00000000000E+00 0.  1.
<mgrwt>
<rscale>  0 0.28505826E+04</rscale>
<asrwt>0</asrwt>
<pdfrwt beam="1">  1        2 0.37928557E+00 0.28505826E+04</pdfrwt>
<pdfrwt beam="2">  1       -2 0.12676934E+00 0.28505826E+04</pdfrwt>
<totfact> 0.14618324E+00</totfact>
</mgrwt>
</event>
<event>
12    2  0.3561489E-008  0.1726828E+04  0.7818608E-02  0.8746210E-01
         -2   -1    0    0    0  501 -0.00000000000E+00  0.00000000000E+00  0.89763181295E+03  0.89763181295E+03  0.00000000000E+00 0.  1.
          2   -1    0    0  501    0  0.00000000000E+00 -0.00000000000E+00 -0.83050045176E+03  0.83050045176E+03  0.00000000000E+00 0. -1.
         23    2    1    2    0    0  0.58211974101E+03  0.21361895960E+03  0.67886426562E+02  0.63042746661E+03  0.91289489904E+02 0.  0.
        254    2    1    2    0    0 -0.58211974101E+03 -0.21361895960E+03 -0.75506537170E+00  0.10977047981E+04  0.90579180881E+03 0.  0.
         23    2    4    4    0    0 -0.42793797486E+03  0.73049511174E+02  0.38358076924E+03  0.58632237110E+03  0.90402294827E+02 0.  0.
         23    2    4    4    0    0 -0.15418176615E+03 -0.28666847077E+03 -0.38433583461E+03  0.51138242701E+03  0.88583992605E+02 0.  0.
          2    1    3    3  502    0  0.57922936323E+03  0.21936341925E+03  0.70719296828E+02  0.62340050038E+03  0.00000000000E+00 0. -1.
         -2    1    3    3    0  502  0.28903777797E+01 -0.57444596499E+01 -0.28328702660E+01  0.70269662246E+01  0.00000000000E+00 0.  1.
         11    1    5    5    0    0 -0.40742085797E+03  0.46772876153E+02  0.35393334653E+03  0.54170865900E+03  0.00000000000E+00 0. -1.
        -11    1    5    5    0    0 -0.20517116886E+02  0.26276635021E+02  0.29647422712E+02  0.44613712094E+02  0.00000000000E+00 0.  1.
          1    1    6    6  503    0 -0.49612522528E+02 -0.18469605600E+03 -0.22168692572E+03  0.29277829245E+03  0.00000000000E+00 0.  1.
         -1    1    6    6    0  503 -0.10456924362E+03 -0.10197241477E+03 -0.16264890889E+03  0.21860413456E+03  0.00000000000E+00 0. -1.
<mgrwt>
<rscale>  0 0.17268279E+04</rscale>
<asrwt>0</asrwt>
<pdfrwt beam="1">  1        2 0.12776930E+00 0.17268279E+04</pdfrwt>
<pdfrwt beam="2">  1       -2 0.13809720E+00 0.17268279E+04</pdfrwt>
<totfact> 0.11572754E+01</totfact>
</mgrwt>
</event>
<event>
12    2  0.3561489E-008  0.1657385E+04  0.7818608E-02  0.8786050E-01
         -1   -1    0    0    0  501 -0.00000000000E+00  0.00000000000E+00  0.94205611139E+03  0.94205611139E+03  0.00000000000E+00 0.  1.
          1   -1    0    0  501    0  0.00000000000E+00 -0.00000000000E+00 -0.72897071145E+03  0.72897071145E+03  0.00000000000E+00 0. -1.
         23    2    1    2    0    0 -0.45636323224E+02 -0.13211014512E+03 -0.48645788945E+03  0.51454251269E+03  0.92611849770E+02 0.  0.
        254    2    1    2    0    0  0.45636323224E+02  0.13211014512E+03  0.69954328939E+03  0.11564843101E+04  0.91025237239E+03 0.  0.
         23    2    4    4    0    0  0.20553802380E+03  0.24512788120E+03  0.83626452342E+03  0.89964171522E+03  0.87654465230E+02 0.  0.
         23    2    4    4    0    0 -0.15990170058E+03 -0.11301773608E+03 -0.13672123403E+03  0.25684259493E+03  0.94519099748E+02 0.  0.
          3    1    3    3  502    0 -0.31353760470E+02 -0.11680974268E+03 -0.47603789504E+03  0.49116153330E+03  0.00000000000E+00 0. -1.
         -3    1    3    3    0  502 -0.14282562754E+02 -0.15300402439E+02 -0.10419994404E+02  0.23380979385E+02  0.00000000000E+00 0.  1.
         11    1    5    5    0    0  0.14340988522E+02  0.99221067973E+01  0.11366973603E+02  0.20816345596E+02  0.00000000000E+00 0. -1.
        -11    1    5    5    0    0  0.19119703528E+03  0.23520577440E+03  0.82489754981E+03  0.87882536963E+03  0.00000000000E+00 0.  1.
          2    1    6    6  503    0 -0.14029252189E+03 -0.10331595633E+03 -0.15113209110E+03  0.23064493814E+03  0.00000000000E+00 0.  1.
         -2    1    6    6    0  503 -0.19609178692E+02 -0.97017797541E+01  0.14410857075E+02  0.26197656785E+02  0.00000000000E+00 0. -1.
<mgrwt>
<rscale>  0 0.16573851E+04</rscale>
<asrwt>0</asrwt>
<pdfrwt beam="1">  1        1 0.11214934E+00 0.16573851E+04</pdfrwt>
<pdfrwt beam="2">  1       -1 0.14493171E+00 0.16573851E+04</pdfrwt>
<totfact> 0.93538868E+00</totfact>
</mgrwt>
</event>
<event>
12    2  0.3561489E-008  0.1451374E+04  0.7818608E-02  0.8917449E-01
         -1   -1    0    0    0  501 -0.00000000000E+00  0.00000000000E+00  0.14507830016E+03  0.14507830016E+03  0.00000000000E+00 0.  1.
          1   -1    0    0  501    0  0.00000000000E+00 -0.00000000000E+00 -0.36299116087E+04  0.36299116087E+04  0.00000000000E+00 0. -1.
         23    2    1    2    0    0 -0.10928973419E+03  0.24590903588E+03 -0.17435870755E+03  0.33355780479E+03  0.91893146135E+02 0.  0.
        254    2    1    2    0    0  0.10928973419E+03 -0.24590903588E+03 -0.33104746010E+04  0.34414321040E+04  0.90099797070E+03 0.  0.
         23    2    4    4    0    0  0.24576410094E+03  0.11875474385E+03 -0.34091607343E+03  0.44497488852E+03  0.85300643565E+02 0.  0.
         23    2    4    4    0    0 -0.13647436675E+03 -0.36466377973E+03 -0.29695585275E+04  0.29964572155E+04  0.94196979816E+02 0.  0.
          1    1    3    3  502    0 -0.15913041859E+02 -0.19347079921E+01  0.76011063642E+00  0.16048232439E+02  0.00000000000E+00 0. -1.
         -1    1    3    3    0  502 -0.93376692330E+02  0.24784374387E+03 -0.17511881819E+03  0.31750957235E+03  0.00000000000E+00 0.  1.
         11    1    5    5    0    0  0.64944946060E+01 -0.11420053632E+02 -0.21397983504E+02  0.25109157357E+02  0.00000000000E+00 0. -1.
        -11    1    5    5    0    0  0.23926960633E+03  0.13017479748E+03 -0.31951808993E+03  0.41986573116E+03  0.00000000000E+00 0.  1.
          2    1    6    6  503    0 -0.11747978674E+03 -0.19768992934E+03 -0.18806143102E+04  0.18946221239E+04  0.00000000000E+00 0. -1.
         -2    1    6    6    0  503 -0.18994580006E+02 -0.16697385039E+03 -0.10889442173E+04  0.11018350916E+04  0.00000000000E+00 0.  1.
<mgrwt>
<rscale>  0 0.14513737E+04</rscale>
<asrwt>0</asrwt>
<pdfrwt beam="1">  1        1 0.55844793E+00 0.14513737E+04</pdfrwt>
<pdfrwt beam="2">  1       -1 0.22319739E-01 0.14513737E+04</pdfrwt>
<totfact> 0.32973156E+00</totfact>
</mgrwt>
</event>
<event>
12    2  0.3561489E-008  0.4079049E+04  0.7818608E-02  0.7988787E-01
          2   -1    0    0  501    0  0.00000000000E+00  0.00000000000E+00  0.26883116659E+04  0.26883116659E+04  0.00000000000E+00 0.  1.
         -2   -1    0    0    0  501 -0.00000000000E+00 -0.00000000000E+00 -0.15473128904E+04  0.15473128904E+04  0.00000000000E+00 0. -1.
         23    2    1    2    0    0  0.17599047109E+04  0.76817094702E+03  0.27386493884E+03  0.19418646230E+04  0.92114136005E+02 0.  0.
        254    2    1    2    0    0 -0.17599047109E+04 -0.76817094702E+03  0.86713383669E+03  0.22937599332E+04  0.90667653822E+03 0.  0.
         23    2    4    4    0    0 -0.12773181056E+04 -0.25110355481E+03  0.20613420372E+03  0.13211484397E+04  0.91363842734E+02 0.  0.
         23    2    4    4    0    0 -0.48258660536E+03 -0.51706739221E+03  0.66099963297E+03  0.97261149347E+03  0.93830073391E+02 0.  0.
          2    1    3    3  502    0  0.13817232362E+04  0.57351987546E+03  0.18590661479E+03  0.15075295746E+04  0.00000000000E+00 0. -1.
         -2    1    3    3    0  502  0.37818147476E+03  0.19465107156E+03  0.87958324050E+02  0.43433504842E+03  0.00000000000E+00 0.  1.
         11    1    5    5    0    0 -0.50634238433E+03 -0.14521897924E+03  0.82983607220E+02  0.53325176152E+03  0.00000000000E+00 0.  1.
        -11    1    5    5    0    0 -0.77097572126E+03 -0.10588457557E+03  0.12315059650E+03  0.78789667821E+03  0.00000000000E+00 0. -1.
          2    1    6    6  503    0 -0.32750013421E+03 -0.36039693269E+03  0.39425026448E+03  0.62655850329E+03  0.00000000000E+00 0. -1.
         -2    1    6    6    0  503 -0.15508647114E+03 -0.15667045952E+03  0.26674936849E+03  0.34605299018E+03  0.00000000000E+00 0.  1.
<mgrwt>
<rscale>  0 0.40790486E+04</rscale>
<asrwt>0</asrwt>
<pdfrwt beam="1">  1        2 0.41358641E+00 0.40790486E+04</pdfrwt>
<pdfrwt beam="2">  1       -2 0.23804814E+00 0.40790486E+04</pdfrwt>
<totfact> 0.16109223E-01</totfact>
</mgrwt>
</event>
<event>
12    2  0.3561489E-008  0.1157066E+04  0.7818608E-02  0.9151289E-01
          2   -1    0    0  501    0  0.00000000000E+00  0.00000000000E+00  0.48043145864E+03  0.48043145864E+03  0.00000000000E+00 0. -1.
         -2   -1    0    0    0  501 -0.00000000000E+00 -0.00000000000E+00 -0.69666679162E+03  0.69666679162E+03  0.00000000000E+00 0.  1.
         23    2    1    2    0    0  0.16140967982E+02 -0.17634593190E+03 -0.15422011300E+03  0.25204102725E+03  0.91555543900E+02 0.  0.
        254    2    1    2    0    0 -0.16140967982E+02  0.17634593190E+03 -0.62015219983E+02  0.92505722300E+03  0.90582921115E+03 0.  0.
         23    2    4    4    0    0  0.31439733340E+03 -0.23057662990E+02  0.25718926369E+03  0.41655386591E+03  0.89406189783E+02 0.  0.
         23    2    4    4    0    0 -0.33053830138E+03  0.19940359489E+03 -0.31920448368E+03  0.50850335709E+03  0.87560261755E+02 0.  0.
          1    1    3    3  502    0  0.21819067548E+02 -0.16335064540E+01 -0.55712828573E+01  0.22578291447E+02  0.00000000000E+00 0. -1.
         -1    1    3    3    0  502 -0.56780995655E+01 -0.17471242545E+03 -0.14864883014E+03  0.22946273580E+03  0.00000000000E+00 0.  1.
         11    1    5    5    0    0  0.42827053936E+02 -0.33921761578E+02  0.57330139466E+02  0.79193354194E+02  0.00000000000E+00 0. -1.
        -11    1    5    5    0    0  0.27157027947E+03  0.10864098587E+02  0.19985912423E+03  0.33736051172E+03  0.00000000000E+00 0.  1.
          1    1    6    6  503    0 -0.19887269893E+03  0.13384525608E+03 -0.24860197005E+03  0.34535176627E+03  0.00000000000E+00 0. -1.
         -1    1    6    6    0  503 -0.13166560245E+03  0.65558338808E+02 -0.70602513629E+02  0.16315159082E+03  0.00000000000E+00 0.  1.
<mgrwt>
<rscale>  0 0.11570664E+04</rscale>
<asrwt>0</asrwt>
<pdfrwt beam="1">  1        2 0.73912532E-01 0.11570664E+04</pdfrwt>
<pdfrwt beam="2">  1       -2 0.10717951E+00 0.11570664E+04</pdfrwt>
<totfact> 0.44651234E+01</totfact>
</mgrwt>
</event>
<event>
12    2  0.3561489E-008  0.1677310E+04  0.7818608E-02  0.8774412E-01
          2   -1    0    0  501    0  0.00000000000E+00  0.00000000000E+00  0.55013480662E+03  0.55013480662E+03  0.00000000000E+00 0. -1.
         -2   -1    0    0    0  501 -0.00000000000E+00 -0.00000000000E+00 -0.12784911441E+04  0.12784911441E+04  0.00000000000E+00 0.  1.
         23    2    1    2    0    0  0.58084187125E+03  0.13523424792E+03 -0.23888879603E+03  0.64884497531E+03  0.90919546340E+02 0.  0.
        254    2    1    2    0    0 -0.58084187125E+03 -0.13523424792E+03 -0.48946754146E+03  0.11797809754E+04  0.89254641033E+03 0.  0.
         23    2    4    4    0    0  0.21965741603E+02  0.97725153738E+02  0.19282254609E+03  0.23559117836E+03  0.91049269978E+02 0.  0.
         23    2    4    4    0    0 -0.60280761285E+03 -0.23295940166E+03 -0.68229008755E+03  0.94418979705E+03  0.91255182600E+02 0.  0.
          2    1    3    3  502    0  0.96523098128E+02  0.24966760477E+02 -0.50114410241E+01  0.99825658736E+02  0.00000000000E+00 0. -1.
         -2    1    3    3    0  502  0.48431877312E+03  0.11026748745E+03 -0.23387735500E+03  0.54901931657E+03  0.00000000000E+00 0.  1.
         11    1    5    5    0    0  0.68428247661E+01  0.10491416455E+03  0.19190905078E+03  0.21882159387E+03  0.00000000000E+00 0. -1.
        -11    1    5    5    0    0  0.15122916837E+02 -0.71890108149E+01  0.91349531004E+00  0.16769584486E+02  0.00000000000E+00 0.  1.
          1    1    6    6  503    0 -0.48788693149E+03 -0.21117825194E+03 -0.51587791405E+03  0.74078332474E+03  0.00000000000E+00 0. -1.
         -1    1    6    6    0  503 -0.11492068136E+03 -0.21781149717E+02 -0.16641217350E+03  0.20340647231E+03  0.00000000000E+00 0.  1.
<mgrwt>
<rscale>  0 0.16773103E+04</rscale>
<asrwt>0</asrwt>
<pdfrwt beam="1">  1        2 0.84636125E-01 0.16773103E+04</pdfrwt>
<pdfrwt beam="2">  1       -2 0.19669094E+00 0.16773103E+04</pdfrwt>
<totfact> 0.73302068E+00</totfact>
</mgrwt>
</event>
<event>
12    2  0.3561489E-008  0.1383280E+04  0.7818608E-02  0.8966011E-01
          2   -1    0    0  501    0  0.00000000000E+00  0.00000000000E+00  0.11453926249E+04  0.11453926249E+04  0.00000000000E+00 0.  1.
         -2   -1    0    0    0  501 -0.00000000000E+00 -0.00000000000E+00 -0.41764376624E+03  0.41764376624E+03  0.00000000000E+00 0. -1.
         23    2    1    2    0    0 -0.23909873558E+02  0.59120046587E+02 -0.22309076481E+03  0.25119446293E+03  0.96240879589E+02 0.  0.
        254    2    1    2    0    0  0.23909873558E+02 -0.59120046587E+02  0.95083962343E+03  0.13118419282E+04  0.90153557505E+03 0.  0.
         23    2    4    4    0    0 -0.41365787069E+03 -0.15235196379E+02  0.63198861277E+03  0.76085757037E+03  0.90275636428E+02 0.  0.
         23    2    4    4    0    0  0.43756774424E+03 -0.43884850208E+02  0.31885101066E+03  0.55098435781E+03  0.92338424658E+02 0.  0.
          1    1    3    3  502    0  0.10557153207E+02  0.30306952791E+02 -0.19626277407E+03  0.19886940780E+03  0.00000000000E+00 0. -1.
         -1    1    3    3    0  502 -0.34467026765E+02  0.28813093796E+02 -0.26827990736E+02  0.52325055136E+02  0.00000000000E+00 0.  1.
         11    1    5    5    0    0 -0.37610340384E+03 -0.35683541092E+02  0.59222692095E+03  0.70246694682E+03  0.00000000000E+00 0.  1.
        -11    1    5    5    0    0 -0.37554466851E+02  0.20448344714E+02  0.39761691817E+02  0.58390623546E+02  0.00000000000E+00 0. -1.
          1    1    6    6  503    0 -0.13100493131E+01 -0.79744246175E+01  0.11210316610E+02  0.13819510689E+02  0.00000000000E+00 0. -1.
         -1    1    6    6    0  503  0.43887779356E+03 -0.35910425591E+02  0.30764069405E+03  0.53716484712E+03  0.00000000000E+00 0.  1.
<mgrwt>
<rscale>  0 0.13832803E+04</rscale>
<asrwt>0</asrwt>
<pdfrwt beam="1">  1        2 0.17621425E+00 0.13832803E+04</pdfrwt>
<pdfrwt beam="2">  1       -2 0.64252887E-01 0.13832803E+04</pdfrwt>
<totfact> 0.44568695E+01</totfact>
</mgrwt>
</event>
<event>
12    2  0.3561489E-008  0.1484920E+04  0.7818608E-02  0.8894544E-01
         -2   -1    0    0    0  501 -0.00000000000E+00  0.00000000000E+00  0.62518970041E+03  0.62518970041E+03  0.00000000000E+00 0.  1.
          2   -1    0    0  501    0  0.00000000000E+00 -0.00000000000E+00 -0.88172680410E+03  0.88172680410E+03  0.00000000000E+00 0. -1.
         23    2    1    2    0    0  0.30315422748E+02  0.40845449540E+03 -0.58483434880E+02  0.42364997788E+03  0.91131179807E+02 0.  0.
        254    2    1    2    0    0 -0.30315422748E+02 -0.40845449540E+03 -0.19805366881E+03  0.10832665266E+04  0.98310071322E+03 0.  0.
         23    2    4    4    0    0 -0.77602004036E+02 -0.69317068194E+03 -0.29860260753E+03  0.76420840756E+03  0.91341708119E+02 0.  0.
         23    2    4    4    0    0  0.47286581288E+02  0.28471618654E+03  0.10054893872E+03  0.31905811907E+03  0.91589664379E+02 0.  0.
          4    1    3    3  502    0  0.16337636664E+02  0.33196192741E+03 -0.11013245057E+02  0.33254613393E+03  0.00000000000E+00 0. -1.
         -4    1    3    3    0  502  0.13977786084E+02  0.76492567989E+02 -0.47470189823E+02  0.91103843954E+02  0.00000000000E+00 0.  1.
         11    1    5    5    0    0 -0.47394417007E+02 -0.32648743057E+03 -0.18943681018E+03  0.38042946539E+03  0.00000000000E+00 0. -1.
        -11    1    5    5    0    0 -0.30207587030E+02 -0.36668325137E+03 -0.10916579734E+03  0.38377894218E+03  0.00000000000E+00 0.  1.
          4    1    6    6  503    0  0.40973220401E+02  0.12002534131E+03  0.86776457676E+02  0.15367186130E+03  0.00000000000E+00 0. -1.
         -4    1    6    6    0  503  0.63133608872E+01  0.16469084522E+03  0.13772481040E+02  0.16538625777E+03  0.00000000000E+00 0.  1.
<mgrwt>
<rscale>  0 0.14849195E+04</rscale>
<asrwt>0</asrwt>
<pdfrwt beam="1">  1        2 0.13565028E+00 0.14849195E+04</pdfrwt>
<pdfrwt beam="2">  1       -2 0.96183031E-01 0.14849195E+04</pdfrwt>
<totfact> 0.26431664E+01</totfact>
</mgrwt>
</event>
<event>
12    2  0.3561489E-008  0.2875812E+04  0.7818608E-02  0.8280111E-01
         -1   -1    0    0    0  501 -0.00000000000E+00  0.00000000000E+00  0.94347698234E+03  0.94347698234E+03  0.00000000000E+00 0.  1.
          1   -1    0    0  501    0  0.00000000000E+00 -0.00000000000E+00 -0.21914402084E+04  0.21914402084E+04  0.00000000000E+00 0. -1.
         23    2    1    2    0    0 -0.12565450777E+04 -0.82870663654E+02 -0.85249343291E+03  0.15234086439E+04  0.90861234855E+02 0.  0.
        254    2    1    2    0    0  0.12565450777E+04  0.82870663654E+02 -0.39546979319E+03  0.16115085469E+04  0.92454873326E+03 0.  0.
         23    2    4    4    0    0  0.13599137361E+04  0.89333971523E+02 -0.21277430240E+03  0.13824289113E+04  0.92145878436E+02 0.  0.
         23    2    4    4    0    0 -0.10336865841E+03 -0.64633078683E+01 -0.18269549079E+03  0.22907963558E+03  0.91504006432E+02 0.  0.
          1    1    3    3  502    0 -0.67202612529E+03 -0.15330169878E+02 -0.49660316283E+03  0.83574447562E+03  0.00000000000E+00 0. -1.
         -1    1    3    3    0  502 -0.58451895239E+03 -0.67540493776E+02 -0.35589027007E+03  0.68766416828E+03  0.00000000000E+00 0.  1.
         11    1    5    5    0    0  0.84016127567E+03  0.20908410142E+02 -0.10168477356E+03  0.84655060329E+03  0.00000000000E+00 0.  1.
        -11    1    5    5    0    0  0.51975246043E+03  0.68425561381E+02 -0.11108952884E+03  0.53587830800E+03  0.00000000000E+00 0. -1.
          3    1    6    6  503    0 -0.65448529993E+02  0.25739399461E+02 -0.47092257433E+02  0.84638687803E+02  0.00000000000E+00 0. -1.
         -3    1    6    6    0  503 -0.37920128421E+02 -0.32202707329E+02 -0.13560323336E+03  0.14444094778E+03  0.00000000000E+00 0.  1.
<mgrwt>
<rscale>  0 0.28758118E+04</rscale>
<asrwt>0</asrwt>
<pdfrwt beam="1">  1        1 0.33714465E+00 0.28758118E+04</pdfrwt>
<pdfrwt beam="2">  1       -1 0.14515030E+00 0.28758118E+04</pdfrwt>
<totfact> 0.72350946E-01</totfact>
</mgrwt>
</event>
<event>
12    2  0.3561489E-008  0.1480458E+04  0.7818608E-02  0.8897553E-01
         -2   -1    0    0    0  501 -0.00000000000E+00  0.00000000000E+00  0.31055991917E+03  0.31055991917E+03  0.00000000000E+00 0.  1.
          2   -1    0    0  501    0  0.00000000000E+00 -0.00000000000E+00 -0.17643584595E+04  0.17643584595E+04  0.00000000000E+00 0. -1.
         23    2    1    2    0    0  0.28376609417E+03 -0.10191541427E+03  0.35160137250E+02  0.31153891517E+03  0.70073622316E+02 0.  0.
        254    2    1    2    0    0 -0.28376609417E+03  0.10191541427E+03 -0.14889586775E+04  0.17633794635E+04  0.89532074747E+03 0.  0.
         23    2    4    4    0    0 -0.97861901074E+02 -0.32753974621E+03 -0.10795728688E+04  0.11360431199E+04  0.90868884483E+02 0.  0.
         23    2    4    4    0    0 -0.18590419310E+03  0.42945516048E+03 -0.40938580871E+03  0.62733634355E+03  0.83438861923E+02 0.  0.
          2    1    3    3  502    0  0.28314473148E+02 -0.62495504024E+01 -0.17297303776E+02  0.33763337925E+02  0.00000000000E+00 0. -1.
         -2    1    3    3    0  502  0.25545162103E+03 -0.95665863868E+02  0.52457441026E+02  0.27777557724E+03  0.00000000000E+00 0.  1.
         11    1    5    5    0    0 -0.57526114868E+02 -0.27943686578E+03 -0.79537296387E+03  0.84499252512E+03  0.00000000000E+00 0. -1.
        -11    1    5    5    0    0 -0.40335786207E+02 -0.48102880436E+02 -0.28419990495E+03  0.29105059479E+03  0.00000000000E+00 0.  1.
          1    1    6    6  503    0 -0.83223239783E+02  0.22242459188E+03 -0.26013757889E+03  0.35223623701E+03  0.00000000000E+00 0. -1.
         -1    1    6    6    0  503 -0.10268095332E+03  0.20703056860E+03 -0.14924822983E+03  0.27510010654E+03  0.00000000000E+00 0.  1.
<mgrwt>
<rscale>  0 0.14804581E+04</rscale>
<asrwt>0</asrwt>
<pdfrwt beam="1">  1        2 0.27143976E+00 0.14804581E+04</pdfrwt>
<pdfrwt beam="2">  1       -2 0.47778449E-01 0.14804581E+04</pdfrwt>
<totfact> 0.36269992E+01</totfact>
</mgrwt>
</event>
<event>
12    2  0.3561489E-008  0.2278587E+04  0.7818608E-02  0.8486412E-01
         -2   -1    0    0    0  501 -0.00000000000E+00  0.00000000000E+00  0.12342104403E+04  0.12342104403E+04  0.00000000000E+00 0.  1.
          2   -1    0    0  501    0  0.00000000000E+00 -0.00000000000E+00 -0.10516761894E+04  0.10516761894E+04  0.00000000000E+00 0. -1.
         23    2    1    2    0    0 -0.93909881133E+03  0.17694985279E+03  0.20937415670E+03  0.98279184164E+03  0.93938483363E+02 0.  0.
        254    2    1    2    0    0  0.93909881133E+03 -0.17694985279E+03 -0.26839905793E+02  0.13030947880E+04  0.88550427338E+03 0.  0.
         23    2    4    4    0    0  0.83308115064E+03  0.90935201980E+02 -0.30118955006E+03  0.89494574631E+03  0.88990613398E+02 0.  0.
         23    2    4    4    0    0  0.10601766069E+03 -0.26788505477E+03  0.27434964426E+03  0.40814904170E+03  0.91190821837E+02 0.  0.
          1    1    3    3  502    0 -0.64773328807E+03  0.13401759585E+03  0.18727378368E+03  0.68745225181E+03  0.00000000000E+00 0. -1.
         -1    1    3    3    0  502 -0.29136552327E+03  0.42932256945E+02  0.22100373021E+02  0.29533958983E+03  0.00000000000E+00 0.  1.
         11    1    5    5    0    0  0.76455665466E+03  0.75114421328E+02 -0.24975123991E+03  0.80781479084E+03  0.00000000000E+00 0.  1.
        -11    1    5    5    0    0  0.68524495984E+02  0.15820780652E+02 -0.51438310150E+02  0.87130955471E+02  0.00000000000E+00 0. -1.
          1    1    6    6  503    0  0.63526661248E+02 -0.23997427625E+03  0.20374939037E+03  0.32114965986E+03  0.00000000000E+00 0.  1.
         -1    1    6    6    0  503  0.42490999445E+02 -0.27910778523E+02  0.70600253898E+02  0.86999381849E+02  0.00000000000E+00 0. -1.
<mgrwt>
<rscale>  0 0.22785870E+04</rscale>
<asrwt>0</asrwt>
<pdfrwt beam="1">  1        2 0.16179634E+00 0.22785870E+04</pdfrwt>
<pdfrwt beam="2">  1       -2 0.18987853E+00 0.22785870E+04</pdfrwt>
<totfact> 0.32928822E+00</totfact>
</mgrwt>
</event>
<event>
12    2  0.3561489E-008  0.1723866E+04  0.7818608E-02  0.8747869E-01
         -2   -1    0    0    0  501 -0.00000000000E+00  0.00000000000E+00  0.51274949957E+03  0.51274949957E+03  0.00000000000E+00 0.  1.
          2   -1    0    0  501    0  0.00000000000E+00 -0.00000000000E+00 -0.14489109131E+04  0.14489109131E+04  0.00000000000E+00 0. -1.
         23    2    1    2    0    0  0.25032199807E+03 -0.41714285934E+03  0.98850360904E+02  0.50476861525E+03  0.91382127799E+02 0.  0.
        254    2    1    2    0    0 -0.25032199807E+03  0.41714285934E+03 -0.10350117745E+04  0.14568917974E+04  0.90256028518E+03 0.  0.
         23    2    4    4    0    0  0.27305492860E+03 -0.76577792818E+02 -0.26682024820E+03  0.40051620199E+03  0.93792488073E+02 0.  0.
         23    2    4    4    0    0 -0.52337692667E+03  0.49372065215E+03 -0.76819152626E+03  0.10563755955E+04  0.90153690617E+02 0.  0.
          3    1    3    3  502    0  0.96732207126E+02 -0.87940091131E+02  0.12132749005E+02  0.13129273827E+03  0.00000000000E+00 0. -1.
         -3    1    3    3    0  502  0.15358979094E+03 -0.32920276821E+03  0.86717611899E+02  0.37347587698E+03  0.00000000000E+00 0.  1.
         11    1    5    5    0    0  0.12429827816E+01 -0.20918530961E+02 -0.14439396534E+02  0.25448499288E+02  0.00000000000E+00 0.  1.
        -11    1    5    5    0    0  0.27181194582E+03 -0.55659261857E+02 -0.25238085166E+03  0.37506770270E+03  0.00000000000E+00 0. -1.
          4    1    6    6  503    0 -0.18380816466E+03  0.21144854455E+03 -0.24929329825E+03  0.37502410182E+03  0.00000000000E+00 0.  1.
         -4    1    6    6    0  503 -0.33956876201E+03  0.28227210761E+03 -0.51889822801E+03  0.68135149365E+03  0.00000000000E+00 0. -1.
<mgrwt>
<rscale>  0 0.17238658E+04</rscale>
<asrwt>0</asrwt>
<pdfrwt beam="1">  1        2 0.22290937E+00 0.17238658E+04</pdfrwt>
<pdfrwt beam="2">  1       -2 0.78884539E-01 0.17238658E+04</pdfrwt>
<totfact> 0.18386169E+01</totfact>
</mgrwt>
</event>
<event>
12    2  0.3561489E-008  0.1152749E+04  0.7818608E-02  0.9155251E-01
          2   -1    0    0  501    0  0.00000000000E+00  0.00000000000E+00  0.19584924237E+04  0.19584924237E+04  0.00000000000E+00 0. -1.
         -2   -1    0    0    0  501 -0.00000000000E+00 -0.00000000000E+00 -0.16962405911E+03  0.16962405911E+03  0.00000000000E+00 0.  1.
         23    2    1    2    0    0  0.18417459163E+03  0.75110774009E+02  0.13303931800E+03  0.25545667498E+03  0.89424516122E+02 0.  0.
        254    2    1    2    0    0 -0.18417459163E+03 -0.75110774009E+02  0.16558290466E+04  0.18726598079E+04  0.85177638836E+03 0.  0.
         23    2    4    4    0    0 -0.30463824742E+03  0.18098528653E+01  0.16709660389E+04  0.17011503147E+04  0.94747838606E+02 0.  0.
         23    2    4    4    0    0  0.12046365579E+03 -0.76920626874E+02 -0.15136992237E+02  0.17150949313E+03  0.93584734310E+02 0.  0.
          3    1    3    3  502    0  0.77175810418E+02  0.21720504066E+02  0.10591788090E+03  0.13284006740E+03  0.00000000000E+00 0. -1.
         -3    1    3    3    0  502  0.10699878122E+03  0.53390269943E+02  0.27121437099E+02  0.12261660759E+03  0.00000000000E+00 0.  1.
         11    1    5    5    0    0 -0.14408793889E+03 -0.35499167563E+02  0.63182639342E+03  0.64901934983E+03  0.00000000000E+00 0. -1.
        -11    1    5    5    0    0 -0.16055030853E+03  0.37309020429E+02  0.10391396454E+04  0.10521309649E+04  0.00000000000E+00 0.  1.
          4    1    6    6  503    0  0.76866343357E+02  0.59927714406E+01 -0.91655467224E+01  0.77642483843E+02  0.00000000000E+00 0. -1.
         -4    1    6    6    0  503  0.43597312430E+02 -0.82913398314E+02 -0.59714455149E+01  0.93867009288E+02  0.00000000000E+00 0.  1.
<mgrwt>
<rscale>  0 0.11527488E+04</rscale>
<asrwt>0</asrwt>
<pdfrwt beam="1">  1        2 0.30130651E+00 0.11527488E+04</pdfrwt>
<pdfrwt beam="2">  1       -2 0.26096010E-01 0.11527488E+04</pdfrwt>
<totfact> 0.92647604E+01</totfact>
</mgrwt>
</event>
<event>
12    2  0.3561489E-008  0.1939517E+04  0.7818608E-02  0.8635432E-01
          1   -1    0    0  501    0  0.00000000000E+00  0.00000000000E+00  0.20743861458E+04  0.20743861458E+04  0.00000000000E+00 0. -1.
         -1   -1    0    0    0  501 -0.00000000000E+00 -0.00000000000E+00 -0.45335424272E+03  0.45335424272E+03  0.00000000000E+00 0.  1.
         23    2    1    2    0    0  0.46780440063E+03  0.23251885522E+03  0.13538435638E+04  0.14536552743E+04  0.85529446624E+02 0.  0.
        254    2    1    2    0    0 -0.46780440063E+03 -0.23251885522E+03  0.26718833936E+03  0.10740851142E+04  0.89964617967E+03 0.  0.
         23    2    4    4    0    0 -0.38146888974E+03  0.27370442152E+03 -0.21681105120E+02  0.47773065688E+03  0.85579705589E+02 0.  0.
         23    2    4    4    0    0 -0.86335510890E+02 -0.50622327674E+03  0.28886944448E+03  0.59635445733E+03  0.92072017798E+02 0.  0.
          2    1    3    3  502    0  0.31847510247E+03  0.19280429778E+03  0.88912094891E+03  0.96391698290E+03  0.00000000000E+00 0. -1.
         -2    1    3    3    0  502  0.14932929816E+03  0.39714557443E+02  0.46472261484E+03  0.48973829144E+03  0.00000000000E+00 0.  1.
         11    1    5    5    0    0 -0.20167934217E+03  0.16516582631E+03 -0.51180687829E+02  0.26565724166E+03  0.00000000000E+00 0. -1.
        -11    1    5    5    0    0 -0.17978954757E+03  0.10853859521E+03  0.29499582709E+02  0.21207341523E+03  0.00000000000E+00 0.  1.
          3    1    6    6  503    0  0.52073320456E+01 -0.11890407999E+03  0.10169243637E+03  0.15654599376E+03  0.00000000000E+00 0. -1.
         -3    1    6    6    0  503 -0.91542842936E+02 -0.38731919675E+03  0.18717700811E+03  0.43980846357E+03  0.00000000000E+00 0.  1.
<mgrwt>
<rscale>  0 0.19395172E+04</rscale>
<asrwt>0</asrwt>
<pdfrwt beam="1">  1        1 0.31913632E+00 0.19395172E+04</pdfrwt>
<pdfrwt beam="2">  1       -1 0.69746808E-01 0.19395172E+04</pdfrwt>
<totfact> 0.51418671E+00</totfact>
</mgrwt>
</event>
<event>
12    2  0.3561489E-008  0.1564307E+04  0.7818608E-02  0.8842781E-01
          2   -1    0    0  501    0  0.00000000000E+00  0.00000000000E+00  0.20830682320E+04  0.20830682320E+04  0.00000000000E+00 0.  1.
         -2   -1    0    0    0  501 -0.00000000000E+00 -0.00000000000E+00 -0.29368414778E+03  0.29368414778E+03  0.00000000000E+00 0. -1.
         23    2    1    2    0    0  0.89110797303E+02  0.50770628975E+03  0.67226239825E+03  0.85183304216E+03  0.89310630770E+02 0.  0.
        254    2    1    2    0    0 -0.89110797303E+02 -0.50770628975E+03  0.11171216860E+04  0.15249193376E+04  0.90095045044E+03 0.  0.
         23    2    4    4    0    0  0.18137782776E+03 -0.53022593717E+03  0.26407388969E+03  0.62618977804E+03  0.91329940657E+02 0.  0.
         23    2    4    4    0    0 -0.27048862506E+03  0.22519647418E+02  0.85304779629E+03  0.89872955959E+03  0.79706008045E+02 0.  0.
          3    1    3    3  502    0  0.51593022368E+01  0.10707804712E+02  0.48194239580E+02  0.49638293786E+02  0.00000000000E+00 0. -1.
         -3    1    3    3    0  502  0.83951495066E+02  0.49699848504E+03  0.62406815867E+03  0.80219474837E+03  0.00000000000E+00 0.  1.
         11    1    5    5    0    0  0.14004042446E+03 -0.27774119227E+03  0.12742681234E+03  0.33613848763E+03  0.00000000000E+00 0.  1.
        -11    1    5    5    0    0  0.41337403294E+02 -0.25248474490E+03  0.13664707735E+03  0.29005129041E+03  0.00000000000E+00 0. -1.
          3    1    6    6  503    0 -0.17166234145E+03  0.52016674805E+02  0.51886459151E+03  0.54899376886E+03  0.00000000000E+00 0. -1.
         -3    1    6    6    0  503 -0.98826283615E+02 -0.29497027387E+02  0.33418320478E+03  0.34973579073E+03  0.00000000000E+00 0.  1.
<mgrwt>
<rscale>  0 0.15643070E+04</rscale>
<asrwt>0</asrwt>
<pdfrwt beam="1">  1        2 0.32047203E+00 0.15643070E+04</pdfrwt>
<pdfrwt beam="2">  1       -2 0.45182178E-01 0.15643070E+04</pdfrwt>
<totfact> 0.26837189E+01</totfact>
</mgrwt>
</event>
<event>
12    2  0.3561489E-008  0.2455592E+04  0.7818608E-02  0.8418979E-01
          1   -1    0    0  501    0  0.00000000000E+00  0.00000000000E+00  0.42130336411E+04  0.42130336411E+04  0.00000000000E+00 0. -1.
         -1   -1    0    0    0  501 -0.00000000000E+00 -0.00000000000E+00 -0.35781413584E+03  0.35781413584E+03  0.00000000000E+00 0.  1.
         23    2    1    2    0    0 -0.49106581622E+03  0.99903801514E+02  0.34212632299E+04  0.34589833578E+04  0.91637197403E+02 0.  0.
        254    2    1    2    0    0  0.49106581622E+03 -0.99903801514E+02  0.43395627536E+03  0.11118644191E+04  0.89263544191E+03 0.  0.
         23    2    4    4    0    0  0.19055158800E+03  0.19546919949E+03  0.58610967030E+03  0.65381257536E+03  0.97099034197E+02 0.  0.
         23    2    4    4    0    0  0.30051422822E+03 -0.29537300100E+03 -0.15215339494E+03  0.45805184375E+03  0.95429685572E+02 0.  0.
          4    1    3    3  502    0 -0.12893116748E+03  0.22170676176E+02  0.11924178682E+04  0.11995729062E+04  0.00000000000E+00 0. -1.
         -4    1    3    3    0  502 -0.36213464875E+03  0.77733125338E+02  0.22288453616E+04  0.22594104516E+04  0.00000000000E+00 0.  1.
         11    1    5    5    0    0  0.17470154635E+03  0.17033328699E+03  0.42564620181E+03  0.49062077827E+03  0.00000000000E+00 0. -1.
        -11    1    5    5    0    0  0.15850041646E+02  0.25135912495E+02  0.16046346849E+03  0.16319179709E+03  0.00000000000E+00 0.  1.
          4    1    6    6  503    0  0.25868196446E+03 -0.20539797172E+03 -0.13735380882E+03  0.35773000199E+03  0.00000000000E+00 0. -1.
         -4    1    6    6    0  503  0.41832263762E+02 -0.89975029286E+02 -0.14799586120E+02  0.10032184177E+03  0.00000000000E+00 0.  1.
<mgrwt>
<rscale>  0 0.24555920E+04</rscale>
<asrwt>0</asrwt>
<pdfrwt beam="1">  1        1 0.64815899E+00 0.24555920E+04</pdfrwt>
<pdfrwt beam="2">  1       -1 0.55048332E-01 0.24555920E+04</pdfrwt>
<totfact> 0.18368115E-01</totfact>
</mgrwt>
</event>
<event>
12    2  0.3561489E-008  0.1423470E+04  0.7818608E-02  0.8937003E-01
         -2   -1    0    0    0  501 -0.00000000000E+00  0.00000000000E+00  0.34316324466E+03  0.34316324466E+03  0.00000000000E+00 0.  1.
          2   -1    0    0  501    0  0.00000000000E+00 -0.00000000000E+00 -0.14761692058E+04  0.14761692058E+04  0.00000000000E+00 0. -1.
         23    2    1    2    0    0 -0.30001160265E+03 -0.10930214139E+03 -0.66792093521E+03  0.74643321391E+03  0.95342788420E+02 0.  0.
        254    2    1    2    0    0  0.30001160265E+03  0.10930214139E+03 -0.46508502598E+03  0.10728992366E+04  0.91260877196E+03 0.  0.
         23    2    4    4    0    0  0.45174665655E+02 -0.13529955295E+03  0.23190100076E+03  0.28598057510E+03  0.87521972870E+02 0.  0.
         23    2    4    4    0    0  0.25483693700E+03  0.24460169434E+03 -0.69698602674E+03  0.78691866149E+03  0.93164397701E+02 0.  0.
          2    1    3    3  502    0 -0.22266538158E+03 -0.51524031436E+02 -0.38774206469E+03  0.45008722121E+03  0.00000000000E+00 0. -1.
         -2    1    3    3    0  502 -0.77346221074E+02 -0.57778109954E+02 -0.28017887052E+03  0.29634599270E+03  0.00000000000E+00 0.  1.
         11    1    5    5    0    0 -0.38145807985E+01  0.10189800327E+02  0.48755923442E+01  0.11922854443E+02  0.00000000000E+00 0.  1.
        -11    1    5    5    0    0  0.48989246453E+02 -0.14548935327E+03  0.22702540842E+03  0.27405772066E+03  0.00000000000E+00 0. -1.
          2    1    6    6  503    0  0.15521248263E+02  0.46922530770E+02 -0.15080027703E+03  0.15869264820E+03  0.00000000000E+00 0.  1.
         -2    1    6    6    0  503  0.23931568874E+03  0.19767916357E+03 -0.54618574971E+03  0.62822601329E+03  0.00000000000E+00 0. -1.
<mgrwt>
<rscale>  0 0.14234704E+04</rscale>
<asrwt>0</asrwt>
<pdfrwt beam="1">  1        2 0.22710295E+00 0.14234704E+04</pdfrwt>
<pdfrwt beam="2">  1       -2 0.52794345E-01 0.14234704E+04</pdfrwt>
<totfact> 0.43050684E+01</totfact>
</mgrwt>
</event>
<event>
12    2  0.3561489E-008  0.1444521E+04  0.7818608E-02  0.8922208E-01
         -1   -1    0    0    0  501 -0.00000000000E+00  0.00000000000E+00  0.92965618944E+03  0.92965618944E+03  0.00000000000E+00 0.  1.
          1   -1    0    0  501    0  0.00000000000E+00 -0.00000000000E+00 -0.56113205170E+03  0.56113205170E+03  0.00000000000E+00 0. -1.
         23    2    1    2    0    0 -0.24987514151E+03 -0.34290621492E+03  0.22657367984E+03  0.48948392987E+03  0.90755862770E+02 0.  0.
        254    2    1    2    0    0  0.24987514151E+03  0.34290621492E+03  0.14195045791E+03  0.10013043113E+04  0.89578911173E+03 0.  0.
         23    2    4    4    0    0  0.22820378142E+03  0.58063850719E+03 -0.11128207076E+03  0.64031112110E+03  0.91632912493E+02 0.  0.
         23    2    4    4    0    0  0.21671360087E+02 -0.23773229226E+03  0.25323252866E+03  0.36099319017E+03  0.95932680276E+02 0.  0.
          3    1    3    3  502    0 -0.14403961234E+03 -0.21669692307E+03  0.18600966693E+03  0.31985084427E+03  0.00000000000E+00 0. -1.
         -3    1    3    3    0  502 -0.10583552917E+03 -0.12620929186E+03  0.40564012903E+02  0.16963308560E+03  0.00000000000E+00 0.  1.
         11    1    5    5    0    0  0.11013005301E+03  0.19605498187E+03 -0.71914842231E+02  0.23608881597E+03  0.00000000000E+00 0. -1.
        -11    1    5    5    0    0  0.11807372841E+03  0.38458352532E+03 -0.39367228526E+02  0.40422230513E+03  0.00000000000E+00 0.  1.
          1    1    6    6  503    0 -0.38002286340E+02 -0.98891314352E+02  0.97230269496E+02  0.14379635297E+03  0.00000000000E+00 0. -1.
         -1    1    6    6    0  503  0.59673646427E+02 -0.13884097791E+03  0.15600225917E+03  0.21719683720E+03  0.00000000000E+00 0.  1.
<mgrwt>
<rscale>  0 0.14445205E+04</rscale>
<asrwt>0</asrwt>
<pdfrwt beam="1">  1        1 0.86328008E-01 0.14445205E+04</pdfrwt>
<pdfrwt beam="2">  1       -1 0.14302403E+00 0.14445205E+04</pdfrwt>
<totfact> 0.14518174E+01</totfact>
</mgrwt>
</event>
<event>
12    2  0.3561489E-008  0.1683433E+04  0.7818608E-02  0.8770870E-01
         -2   -1    0    0    0  501 -0.00000000000E+00  0.00000000000E+00  0.19285072402E+03  0.19285072402E+03  0.00000000000E+00 0.  1.
          2   -1    0    0  501    0  0.00000000000E+00 -0.00000000000E+00 -0.36737554348E+04  0.36737554348E+04  0.00000000000E+00 0. -1.
         23    2    1    2    0    0 -0.21919743531E+03  0.43709288109E+03 -0.46291770583E+03  0.67944507841E+03  0.90857635092E+02 0.  0.
        254    2    1    2    0    0  0.21919743531E+03 -0.43709288109E+03 -0.30179870050E+04  0.31871610804E+04  0.90036242039E+03 0.  0.
         23    2    4    4    0    0 -0.24865979192E+03 -0.34104607746E+03 -0.21454305135E+04  0.21885941735E+04  0.94489412195E+02 0.  0.
         23    2    4    4    0    0  0.46785722724E+03 -0.96046803630E+02 -0.87255649153E+03  0.99856690696E+03  0.87553773249E+02 0.  0.
          2    1    3    3  502    0 -0.17671102019E+03  0.39600280179E+03 -0.43447651037E+03  0.61385245926E+03  0.00000000000E+00 0.  1.
         -2    1    3    3    0  502 -0.42486415124E+02  0.41090079297E+02 -0.28441195461E+02  0.65592619142E+02  0.00000000000E+00 0. -1.
         11    1    5    5    0    0 -0.25366895516E+03 -0.33908008633E+03 -0.21372804358E+04  0.21788278741E+04  0.00000000000E+00 0. -1.
        -11    1    5    5    0    0  0.50091632330E+01 -0.19659911303E+01 -0.81500776691E+01  0.97662993724E+01  0.00000000000E+00 0.  1.
          1    1    6    6  503    0  0.44907172440E+03 -0.82590508455E+02 -0.85591235049E+03  0.97008894307E+03  0.00000000000E+00 0. -1.
         -1    1    6    6    0  503  0.18785502834E+02 -0.13456295174E+02 -0.16644141032E+02  0.28477963889E+02  0.00000000000E+00 0.  1.
<mgrwt>
<rscale>  0 0.16834327E+04</rscale>
<asrwt>0</asrwt>
<pdfrwt beam="1">  1        2 0.56519309E+00 0.16834327E+04</pdfrwt>
<pdfrwt beam="2">  1       -2 0.29669345E-01 0.16834327E+04</pdfrwt>
<totfact> 0.61641853E+00</totfact>
</mgrwt>
</event>
<event>
12    2  0.3561489E-008  0.2344398E+04  0.7818608E-02  0.8460618E-01
          2   -1    0    0  501    0  0.00000000000E+00  0.00000000000E+00  0.34581210047E+04  0.34581210047E+04  0.00000000000E+00 0. -1.
         -2   -1    0    0    0  501 -0.00000000000E+00 -0.00000000000E+00 -0.39734034931E+03  0.39734034931E+03  0.00000000000E+00 0.  1.
         23    2    1    2    0    0  0.15334219430E+03  0.77735809368E+03  0.30728582983E+03  0.85443166910E+03  0.88484244866E+02 0.  0.
        254    2    1    2    0    0 -0.15334219430E+03 -0.77735809368E+03  0.27534948255E+04  0.30010296849E+04  0.89255026803E+03 0.  0.
         23    2    4    4    0    0  0.92110783751E+00 -0.78884653734E+03  0.26996827063E+04  0.28140559050E+04  0.91346668818E+02 0.  0.
         23    2    4    4    0    0 -0.15426330214E+03  0.11488443663E+02  0.53812119188E+02  0.18697377983E+03  0.90190351193E+02 0.  0.
          1    1    3    3  502    0 -0.18775138004E+01  0.10018725401E+03  0.61130273229E+02  0.11737939014E+03  0.00000000000E+00 0. -1.
         -1    1    3    3    0  502  0.15521970810E+03  0.67717083967E+03  0.24615555660E+03  0.73705227897E+03  0.00000000000E+00 0.  1.
         11    1    5    5    0    0 -0.23532177898E+02 -0.10278224015E+03  0.29390554349E+03  0.31224737114E+03  0.00000000000E+00 0.  1.
        -11    1    5    5    0    0  0.24453285736E+02 -0.68606429720E+03  0.24057771628E+04  0.25018085339E+04  0.00000000000E+00 0. -1.
          1    1    6    6  503    0 -0.23273080516E+02  0.26206045011E+02 -0.15181146034E+02  0.38195029346E+02  0.00000000000E+00 0.  1.
         -1    1    6    6    0  503 -0.13099022162E+03 -0.14717601348E+02  0.68993265221E+02  0.14877875049E+03  0.00000000000E+00 0. -1.
<mgrwt>
<rscale>  0 0.23443984E+04</rscale>
<asrwt>0</asrwt>
<pdfrwt beam="1">  1        2 0.53201860E+00 0.23443984E+04</pdfrwt>
<pdfrwt beam="2">  1       -2 0.61129287E-01 0.23443984E+04</pdfrwt>
<totfact> 0.19596126E+00</totfact>
</mgrwt>
</event>
<event>
12    2  0.3561489E-008  0.1840211E+04  0.7818608E-02  0.8685203E-01
         -2   -1    0    0    0  501 -0.00000000000E+00  0.00000000000E+00  0.65996468291E+03  0.65996468291E+03  0.00000000000E+00 0. -1.
          2   -1    0    0  501    0  0.00000000000E+00 -0.00000000000E+00 -0.12827868750E+04  0.12827868750E+04  0.00000000000E+00 0.  1.
         23    2    1    2    0    0 -0.13339330890E+03  0.10587718122E+03 -0.95093800198E+03  0.97013201356E+03  0.88709006112E+02 0.  0.
        254    2    1    2    0    0  0.13339330890E+03 -0.10587718122E+03  0.32811580992E+03  0.97261954431E+03  0.89962494457E+03 0.  0.
         23    2    4    4    0    0 -0.24414020778E+03 -0.35915936996E+03  0.22666414384E+03  0.49784111142E+03  0.88708759602E+02 0.  0.
         23    2    4    4    0    0  0.37753351668E+03  0.25328218874E+03  0.10145166608E+03  0.47477843289E+03  0.91862377711E+02 0.  0.
          1    1    3    3  502    0  0.50464670402E+01 -0.35473809520E+01 -0.14366338277E+03  0.14379575199E+03  0.00000000000E+00 0. -1.
         -1    1    3    3    0  502 -0.13843977594E+03  0.10942456217E+03 -0.80727461921E+03  0.82633626157E+03  0.00000000000E+00 0.  1.
         11    1    5    5    0    0 -0.10307849459E+03 -0.14787676835E+03  0.45781934121E+02  0.18598037573E+03  0.00000000000E+00 0.  1.
        -11    1    5    5    0    0 -0.14106171319E+03 -0.21128260161E+03  0.18088220972E+03  0.31186073569E+03  0.00000000000E+00 0. -1.
          4    1    6    6  503    0  0.32449482642E+03  0.22539585185E+03  0.54885276698E+02  0.39888917759E+03  0.00000000000E+00 0. -1.
         -4    1    6    6    0  503  0.53038690266E+02  0.27886336893E+02  0.46566389380E+02  0.75889255302E+02  0.00000000000E+00 0.  1.
<mgrwt>
<rscale>  0 0.18402109E+04</rscale>
<asrwt>0</asrwt>
<pdfrwt beam="1">  1        2 0.19735182E+00 0.18402109E+04</pdfrwt>
<pdfrwt beam="2">  1       -2 0.10153303E+00 0.18402109E+04</pdfrwt>
<totfact> 0.12685629E+01</totfact>
</mgrwt>
</event>
<event>
12    2  0.3561489E-008  0.3373111E+04  0.7818608E-02  0.8144537E-01
          2   -1    0    0  501    0  0.00000000000E+00  0.00000000000E+00  0.11957885899E+04  0.11957885899E+04  0.00000000000E+00 0. -1.
         -2   -1    0    0    0  501 -0.00000000000E+00 -0.00000000000E+00 -0.23787398198E+04  0.23787398198E+04  0.00000000000E+00 0.  1.
         23    2    1    2    0    0 -0.12933576023E+04  0.30720893298E+02 -0.14841412727E+04  0.19709887978E+04  0.91672586332E+02 0.  0.
        254    2    1    2    0    0  0.12933576023E+04 -0.30720893298E+02  0.30119004276E+03  0.16035396119E+04  0.89827956919E+03 0.  0.
         23    2    4    4    0    0  0.91193793921E+03  0.11598296022E+03 -0.20547236212E+03  0.94632734658E+03  0.90739755660E+02 0.  0.
         23    2    4    4    0    0  0.38141966310E+03 -0.14670385352E+03  0.50666240488E+03  0.65721226535E+03  0.90654228639E+02 0.  0.
          2    1    3    3  502    0 -0.12581566357E+04  0.17395017786E+02 -0.14265000867E+04  0.19021469985E+04  0.00000000000E+00 0. -1.
         -2    1    3    3    0  502 -0.35200966590E+02  0.13325875512E+02 -0.57641186016E+02  0.68841799311E+02  0.00000000000E+00 0.  1.
         11    1    5    5    0    0  0.44365466724E+03  0.93506678511E+02 -0.12821909433E+03  0.47118265975E+03  0.00000000000E+00 0. -1.
        -11    1    5    5    0    0  0.46828327197E+03  0.22476281712E+02 -0.77253267786E+02  0.47514468683E+03  0.00000000000E+00 0.  1.
          2    1    6    6  503    0  0.11730459653E+02 -0.68831421246E+01  0.56698931304E+02  0.58307376379E+02  0.00000000000E+00 0. -1.
         -2    1    6    6    0  503  0.36968920345E+03 -0.13982071140E+03  0.44996347357E+03  0.59890488897E+03  0.00000000000E+00 0.  1.
<mgrwt>
<rscale>  0 0.33731113E+04</rscale>
<asrwt>0</asrwt>
<pdfrwt beam="1">  1        2 0.18396748E+00 0.33731113E+04</pdfrwt>
<pdfrwt beam="2">  1       -2 0.36595997E+00 0.33731113E+04</pdfrwt>
<totfact> 0.19478249E-01</totfact>
</mgrwt>
</event>
<event>
12    2  0.3561489E-008  0.1696381E+04  0.7818608E-02  0.8763431E-01
         -1   -1    0    0    0  501 -0.00000000000E+00  0.00000000000E+00  0.23516447722E+03  0.23516447722E+03  0.00000000000E+00 0.  1.
          1   -1    0    0  501    0  0.00000000000E+00 -0.00000000000E+00 -0.30592513062E+04  0.30592513062E+04  0.00000000000E+00 0. -1.
         23    2    1    2    0    0  0.19747338888E+03 -0.86781705917E+01  0.90369723788E+02  0.23490523437E+03  0.89122007357E+02 0.  0.
        254    2    1    2    0    0 -0.19747338888E+03  0.86781705917E+01 -0.29144565528E+04  0.30595105490E+04  0.90965749145E+03 0.  0.
         23    2    4    4    0    0 -0.16623543454E+03 -0.16096849211E+03 -0.15749779127E+03  0.29591867910E+03  0.96006433325E+02 0.  0.
         23    2    4    4    0    0 -0.31237954345E+02  0.16964666270E+03 -0.27569587615E+04  0.27635918699E+04  0.82840877706E+02 0.  0.
          3    1    3    3  502    0  0.42803084650E+01 -0.19290126613E+02 -0.31435357678E+01  0.20007794542E+02  0.00000000000E+00 0. -1.
         -3    1    3    3    0  502  0.19319308042E+03  0.10611956022E+02  0.93513259555E+02  0.21489743983E+03  0.00000000000E+00 0.  1.
         11    1    5    5    0    0 -0.16847816392E+03 -0.16948891914E+03 -0.15891656595E+03  0.28699453020E+03  0.00000000000E+00 0.  1.
        -11    1    5    5    0    0  0.22427293808E+01  0.85204270380E+01  0.14187746874E+01  0.89241489005E+01  0.00000000000E+00 0. -1.
          1    1    6    6  503    0 -0.18960340748E+02 -0.11305815461E+01 -0.19693628327E+03  0.19785012611E+03  0.00000000000E+00 0. -1.
         -1    1    6    6    0  503 -0.12277613597E+02  0.17077724424E+03 -0.25600224782E+04  0.25657417438E+04  0.00000000000E+00 0.  1.
<mgrwt>
<rscale>  0 0.16963811E+04</rscale>
<asrwt>0</asrwt>
<pdfrwt beam="1">  1        1 0.47065405E+00 0.16963811E+04</pdfrwt>
<pdfrwt beam="2">  1       -1 0.36179150E-01 0.16963811E+04</pdfrwt>
<totfact> 0.37804501E+00</totfact>
</mgrwt>
</event>
<event>
12    2  0.3561489E-008  0.1694145E+04  0.7818608E-02  0.8764711E-01
         -2   -1    0    0    0  501 -0.00000000000E+00  0.00000000000E+00  0.19020306419E+03  0.19020306419E+03  0.00000000000E+00 0.  1.
          2   -1    0    0  501    0  0.00000000000E+00 -0.00000000000E+00 -0.37724513450E+04  0.37724513450E+04  0.00000000000E+00 0. -1.
         23    2    1    2    0    0  0.44522327213E+03 -0.41517065812E+03 -0.15043682081E+04  0.16254251682E+04  0.91065000066E+02 0.  0.
        254    2    1    2    0    0 -0.44522327213E+03  0.41517065812E+03 -0.20778800727E+04  0.23372292411E+04  0.88003664202E+03 0.  0.
         23    2    4    4    0    0  0.17535193455E+02  0.43346189533E+03 -0.40969454786E+03  0.60357908555E+03  0.90892201275E+02 0.  0.
         23    2    4    4    0    0 -0.46275846559E+03 -0.18291237209E+02 -0.16681855249E+04  0.17336501555E+04  0.90663937502E+02 0.  0.
          2    1    3    3  502    0  0.43353677246E+03 -0.37691342435E+03 -0.14278376787E+04  0.15390705960E+04  0.00000000000E+00 0. -1.
         -2    1    3    3    0  502  0.11686499673E+02 -0.38257233764E+02 -0.76530529383E+02  0.86354572187E+02  0.00000000000E+00 0.  1.
         11    1    5    5    0    0 -0.14287747535E+02  0.52254633911E+02 -0.89994610447E+02  0.10504149849E+03  0.00000000000E+00 0. -1.
        -11    1    5    5    0    0  0.31822940990E+02  0.38120726141E+03 -0.31969993741E+03  0.49853758706E+03  0.00000000000E+00 0.  1.
          3    1    6    6  503    0  0.22888759863E+01  0.26594240043E+01 -0.29937225139E+01  0.46123598955E+01  0.00000000000E+00 0. -1.
         -3    1    6    6    0  503 -0.46504734157E+03 -0.20950661214E+02 -0.16651918023E+04  0.17290377956E+04  0.00000000000E+00 0.  1.
<mgrwt>
<rscale>  0 0.16941450E+04</rscale>
<asrwt>0</asrwt>
<pdfrwt beam="1">  1        2 0.58037709E+00 0.16941450E+04</pdfrwt>
<pdfrwt beam="2">  1       -2 0.29262012E-01 0.16941450E+04</pdfrwt>
<totfact> 0.53428035E+00</totfact>
</mgrwt>
</event>
<event>
12    2  0.3561489E-008  0.1356253E+04  0.7818608E-02  0.8986108E-01
         -1   -1    0    0    0  501 -0.00000000000E+00  0.00000000000E+00  0.71879534693E+03  0.71879534693E+03  0.00000000000E+00 0.  1.
          1   -1    0    0  501    0  0.00000000000E+00 -0.00000000000E+00 -0.63975905225E+03  0.63975905225E+03  0.00000000000E+00 0. -1.
         23    2    1    2    0    0  0.38517496727E+02 -0.26721032300E+03 -0.24220549852E+03  0.37420514374E+03  0.92092517684E+02 0.  0.
        254    2    1    2    0    0 -0.38517496727E+02  0.26721032300E+03  0.32124179320E+03  0.98434925544E+03  0.89042810643E+03 0.  0.
         23    2    4    4    0    0  0.64461072956E+02 -0.31144909371E+03  0.16578233461E+03  0.36984681037E+03  0.90261358133E+02 0.  0.
         23    2    4    4    0    0 -0.10297856968E+03  0.57865941671E+03  0.15545945860E+03  0.61450244507E+03  0.89410879473E+02 0.  0.
          4    1    3    3  502    0 -0.13226317748E+02 -0.13341484006E+03 -0.16045414143E+03  0.20909324841E+03  0.00000000000E+00 0. -1.
         -4    1    3    3    0  502  0.51743814475E+02 -0.13379548294E+03 -0.81751357091E+02  0.16511189532E+03  0.00000000000E+00 0.  1.
         11    1    5    5    0    0  0.21630849431E+02 -0.10335084106E+03  0.10489003136E+03  0.14883282122E+03  0.00000000000E+00 0.  1.
        -11    1    5    5    0    0  0.42830223525E+02 -0.20809825265E+03  0.60892303252E+02  0.22101398915E+03  0.00000000000E+00 0. -1.
          2    1    6    6  503    0 -0.71698381906E+02  0.37766097483E+03  0.14490385688E+03  0.41081090251E+03  0.00000000000E+00 0. -1.
         -2    1    6    6    0  503 -0.31280187777E+02  0.20099844188E+03  0.10555601720E+02  0.20369154257E+03  0.00000000000E+00 0.  1.
<mgrwt>
<rscale>  0 0.13562534E+04</rscale>
<asrwt>0</asrwt>
<pdfrwt beam="1">  1        1 0.98424470E-01 0.13562534E+04</pdfrwt>
<pdfrwt beam="2">  1       -1 0.11058390E+00 0.13562534E+04</pdfrwt>
<totfact> 0.23001847E+01</totfact>
</mgrwt>
</event>
<event>
12    2  0.3561489E-008  0.1439771E+04  0.7818608E-02  0.8925523E-01
         -2   -1    0    0    0  501 -0.00000000000E+00  0.00000000000E+00  0.42966775792E+03  0.42966775792E+03  0.00000000000E+00 0.  1.
          2   -1    0    0  501    0  0.00000000000E+00 -0.00000000000E+00 -0.12061304572E+04  0.12061304572E+04  0.00000000000E+00 0. -1.
         23    2    1    2    0    0 -0.60402771137E+02 -0.42033663804E+03 -0.18936904030E+03  0.47398933829E+03  0.92053654727E+02 0.  0.
        254    2    1    2    0    0  0.60402771137E+02  0.42033663804E+03 -0.58709365896E+03  0.11618088768E+04  0.90817923220E+03 0.  0.
         23    2    4    4    0    0  0.36908845423E+03  0.53349216027E+03 -0.44905494094E+03  0.79431047126E+03  0.91861921718E+02 0.  0.
         23    2    4    4    0    0 -0.30868568309E+03 -0.11315552223E+03 -0.13803871802E+03  0.36749840554E+03  0.88934623435E+02 0.  0.
          4    1    3    3  502    0  0.98842696501E+01 -0.29593117123E+02  0.55766648538E+01  0.31694645580E+02  0.00000000000E+00 0.  1.
         -4    1    3    3    0  502 -0.70287040787E+02 -0.39074352091E+03 -0.19494570515E+03  0.44229469271E+03  0.00000000000E+00 0. -1.
         11    1    5    5    0    0  0.34352290453E+03  0.48859785484E+03 -0.37940108284E+03  0.70758817921E+03  0.00000000000E+00 0.  1.
        -11    1    5    5    0    0  0.25565549703E+02  0.44894305422E+02 -0.69653858102E+02  0.86722292056E+02  0.00000000000E+00 0. -1.
          4    1    6    6  503    0 -0.95042609339E+01  0.70899201335E+01 -0.21667923914E+02  0.24700139072E+02  0.00000000000E+00 0. -1.
         -4    1    6    6    0  503 -0.29918142216E+03 -0.12024544236E+03 -0.11637079411E+03  0.34279826647E+03  0.00000000000E+00 0.  1.
<mgrwt>
<rscale>  0 0.14397713E+04</rscale>
<asrwt>0</asrwt>
<pdfrwt beam="1">  1        2 0.18555853E+00 0.14397713E+04</pdfrwt>
<pdfrwt beam="2">  1       -2 0.66102733E-01 0.14397713E+04</pdfrwt>
<totfact> 0.38378067E+01</totfact>
</mgrwt>
</event>
<event>
12    2  0.3561489E-008  0.3218744E+04  0.7818608E-02  0.8183885E-01
         -1   -1    0    0    0  501 -0.00000000000E+00  0.00000000000E+00  0.13072446508E+04  0.13072446508E+04  0.00000000000E+00 0.  1.
          1   -1    0    0  501    0  0.00000000000E+00 -0.00000000000E+00 -0.19813258626E+04  0.19813258626E+04  0.00000000000E+00 0. -1.
         23    2    1    2    0    0 -0.66883632942E+03  0.57897574540E+03 -0.15360347711E+04  0.17749540470E+04  0.92217685562E+02 0.  0.
        254    2    1    2    0    0  0.66883632942E+03 -0.57897574540E+03  0.86195355937E+03  0.15136164664E+04  0.87493766613E+03 0.  0.
         23    2    4    4    0    0  0.81285344792E+03 -0.24488813157E+03  0.70395917275E+03  0.11066295384E+04  0.91484935816E+02 0.  0.
         23    2    4    4    0    0 -0.14401711850E+03 -0.33408761384E+03  0.15799438662E+03  0.40698692808E+03  0.91217702695E+02 0.  0.
          4    1    3    3  502    0 -0.59856290208E+03  0.54522173605E+03 -0.13664959307E+04  0.15883499041E+04  0.00000000000E+00 0. -1.
         -4    1    3    3    0  502 -0.70273427340E+02  0.33754009353E+02 -0.16953884040E+03  0.18660414288E+03  0.00000000000E+00 0.  1.
         11    1    5    5    0    0  0.96815375280E+02 -0.61502684936E+02  0.96284563291E+02  0.14975484724E+03  0.00000000000E+00 0.  1.
        -11    1    5    5    0    0  0.71603807264E+03 -0.18338544663E+03  0.60767460946E+03  0.95687469111E+03  0.00000000000E+00 0. -1.
          4    1    6    6  503    0 -0.58009063002E+02 -0.17141090871E+03  0.31481536978E+02  0.18367862746E+03  0.00000000000E+00 0. -1.
         -4    1    6    6    0  503 -0.86008055495E+02 -0.16267670513E+03  0.12651284964E+03  0.22330830062E+03  0.00000000000E+00 0.  1.
<mgrwt>
<rscale>  0 0.32187436E+04</rscale>
<asrwt>0</asrwt>
<pdfrwt beam="1">  1        1 0.30481936E+00 0.32187436E+04</pdfrwt>
<pdfrwt beam="2">  1       -1 0.20111456E+00 0.32187436E+04</pdfrwt>
<totfact> 0.37898650E-01</totfact>
</mgrwt>
</event>
<event>
12    2  0.3561489E-008  0.2047651E+04  0.7818608E-02  0.8584661E-01
         -1   -1    0    0    0  501 -0.00000000000E+00  0.00000000000E+00  0.62038633531E+03  0.62038633531E+03  0.00000000000E+00 0.  1.
          1   -1    0    0  501    0  0.00000000000E+00 -0.00000000000E+00 -0.16896221100E+04  0.16896221100E+04  0.00000000000E+00 0. -1.
         23    2    1    2    0    0  0.36076255516E+03  0.72160551739E+03 -0.57966821947E+03  0.99778429807E+03  0.93242248249E+02 0.  0.
        254    2    1    2    0    0 -0.36076255516E+03 -0.72160551739E+03 -0.48956755522E+03  0.13122241472E+04  0.91180682030E+03 0.  0.
         23    2    4    4    0    0  0.16139550923E+03 -0.47121453170E+03  0.57530361345E+02  0.51033515630E+03  0.95081985635E+02 0.  0.
         23    2    4    4    0    0 -0.52215806440E+03 -0.25039098569E+03 -0.54709791656E+03  0.80188899094E+03  0.91461104076E+02 0.  0.
          1    1    3    3  502    0  0.45323861113E+02  0.76980298689E+02 -0.10249950583E+03  0.13596458167E+03  0.00000000000E+00 0. -1.
         -1    1    3    3    0  502  0.31543869405E+03  0.64462521870E+03 -0.47716871364E+03  0.86181971640E+03  0.00000000000E+00 0.  1.
         11    1    5    5    0    0  0.13933417411E+03 -0.32167001831E+03  0.59068111434E+01  0.35060020418E+03  0.00000000000E+00 0. -1.
        -11    1    5    5    0    0  0.22061335123E+02 -0.14954451339E+03  0.51623550201E+02  0.15973495212E+03  0.00000000000E+00 0.  1.
          3    1    6    6  503    0 -0.14773768377E+03 -0.70487986859E+02 -0.10105248881E+03  0.19237095673E+03  0.00000000000E+00 0. -1.
         -3    1    6    6    0  503 -0.37442038063E+03 -0.17990299883E+03 -0.44604542775E+03  0.60951803422E+03  0.00000000000E+00 0.  1.
<mgrwt>
<rscale>  0 0.20476508E+04</rscale>
<asrwt>0</asrwt>
<pdfrwt beam="1">  1        1 0.25994186E+00 0.20476508E+04</pdfrwt>
<pdfrwt beam="2">  1       -1 0.95444052E-01 0.20476508E+04</pdfrwt>
<totfact> 0.47416924E+00</totfact>
</mgrwt>
</event>
<event>
12    2  0.3561489E-008  0.1480166E+04  0.7818608E-02  0.8897751E-01
          2   -1    0    0  501    0  0.00000000000E+00  0.00000000000E+00  0.16923478429E+04  0.16923478429E+04  0.00000000000E+00 0. -1.
         -2   -1    0    0    0  501 -0.00000000000E+00 -0.00000000000E+00 -0.32364666385E+03  0.32364666385E+03  0.00000000000E+00 0.  1.
         23    2    1    2    0    0 -0.49459361478E+02 -0.29834065393E+03 -0.45242532420E+02  0.31927161124E+03  0.91837360467E+02 0.  0.
        254    2    1    2    0    0  0.49459361478E+02  0.29834065393E+03  0.14139437114E+04  0.16967228955E+04  0.88779411504E+03 0.  0.
         23    2    4    4    0    0 -0.13299678046E+03  0.41755235976E+03  0.13898933037E+04  0.14600402968E+04  0.88747708430E+02 0.  0.
         23    2    4    4    0    0  0.18245614194E+03 -0.11921170583E+03  0.24050407692E+02  0.23668259867E+03  0.89098573867E+02 0.  0.
          2    1    3    3  502    0 -0.43646851986E+02 -0.10554673176E+03 -0.53689786034E+02  0.12620520353E+03  0.00000000000E+00 0. -1.
         -2    1    3    3    0  502 -0.58125094926E+01 -0.19279392216E+03  0.84472536139E+01  0.19306640770E+03  0.00000000000E+00 0.  1.
         11    1    5    5    0    0 -0.92609765246E+02  0.21795330915E+03  0.87092772867E+03  0.90254934611E+03  0.00000000000E+00 0.  1.
        -11    1    5    5    0    0 -0.40387015212E+02  0.19959905060E+03  0.51896557507E+03  0.55749095070E+03  0.00000000000E+00 0. -1.
          4    1    6    6  503    0  0.41829501527E+01  0.28611453576E+01  0.19947175618E+02  0.20580890162E+02  0.00000000000E+00 0. -1.
         -4    1    6    6    0  503  0.17827319178E+03 -0.12207285119E+03  0.41032320742E+01  0.21610170851E+03  0.00000000000E+00 0.  1.
<mgrwt>
<rscale>  0 0.14801658E+04</rscale>
<asrwt>0</asrwt>
<pdfrwt beam="1">  1        2 0.26036120E+00 0.14801658E+04</pdfrwt>
<pdfrwt beam="2">  1       -2 0.49791795E-01 0.14801658E+04</pdfrwt>
<totfact> 0.36569875E+01</totfact>
</mgrwt>
</event>
<event>
12    2  0.3561489E-008  0.2208173E+04  0.7818608E-02  0.8515034E-01
         -1   -1    0    0    0  501 -0.00000000000E+00  0.00000000000E+00  0.11043090885E+04  0.11043090885E+04  0.00000000000E+00 0.  1.
          1   -1    0    0  501    0  0.00000000000E+00 -0.00000000000E+00 -0.11038639784E+04  0.11038639784E+04  0.00000000000E+00 0. -1.
         23    2    1    2    0    0 -0.58343289680E+03 -0.44577279178E+03 -0.55257402367E+03  0.92354877231E+03  0.92178936032E+02 0.  0.
        254    2    1    2    0    0  0.58343289680E+03  0.44577279178E+03  0.55301913380E+03  0.12846242945E+04  0.89739739736E+03 0.  0.
         23    2    4    4    0    0  0.47029717338E+03  0.42295327571E+03  0.78416483696E+03  0.10109178420E+04  0.83495431396E+02 0.  0.
         23    2    4    4    0    0  0.11313572342E+03  0.22819516066E+02 -0.23114570316E+03  0.27370645251E+03  0.90368489119E+02 0.  0.
          3    1    3    3  502    0 -0.28139747567E+03 -0.19323067715E+03 -0.20371273711E+03  0.39751919848E+03  0.00000000000E+00 0. -1.
         -3    1    3    3    0  502 -0.30203542113E+03 -0.25254211463E+03 -0.34886128657E+03  0.52602957383E+03  0.00000000000E+00 0.  1.
         11    1    5    5    0    0  0.19932196203E+03  0.15543647371E+03  0.25555173917E+03  0.35943905366E+03  0.00000000000E+00 0. -1.
        -11    1    5    5    0    0  0.27097521135E+03  0.26751680200E+03  0.52861309780E+03  0.65147878836E+03  0.00000000000E+00 0.  1.
          4    1    6    6  503    0  0.12485784827E+03  0.34267533780E+02 -0.21294171710E+03  0.24921460838E+03  0.00000000000E+00 0.  1.
         -4    1    6    6    0  503 -0.11722124845E+02 -0.11448017714E+02 -0.18203986060E+02  0.24491844131E+02  0.00000000000E+00 0. -1.
<mgrwt>
<rscale>  0 0.22081730E+04</rscale>
<asrwt>0</asrwt>
<pdfrwt beam="1">  1        1 0.16982523E+00 0.22081730E+04</pdfrwt>
<pdfrwt beam="2">  1       -1 0.16989371E+00 0.22081730E+04</pdfrwt>
<totfact> 0.28285911E+00</totfact>
</mgrwt>
</event>
<event>
12    2  0.3561489E-008  0.1178016E+04  0.7818608E-02  0.9132320E-01
         -3   -1    0    0    0  501 -0.00000000000E+00  0.00000000000E+00  0.98427362621E+03  0.98427362621E+03  0.00000000000E+00 0.  1.
          3   -1    0    0  501    0  0.00000000000E+00 -0.00000000000E+00 -0.35247366770E+03  0.35247366770E+03  0.00000000000E+00 0. -1.
         23    2    1    2    0    0  0.98087345758E+02  0.13924394342E+02 -0.10327805015E+03  0.16942545892E+03  0.90684145975E+02 0.  0.
        254    2    1    2    0    0 -0.98087345758E+02 -0.13924394342E+02  0.73507800867E+03  0.11673218350E+04  0.90137981532E+03 0.  0.
         23    2    4    4    0    0  0.32481175640E+03  0.21003426244E+03  0.19759910175E+03  0.44239973141E+03  0.83994338176E+02 0.  0.
         23    2    4    4    0    0 -0.42289910216E+03 -0.22395865678E+03  0.53747890692E+03  0.72492210358E+03  0.87334702861E+02 0.  0.
          3    1    3    3  502    0  0.79175055881E+02 -0.17926468065E+02 -0.28608460167E+02  0.86072595663E+02  0.00000000000E+00 0. -1.
         -3    1    3    3    0  502  0.18912289878E+02  0.31850862407E+02 -0.74669589986E+02  0.83352863258E+02  0.00000000000E+00 0.  1.
         11    1    5    5    0    0  0.24595219706E+02  0.22927219184E+02 -0.61302540824E+01  0.34178388303E+02  0.00000000000E+00 0. -1.
        -11    1    5    5    0    0  0.30021653669E+03  0.18710704326E+03  0.20372935583E+03  0.40822134311E+03  0.00000000000E+00 0.  1.
          3    1    6    6  503    0 -0.25124537992E+03 -0.11221996718E+03  0.36533647416E+03  0.45737107617E+03  0.00000000000E+00 0. -1.
         -3    1    6    6    0  503 -0.17165372223E+03 -0.11173868961E+03  0.17214243276E+03  0.26755102741E+03  0.00000000000E+00 0.  1.
<mgrwt>
<rscale>  0 0.11780162E+04</rscale>
<asrwt>0</asrwt>
<pdfrwt beam="1">  1        3 0.54226718E-01 0.11780162E+04</pdfrwt>
<pdfrwt beam="2">  1       -3 0.15142671E+00 0.11780162E+04</pdfrwt>
<totfact> 0.27351774E+00</totfact>
</mgrwt>
</event>
<event>
12    2  0.3561489E-008  0.1075662E+04  0.7818608E-02  0.9229243E-01
          2   -1    0    0  501    0  0.00000000000E+00  0.00000000000E+00  0.20480975578E+04  0.20480975578E+04  0.00000000000E+00 0. -1.
         -2   -1    0    0    0  501 -0.00000000000E+00 -0.00000000000E+00 -0.14123466063E+03  0.14123466063E+03  0.00000000000E+00 0.  1.
         23    2    1    2    0    0 -0.23429896865E+02 -0.57295847632E+02  0.52125323448E+02  0.11776112448E+03  0.85550329469E+02 0.  0.
        254    2    1    2    0    0  0.23429896865E+02  0.57295847632E+02  0.18547375737E+04  0.20715710939E+04  0.92061042558E+03 0.  0.
         23    2    4    4    0    0  0.13596689798E+03  0.46290957744E+03  0.94707478467E+03  0.10667155630E+04  0.90328125887E+02 0.  0.
         23    2    4    4    0    0 -0.11253700111E+03 -0.40561372981E+03  0.90766278905E+03  0.10048555310E+04  0.93251407714E+02 0.  0.
          4    1    3    3  502    0  0.13276888303E+02 -0.39090996902E+01  0.51124723533E+02  0.52965027893E+02  0.00000000000E+00 0. -1.
         -4    1    3    3    0  502 -0.36706785168E+02 -0.53386747942E+02  0.10005999145E+01  0.64796096591E+02  0.00000000000E+00 0.  1.
         11    1    5    5    0    0  0.11367149871E+03  0.44074132326E+03  0.84346002248E+03  0.95843566981E+03  0.00000000000E+00 0. -1.
        -11    1    5    5    0    0  0.22295399267E+02  0.22168254185E+02  0.10361476220E+03  0.10827989318E+03  0.00000000000E+00 0.  1.
          2    1    6    6  503    0 -0.60280128208E+02 -0.98171337434E+02  0.18736554926E+03  0.21994807206E+03  0.00000000000E+00 0.  1.
         -2    1    6    6    0  503 -0.52256872905E+02 -0.30744239238E+03  0.72029723978E+03  0.78490745890E+03  0.00000000000E+00 0. -1.
<mgrwt>
<rscale>  0 0.10756623E+04</rscale>
<asrwt>0</asrwt>
<pdfrwt beam="1">  1        2 0.31509191E+00 0.10756623E+04</pdfrwt>
<pdfrwt beam="2">  1       -2 0.21728411E-01 0.10756623E+04</pdfrwt>
<totfact> 0.11563087E+02</totfact>
</mgrwt>
</event>
<event>
12    2  0.3561489E-008  0.1476515E+04  0.7818608E-02  0.8900222E-01
         -2   -1    0    0    0  501 -0.00000000000E+00  0.00000000000E+00  0.53250797907E+03  0.53250797907E+03  0.00000000000E+00 0.  1.
          2   -1    0    0  501    0  0.00000000000E+00 -0.00000000000E+00 -0.10235044340E+04  0.10235044340E+04  0.00000000000E+00 0. -1.
         23    2    1    2    0    0 -0.28077301867E+03  0.24447757280E+03  0.47736332031E+02  0.38661642272E+03  0.92686187241E+02 0.  0.
        254    2    1    2    0    0  0.28077301867E+03 -0.24447757280E+03 -0.53873278696E+03  0.11693959903E+04  0.96884012865E+03 0.  0.
         23    2    4    4    0    0  0.31480309907E+03 -0.56857445057E+03 -0.50776048998E+03  0.82975079104E+03  0.91037151890E+02 0.  0.
         23    2    4    4    0    0 -0.34030080396E+02  0.32409687777E+03 -0.30972296987E+02  0.33964519931E+03  0.90569010589E+02 0.  0.
          3    1    3    3  502    0 -0.37709327611E+02  0.52895463589E+01  0.23490267092E+02  0.44741092271E+02  0.00000000000E+00 0. -1.
         -3    1    3    3    0  502 -0.24306369106E+03  0.23918802644E+03  0.24246064938E+02  0.34187533045E+03  0.00000000000E+00 0.  1.
         11    1    5    5    0    0  0.24883866094E+03 -0.48492698010E+03 -0.38553187784E+03  0.66761492197E+03  0.00000000000E+00 0. -1.
        -11    1    5    5    0    0  0.65964438132E+02 -0.83647470471E+02 -0.12222861214E+03  0.16213586907E+03  0.00000000000E+00 0.  1.
          4    1    6    6  503    0  0.23740966048E+02  0.72316635183E+02  0.14130008081E+02  0.77414380585E+02  0.00000000000E+00 0.  1.
         -4    1    6    6    0  503 -0.57771046444E+02  0.25178024259E+03 -0.45102305069E+02  0.26223081872E+03  0.00000000000E+00 0. -1.
<mgrwt>
<rscale>  0 0.14765152E+04</rscale>
<asrwt>0</asrwt>
<pdfrwt beam="1">  1        2 0.15746222E+00 0.14765152E+04</pdfrwt>
<pdfrwt beam="2">  1       -2 0.81924304E-01 0.14765152E+04</pdfrwt>
<totfact> 0.30859012E+01</totfact>
</mgrwt>
</event>
<event>
12    2  0.3561489E-008  0.1409587E+04  0.7818608E-02  0.8946908E-01
         -2   -1    0    0    0  501 -0.00000000000E+00  0.00000000000E+00  0.81832737898E+03  0.81832737898E+03  0.00000000000E+00 0.  1.
          2   -1    0    0  501    0  0.00000000000E+00 -0.00000000000E+00 -0.60701123379E+03  0.60701123379E+03  0.00000000000E+00 0. -1.
         23    2    1    2    0    0  0.20099256729E+03  0.29369503980E+00  0.43467402849E+03  0.48779460628E+03  0.92757579280E+02 0.  0.
        254    2    1    2    0    0 -0.20099256729E+03 -0.29369503980E+00 -0.22335788330E+03  0.93754400649E+03  0.88808891543E+03 0.  0.
         23    2    4    4    0    0  0.23321813909E+03  0.18697134268E+02  0.20164051150E+03  0.32220581654E+03  0.91746439194E+02 0.  0.
         23    2    4    4    0    0 -0.43421070638E+03 -0.18990829308E+02 -0.42499839480E+03  0.61533818994E+03  0.95487503296E+02 0.  0.
          2    1    3    3  502    0  0.60318700163E+02  0.33639788736E+01  0.50756199078E+02  0.78904079033E+02  0.00000000000E+00 0. -1.
         -2    1    3    3    0  502  0.14067386712E+03 -0.30702838338E+01  0.38391782941E+03  0.40889052725E+03  0.00000000000E+00 0.  1.
         11    1    5    5    0    0  0.23915927336E+03  0.14247528572E+02  0.18099186738E+03  0.30026356116E+03  0.00000000000E+00 0.  1.
        -11    1    5    5    0    0 -0.59411342657E+01  0.44496056958E+01  0.20648644123E+02  0.21942255384E+02  0.00000000000E+00 0. -1.
          1    1    6    6  503    0 -0.23332191694E+02  0.19627927142E+02 -0.16523013700E+02  0.34679340750E+02  0.00000000000E+00 0. -1.
         -1    1    6    6    0  503 -0.41087851468E+03 -0.38618756449E+02 -0.40847538110E+03  0.58065884919E+03  0.00000000000E+00 0.  1.
<mgrwt>
<rscale>  0 0.14095870E+04</rscale>
<asrwt>0</asrwt>
<pdfrwt beam="1">  1        2 0.93386344E-01 0.14095870E+04</pdfrwt>
<pdfrwt beam="2">  1       -2 0.12589652E+00 0.14095870E+04</pdfrwt>
<totfact> 0.22392516E+01</totfact>
</mgrwt>
</event>
<event>
12    2  0.3561489E-008  0.1778566E+04  0.7818608E-02  0.8717782E-01
         -2   -1    0    0    0  501 -0.00000000000E+00  0.00000000000E+00  0.82609841094E+03  0.82609841094E+03  0.00000000000E+00 0.  1.
          2   -1    0    0  501    0  0.00000000000E+00 -0.00000000000E+00 -0.95729997745E+03  0.95729997745E+03  0.00000000000E+00 0. -1.
         23    2    1    2    0    0  0.16532880289E+02 -0.68423386939E+03 -0.23697531701E+03  0.72988493742E+03  0.90140983231E+02 0.  0.
        254    2    1    2    0    0 -0.16532880289E+02  0.68423386939E+03  0.10577375050E+03  0.10535134510E+04  0.79388486629E+03 0.  0.
         23    2    4    4    0    0  0.35167740787E+03  0.32518432026E+03  0.19206918505E+03  0.52402101416E+03  0.91025326589E+02 0.  0.
         23    2    4    4    0    0 -0.36821028816E+03  0.35904954913E+03 -0.86295434552E+02  0.52949243681E+03  0.91760250550E+02 0.  0.
          2    1    3    3  502    0 -0.19353638295E+02 -0.50373612093E+03 -0.19907473347E+03  0.54199205930E+03  0.00000000000E+00 0. -1.
         -2    1    3    3    0  502  0.35886518585E+02 -0.18049774846E+03 -0.37900583539E+02  0.18789287812E+03  0.00000000000E+00 0.  1.
         11    1    5    5    0    0  0.11124877991E+03  0.52022008095E+02  0.61997714448E+02  0.13757287870E+03  0.00000000000E+00 0.  1.
        -11    1    5    5    0    0  0.24042862796E+03  0.27316231217E+03  0.13007147060E+03  0.38644813545E+03  0.00000000000E+00 0. -1.
          2    1    6    6  503    0 -0.26557219850E+03  0.20274428237E+03 -0.37326253106E+02  0.33619501159E+03  0.00000000000E+00 0. -1.
         -2    1    6    6    0  503 -0.10263808967E+03  0.15630526675E+03 -0.48969181445E+02  0.19329742522E+03  0.00000000000E+00 0.  1.
<mgrwt>
<rscale>  0 0.17785657E+04</rscale>
<asrwt>0</asrwt>
<pdfrwt beam="1">  1        2 0.14727692E+00 0.17785657E+04</pdfrwt>
<pdfrwt beam="2">  1       -2 0.12709206E+00 0.17785657E+04</pdfrwt>
<totfact> 0.11677016E+01</totfact>
</mgrwt>
</event>
<event>
12    2  0.3561489E-008  0.1343494E+04  0.7818608E-02  0.8995768E-01
          2   -1    0    0  501    0  0.00000000000E+00  0.00000000000E+00  0.13859951521E+04  0.13859951521E+04  0.00000000000E+00 0. -1.
         -2   -1    0    0    0  501 -0.00000000000E+00 -0.00000000000E+00 -0.32557403739E+03  0.32557403739E+03  0.00000000000E+00 0.  1.
         23    2    1    2    0    0  0.12702870560E+03 -0.22044551802E+03 -0.38080360761E+02  0.27356269855E+03  0.93026435494E+02 0.  0.
        254    2    1    2    0    0 -0.12702870560E+03  0.22044551802E+03  0.10985014754E+04  0.14380064909E+04  0.89242627589E+03 0.  0.
         23    2    4    4    0    0  0.46000568938E+02  0.27476885683E+03 -0.27167197032E+02  0.29419797784E+03  0.90556151314E+02 0.  0.
         23    2    4    4    0    0 -0.17302927454E+03 -0.54323338815E+02  0.11256686725E+04  0.11438085131E+04  0.90982412651E+02 0.  0.
          3    1    3    3  502    0  0.15362970784E+01 -0.89530903420E+02 -0.13548510195E+02  0.90563265204E+02  0.00000000000E+00 0. -1.
         -3    1    3    3    0  502  0.12549240853E+03 -0.13091461460E+03 -0.24531850566E+02  0.18299943335E+03  0.00000000000E+00 0.  1.
         11    1    5    5    0    0 -0.21461978169E+02  0.69395980932E+02 -0.28485290373E+02  0.78024550265E+02  0.00000000000E+00 0.  1.
        -11    1    5    5    0    0  0.67462547107E+02  0.20537287590E+03  0.13180933415E+01  0.21617342757E+03  0.00000000000E+00 0. -1.
          1    1    6    6  503    0 -0.17286645289E+03 -0.31000287458E+02  0.10512930693E+04  0.10658615979E+04  0.00000000000E+00 0. -1.
         -1    1    6    6    0  503 -0.16282165708E+00 -0.23323051357E+02  0.74375603140E+02  0.77946915127E+02  0.00000000000E+00 0.  1.
<mgrwt>
<rscale>  0 0.13434940E+04</rscale>
<asrwt>0</asrwt>
<pdfrwt beam="1">  1        2 0.21323002E+00 0.13434940E+04</pdfrwt>
<pdfrwt beam="2">  1       -2 0.50088314E-01 0.13434940E+04</pdfrwt>
<totfact> 0.54302182E+01</totfact>
</mgrwt>
</event>
<event>
12    2  0.3561489E-008  0.1200298E+04  0.7818608E-02  0.9112596E-01
         -2   -1    0    0    0  501 -0.00000000000E+00  0.00000000000E+00  0.69430964993E+03  0.69430964993E+03  0.00000000000E+00 0.  1.
          2   -1    0    0  501    0  0.00000000000E+00 -0.00000000000E+00 -0.51875822885E+03  0.51875822885E+03  0.00000000000E+00 0. -1.
         23    2    1    2    0    0  0.14075345678E+03 -0.21139919063E+03  0.83490984583E+02  0.28260768314E+03  0.91625349494E+02 0.  0.
        254    2    1    2    0    0 -0.14075345678E+03  0.21139919063E+03  0.92060436497E+02  0.93046019564E+03  0.89038188341E+03 0.  0.
         23    2    4    4    0    0  0.21826717136E+03 -0.21497733154E+03  0.16745646978E+03  0.36078971499E+03  0.90949095645E+02 0.  0.
         23    2    4    4    0    0 -0.35902062814E+03  0.42637652217E+03 -0.75396033287E+02  0.56967048065E+03  0.90261534407E+02 0.  0.
          3    1    3    3  502    0  0.19143895837E+02 -0.39817850111E+02  0.54739231469E+02  0.70344391369E+02  0.00000000000E+00 0. -1.
         -3    1    3    3    0  502  0.12160956095E+03 -0.17158134052E+03  0.28751753114E+02  0.21226329178E+03  0.00000000000E+00 0.  1.
         11    1    5    5    0    0  0.29563976411E+02 -0.68760065082E+02  0.11717208079E+02  0.75757958107E+02  0.00000000000E+00 0.  1.
        -11    1    5    5    0    0  0.18870319495E+03 -0.14621726646E+03  0.15573926170E+03  0.28503175688E+03  0.00000000000E+00 0. -1.
          1    1    6    6  503    0 -0.24883703658E+03  0.24466923084E+03 -0.17461327807E+02  0.34941064847E+03  0.00000000000E+00 0. -1.
         -1    1    6    6    0  503 -0.11018359157E+03  0.18170729133E+03 -0.57934705479E+02  0.22025983218E+03  0.00000000000E+00 0.  1.
<mgrwt>
<rscale>  0 0.12002980E+04</rscale>
<asrwt>0</asrwt>
<pdfrwt beam="1">  1        2 0.79808958E-01 0.12002980E+04</pdfrwt>
<pdfrwt beam="2">  1       -2 0.10681687E+00 0.12002980E+04</pdfrwt>
<totfact> 0.41055580E+01</totfact>
</mgrwt>
</event>
<event>
12    2  0.3561489E-008  0.1493356E+04  0.7818608E-02  0.8888883E-01
         -2   -1    0    0    0  501 -0.00000000000E+00  0.00000000000E+00  0.74954531138E+03  0.74954531138E+03  0.00000000000E+00 0.  1.
          2   -1    0    0  501    0  0.00000000000E+00 -0.00000000000E+00 -0.74382170147E+03  0.74382170147E+03  0.00000000000E+00 0. -1.
         23    2    1    2    0    0  0.19895844830E+03 -0.47779821351E+02  0.42411470518E+03  0.47891798507E+03  0.87302793743E+02 0.  0.
        254    2    1    2    0    0 -0.19895844830E+03  0.47779821351E+02 -0.41839109528E+03  0.10144490278E+04  0.90121492768E+03 0.  0.
         23    2    4    4    0    0 -0.99365313161E+02 -0.16491337377E+03  0.23255560978E+03  0.31608702263E+03  0.93589571701E+02 0.  0.
         23    2    4    4    0    0 -0.99593135135E+02  0.21269319512E+03 -0.65094670505E+03  0.69836200514E+03  0.93918526339E+02 0.  0.
          3    1    3    3  502    0 -0.88685627805E+01 -0.51447236135E+01  0.21851370552E+02  0.24137149414E+02  0.00000000000E+00 0. -1.
         -3    1    3    3    0  502  0.20782701108E+03 -0.42635097737E+02  0.40226333463E+03  0.45478083566E+03  0.00000000000E+00 0.  1.
         11    1    5    5    0    0 -0.63924164998E+02 -0.10457693784E+03  0.20893539788E+03  0.24223260575E+03  0.00000000000E+00 0.  1.
        -11    1    5    5    0    0 -0.35441148163E+02 -0.60336435925E+02  0.23620211892E+02  0.73854416882E+02  0.00000000000E+00 0. -1.
          1    1    6    6  503    0 -0.64883119440E+02  0.53143222935E+02 -0.15511221043E+03  0.17633439584E+03  0.00000000000E+00 0. -1.
         -1    1    6    6    0  503 -0.34710015695E+02  0.15954997218E+03 -0.49583449463E+03  0.52202760930E+03  0.00000000000E+00 0.  1.
<mgrwt>
<rscale>  0 0.14933560E+04</rscale>
<asrwt>0</asrwt>
<pdfrwt beam="1">  1        2 0.11443411E+00 0.14933560E+04</pdfrwt>
<pdfrwt beam="2">  1       -2 0.11531466E+00 0.14933560E+04</pdfrwt>
<totfact> 0.21461360E+01</totfact>
</mgrwt>
</event>
<event>
12    2  0.3561489E-008  0.2351736E+04  0.7818608E-02  0.8457797E-01
         -2   -1    0    0    0  501 -0.00000000000E+00  0.00000000000E+00  0.45266255138E+03  0.45266255138E+03  0.00000000000E+00 0.  1.
          2   -1    0    0  501    0  0.00000000000E+00 -0.00000000000E+00 -0.30545175376E+04  0.30545175376E+04  0.00000000000E+00 0. -1.
         23    2    1    2    0    0 -0.94892145984E+03  0.26809468033E+02 -0.64532679947E+03  0.11514241704E+04  0.90334144051E+02 0.  0.
        254    2    1    2    0    0  0.94892145984E+03 -0.26809468033E+02 -0.19565281867E+04  0.23557559186E+04  0.90576637044E+03 0.  0.
         23    2    4    4    0    0  0.96748638726E+03 -0.12312677305E+03 -0.19888338726E+04  0.22171670471E+04  0.95809341996E+02 0.  0.
         23    2    4    4    0    0 -0.18564927419E+02  0.96317305020E+02  0.32305685849E+02  0.13858887151E+03  0.92420442499E+02 0.  0.
          4    1    3    3  502    0 -0.10488561489E+03  0.70303987157E+01 -0.10776292827E+03  0.15054324105E+03  0.00000000000E+00 0. -1.
         -4    1    3    3    0  502 -0.84403584495E+03  0.19779069317E+02 -0.53756387120E+03  0.10008809294E+04  0.00000000000E+00 0.  1.
         11    1    5    5    0    0  0.24568844378E+03  0.86765328296E+01 -0.52734397422E+03  0.58183310388E+03  0.00000000000E+00 0.  1.
        -11    1    5    5    0    0  0.72179794348E+03 -0.13180330588E+03 -0.14614898984E+04  0.16353339432E+04  0.00000000000E+00 0. -1.
          3    1    6    6  503    0 -0.12848440412E+02  0.10927205173E+03  0.78183802508E+01  0.11030227006E+03  0.00000000000E+00 0. -1.
         -3    1    6    6    0  503 -0.57164870064E+01 -0.12954746712E+02  0.24487305598E+02  0.28286601449E+02  0.00000000000E+00 0.  1.
<mgrwt>
<rscale>  0 0.23517361E+04</rscale>
<asrwt>0</asrwt>
<pdfrwt beam="1">  1        2 0.46992575E+00 0.23517361E+04</pdfrwt>
<pdfrwt beam="2">  1       -2 0.69640396E-01 0.23517361E+04</pdfrwt>
<totfact> 0.27322565E+00</totfact>
</mgrwt>
</event>
<event>
12    2  0.3561489E-008  0.2707552E+04  0.7818608E-02  0.8332559E-01
         -2   -1    0    0    0  501 -0.00000000000E+00  0.00000000000E+00  0.10068005355E+04  0.10068005355E+04  0.00000000000E+00 0.  1.
          2   -1    0    0  501    0  0.00000000000E+00 -0.00000000000E+00 -0.18203302972E+04  0.18203302972E+04  0.00000000000E+00 0. -1.
         23    2    1    2    0    0  0.11605669281E+03  0.78579817756E+03  0.57662247748E+03  0.98575520385E+03  0.90950033349E+02 0.  0.
        254    2    1    2    0    0 -0.11605669281E+03 -0.78579817756E+03 -0.13901522391E+04  0.18413756289E+04  0.90950152660E+03 0.  0.
         23    2    4    4    0    0 -0.49350882582E+03 -0.35738637009E+03 -0.57962748238E+03  0.84532448398E+03  0.85612418427E+02 0.  0.
         23    2    4    4    0    0  0.37745213302E+03 -0.42841180747E+03 -0.81052475676E+03  0.99605114492E+03  0.95711610932E+02 0.  0.
          1    1    3    3  502    0  0.87776039446E+01  0.20970532535E+02  0.14223741968E+01  0.22777899687E+02  0.00000000000E+00 0. -1.
         -1    1    3    3    0  502  0.10727908886E+03  0.76482764503E+03  0.57520010329E+03  0.96297730416E+03  0.00000000000E+00 0.  1.
         11    1    5    5    0    0 -0.18563174456E+03 -0.84818988555E+02 -0.19568550347E+03  0.28274762895E+03  0.00000000000E+00 0.  1.
        -11    1    5    5    0    0 -0.30787708127E+03 -0.27256738154E+03 -0.38394197891E+03  0.56257685503E+03  0.00000000000E+00 0. -1.
          1    1    6    6  503    0  0.38326126461E+03 -0.42334041716E+03 -0.79673132142E+03  0.98024849109E+03  0.00000000000E+00 0. -1.
         -1    1    6    6    0  503 -0.58091315887E+01 -0.50713903081E+01 -0.13793435344E+02  0.15802653830E+02  0.00000000000E+00 0.  1.
<mgrwt>
<rscale>  0 0.27075520E+04</rscale>
<asrwt>0</asrwt>
<pdfrwt beam="1">  1        2 0.28005081E+00 0.27075520E+04</pdfrwt>
<pdfrwt beam="2">  1       -2 0.15489239E+00 0.27075520E+04</pdfrwt>
<totfact> 0.20276486E+00</totfact>
</mgrwt>
</event>
<event>
12    2  0.3561489E-008  0.2014214E+04  0.7818608E-02  0.8600004E-01
         -1   -1    0    0    0  501 -0.00000000000E+00  0.00000000000E+00  0.44601235898E+03  0.44601235898E+03  0.00000000000E+00 0.  1.
          1   -1    0    0  501    0  0.00000000000E+00 -0.00000000000E+00 -0.22740718695E+04  0.22740718695E+04  0.00000000000E+00 0. -1.
         23    2    1    2    0    0  0.50267820859E+03 -0.35428676990E+03 -0.14205719617E+04  0.15506863946E+04  0.91646600064E+02 0.  0.
        254    2    1    2    0    0 -0.50267820859E+03  0.35428676990E+03 -0.40748754880E+03  0.11693978339E+04  0.90732612366E+03 0.  0.
         23    2    4    4    0    0  0.98983807722E+02  0.39277487480E+03  0.33709176757E+02  0.41714308805E+03  0.93819778550E+02 0.  0.
         23    2    4    4    0    0 -0.60166201631E+03 -0.38488104892E+02 -0.44119672556E+03  0.75225474581E+03  0.88057571229E+02 0.  0.
          3    1    3    3  502    0  0.40306273992E+03 -0.31446681721E+03 -0.12296955509E+04  0.13317282378E+04  0.00000000000E+00 0. -1.
         -3    1    3    3    0  502  0.99615468671E+02 -0.39819952691E+02 -0.19087641081E+03  0.21895815682E+03  0.00000000000E+00 0.  1.
         11    1    5    5    0    0  0.53205878619E+02  0.26973019694E+03  0.64288741155E+02  0.28234427017E+03  0.00000000000E+00 0. -1.
        -11    1    5    5    0    0  0.45777929103E+02  0.12304467786E+03 -0.30579564398E+02  0.13479881788E+03  0.00000000000E+00 0.  1.
          4    1    6    6  503    0 -0.83188973510E+02 -0.22545102276E+02 -0.96833394960E+02  0.12963561752E+03  0.00000000000E+00 0. -1.
         -4    1    6    6    0  503 -0.51847304280E+03 -0.15943002616E+02 -0.34436333060E+03  0.62261912829E+03  0.00000000000E+00 0.  1.
<mgrwt>
<rscale>  0 0.20142137E+04</rscale>
<asrwt>0</asrwt>
<pdfrwt beam="1">  1        1 0.34985720E+00 0.20142137E+04</pdfrwt>
<pdfrwt beam="2">  1       -1 0.68617288E-01 0.20142137E+04</pdfrwt>
<totfact> 0.38617002E+00</totfact>
</mgrwt>
</event>
<event>
12    2  0.3561489E-008  0.1268113E+04  0.7818608E-02  0.9055241E-01
          1   -1    0    0  501    0  0.00000000000E+00  0.00000000000E+00  0.16901974740E+04  0.16901974740E+04  0.00000000000E+00 0. -1.
         -1   -1    0    0    0  501 -0.00000000000E+00 -0.00000000000E+00 -0.23785845454E+03  0.23785845454E+03  0.00000000000E+00 0.  1.
         23    2    1    2    0    0 -0.60704899687E+02 -0.27514473056E+03  0.54380557324E+03  0.61923773323E+03  0.91329957697E+02 0.  0.
        254    2    1    2    0    0  0.60704899687E+02  0.27514473056E+03  0.90853344618E+03  0.13088181953E+04  0.89898962052E+03 0.  0.
         23    2    4    4    0    0 -0.14020370463E+03  0.35408328500E+02  0.96296674368E+03  0.97799635454E+03  0.90890547073E+02 0.  0.
         23    2    4    4    0    0  0.20090860432E+03  0.23973640206E+03 -0.54433297496E+02  0.33082184072E+03  0.92963953533E+02 0.  0.
          3    1    3    3  502    0 -0.42590256201E+02 -0.27101249245E+03  0.48093047816E+03  0.55367483762E+03  0.00000000000E+00 0. -1.
         -3    1    3    3    0  502 -0.18114643486E+02 -0.41322381112E+01  0.62875095078E+02  0.65562895616E+02  0.00000000000E+00 0.  1.
         11    1    5    5    0    0 -0.29567999886E+02 -0.29504695251E+02  0.27828830829E+03  0.28140571456E+03  0.00000000000E+00 0.  1.
        -11    1    5    5    0    0 -0.11063570475E+03  0.64913023751E+02  0.68467843539E+03  0.69659063998E+03  0.00000000000E+00 0. -1.
          1    1    6    6  503    0  0.21079486703E+03  0.22857360676E+03 -0.55593527439E+02  0.31586549348E+03  0.00000000000E+00 0. -1.
         -1    1    6    6    0  503 -0.98862627124E+01  0.11162795299E+02  0.11602299430E+01  0.14956347242E+02  0.00000000000E+00 0.  1.
<mgrwt>
<rscale>  0 0.12681132E+04</rscale>
<asrwt>0</asrwt>
<pdfrwt beam="1">  1        1 0.26003037E+00 0.12681132E+04</pdfrwt>
<pdfrwt beam="2">  1       -1 0.36593610E-01 0.12681132E+04</pdfrwt>
<totfact> 0.34144522E+01</totfact>
</mgrwt>
</event>
<event>
12    2  0.3561489E-008  0.1657520E+04  0.7818608E-02  0.8785970E-01
          2   -1    0    0  501    0  0.00000000000E+00  0.00000000000E+00  0.12123701693E+04  0.12123701693E+04  0.00000000000E+00 0. -1.
         -2   -1    0    0    0  501 -0.00000000000E+00 -0.00000000000E+00 -0.56652943567E+03  0.56652943567E+03  0.00000000000E+00 0.  1.
         23    2    1    2    0    0  0.29451835811E+03 -0.13310457744E+03  0.83444644229E+03  0.89944817663E+03  0.90819962529E+02 0.  0.
        254    2    1    2    0    0 -0.29451835811E+03  0.13310457744E+03 -0.18860570869E+03  0.87945142830E+03  0.79586733165E+03 0.  0.
         23    2    4    4    0    0 -0.54227525862E+03  0.75882138027E+02 -0.93803082337E+01  0.55545994222E+03  0.92882733857E+02 0.  0.
         23    2    4    4    0    0  0.24775690051E+03  0.57222439415E+02 -0.17922540046E+03  0.32399148608E+03  0.90503312423E+02 0.  0.
          3    1    3    3  502    0  0.26595290734E+03 -0.14060697607E+03  0.79611515270E+03  0.85105852149E+03  0.00000000000E+00 0. -1.
         -3    1    3    3    0  502  0.28565450773E+02  0.75023986290E+01  0.38331289588E+02  0.48389655139E+02  0.00000000000E+00 0.  1.
         11    1    5    5    0    0 -0.40764728602E+03  0.37161439317E+02 -0.42423072551E+02  0.41153007114E+03  0.00000000000E+00 0. -1.
        -11    1    5    5    0    0 -0.13462797261E+03  0.38720698709E+02  0.33042764318E+02  0.14392987108E+03  0.00000000000E+00 0.  1.
          4    1    6    6  503    0  0.14135648055E+03  0.44397497992E+02 -0.50593193068E+02  0.15656456690E+03  0.00000000000E+00 0.  1.
         -4    1    6    6    0  503  0.10640041995E+03  0.12824941423E+02 -0.12863220739E+03  0.16742691918E+03  0.00000000000E+00 0. -1.
<mgrwt>
<rscale>  0 0.16575203E+04</rscale>
<asrwt>0</asrwt>
<pdfrwt beam="1">  1        2 0.18651849E+00 0.16575203E+04</pdfrwt>
<pdfrwt beam="2">  1       -2 0.87158376E-01 0.16575203E+04</pdfrwt>
<totfact> 0.20230061E+01</totfact>
</mgrwt>
</event>
<event>
12    2  0.3561489E-008  0.2569593E+04  0.7818608E-02  0.8378604E-01
         -1   -1    0    0    0  501 -0.00000000000E+00  0.00000000000E+00  0.10406459586E+04  0.10406459586E+04  0.00000000000E+00 0.  1.
          1   -1    0    0  501    0  0.00000000000E+00 -0.00000000000E+00 -0.15862283156E+04  0.15862283156E+04  0.00000000000E+00 0. -1.
         23    2    1    2    0    0  0.31122214470E+03 -0.73448490486E+03 -0.10513143613E+04  0.13227934276E+04  0.90516667461E+02 0.  0.
        254    2    1    2    0    0 -0.31122214470E+03  0.73448490486E+03  0.50573200427E+03  0.13040808466E+04  0.89918557348E+03 0.  0.
         23    2    4    4    0    0  0.24462382329E+03 -0.17315940075E+02  0.86140549497E+02  0.27523718225E+03  0.90524336636E+02 0.  0.
         23    2    4    4    0    0 -0.55584596799E+03  0.75180084493E+03  0.41959145478E+03  0.10288436644E+04  0.91066163939E+02 0.  0.
          4    1    3    3  502    0  0.26158224924E+03 -0.65329496994E+03 -0.87947965358E+03  0.11263676362E+04  0.00000000000E+00 0. -1.
         -4    1    3    3    0  502  0.49639895458E+02 -0.81189934917E+02 -0.17183470771E+03  0.19642579140E+03  0.00000000000E+00 0.  1.
         11    1    5    5    0    0  0.23707227048E+02  0.26644298046E+02  0.60488284964E+01  0.36173741289E+02  0.00000000000E+00 0. -1.
        -11    1    5    5    0    0  0.22091659625E+03 -0.43960238121E+02  0.80091721001E+02  0.23906344096E+03  0.00000000000E+00 0.  1.
          1    1    6    6  503    0 -0.10543490246E+03  0.15556085862E+03  0.46281853273E+02  0.19353994247E+03  0.00000000000E+00 0. -1.
         -1    1    6    6    0  503 -0.45041106553E+03  0.59623998631E+03  0.37330960150E+03  0.83530372189E+03  0.00000000000E+00 0.  1.
<mgrwt>
<rscale>  0 0.25695930E+04</rscale>
<asrwt>0</asrwt>
<pdfrwt beam="1">  1        1 0.24403513E+00 0.25695930E+04</pdfrwt>
<pdfrwt beam="2">  1       -1 0.16009938E+00 0.25695930E+04</pdfrwt>
<totfact> 0.14692930E+00</totfact>
</mgrwt>
</event>
<event>
12    2  0.3561489E-008  0.1653112E+04  0.7818608E-02  0.8788567E-01
          1   -1    0    0  501    0  0.00000000000E+00  0.00000000000E+00  0.19825316855E+04  0.19825316855E+04  0.00000000000E+00 0. -1.
         -1   -1    0    0    0  501 -0.00000000000E+00 -0.00000000000E+00 -0.34460743669E+03  0.34460743669E+03  0.00000000000E+00 0.  1.
         23    2    1    2    0    0 -0.55239823154E+03  0.14817757708E+03  0.48535450858E+03  0.75576662992E+03  0.92270251638E+02 0.  0.
        254    2    1    2    0    0  0.55239823154E+03 -0.14817757708E+03  0.11525697402E+04  0.15713724922E+04  0.90204994472E+03 0.  0.
         23    2    4    4    0    0  0.34969840428E+02 -0.18147141261E+03  0.10032608110E+04  0.10241791812E+04  0.90862406712E+02 0.  0.
         23    2    4    4    0    0  0.51742839112E+03  0.33293835534E+02  0.14930892922E+03  0.54719331107E+03  0.91031554504E+02 0.  0.
          1    1    3    3  502    0 -0.53847142084E+02  0.13065103326E+02  0.88361573190E+02  0.10429755152E+03  0.00000000000E+00 0. -1.
         -1    1    3    3    0  502 -0.49855108946E+03  0.13511247375E+03  0.39699293539E+03  0.65146907840E+03  0.00000000000E+00 0.  1.
         11    1    5    5    0    0  0.40632762926E+02 -0.31703273448E+02  0.36117236655E+03  0.36483091609E+03  0.00000000000E+00 0.  1.
        -11    1    5    5    0    0 -0.56629224979E+01 -0.14976813916E+03  0.64208844444E+03  0.65934826510E+03  0.00000000000E+00 0. -1.
          3    1    6    6  503    0  0.25884804054E+03  0.44098587555E+02  0.11297141719E+03  0.28584879678E+03  0.00000000000E+00 0. -1.
         -3    1    6    6    0  503  0.25858035057E+03 -0.10804752021E+02  0.36337512027E+02  0.26134451429E+03  0.00000000000E+00 0.  1.
<mgrwt>
<rscale>  0 0.16531124E+04</rscale>
<asrwt>0</asrwt>
<pdfrwt beam="1">  1        1 0.30500487E+00 0.16531124E+04</pdfrwt>
<pdfrwt beam="2">  1       -1 0.53016530E-01 0.16531124E+04</pdfrwt>
<totfact> 0.10498780E+01</totfact>
</mgrwt>
</event>
<event>
12    2  0.3561489E-008  0.1446417E+04  0.7818608E-02  0.8920888E-01
         -1   -1    0    0    0  501 -0.00000000000E+00  0.00000000000E+00  0.23955671557E+03  0.23955671557E+03  0.00000000000E+00 0.  1.
          1   -1    0    0  501    0  0.00000000000E+00 -0.00000000000E+00 -0.21833267091E+04  0.21833267091E+04  0.00000000000E+00 0. -1.
         23    2    1    2    0    0 -0.10436677971E+03  0.23761273612E+03 -0.22365135586E+02  0.27613157270E+03  0.91630830412E+02 0.  0.
        254    2    1    2    0    0  0.10436677971E+03 -0.23761273612E+03 -0.19214048579E+04  0.21467518519E+04  0.92162608944E+03 0.  0.
         23    2    4    4    0    0  0.13238552272E+03 -0.24191519374E+03 -0.78396122949E+02  0.30085609906E+03  0.91211581810E+02 0.  0.
         23    2    4    4    0    0 -0.28018743017E+02  0.43024576253E+01 -0.18430087350E+04  0.18458957529E+04  0.99228888315E+02 0.  0.
          3    1    3    3  502    0  0.62154952297E+01  0.28632177450E+02  0.20611598817E+02  0.35822785658E+02  0.00000000000E+00 0. -1.
         -3    1    3    3    0  502 -0.11058227494E+03  0.20898055867E+03 -0.42976734404E+02  0.24030878704E+03  0.00000000000E+00 0.  1.
         11    1    5    5    0    0  0.11339005635E+03 -0.14461761540E+03 -0.82934714835E+02  0.20161777324E+03  0.00000000000E+00 0.  1.
        -11    1    5    5    0    0  0.18995466377E+02 -0.97297578347E+02  0.45385918857E+01  0.99238325819E+02  0.00000000000E+00 0. -1.
          1    1    6    6  503    0  0.36885534613E+02  0.59081097891E+00 -0.81396344268E+03  0.81479897996E+03  0.00000000000E+00 0. -1.
         -1    1    6    6    0  503 -0.64904277630E+02  0.37116466464E+01 -0.10290452923E+04  0.10310967729E+04  0.00000000000E+00 0.  1.
<mgrwt>
<rscale>  0 0.14464171E+04</rscale>
<asrwt>0</asrwt>
<pdfrwt beam="1">  1        1 0.33589643E+00 0.14464171E+04</pdfrwt>
<pdfrwt beam="2">  1       -1 0.36854878E-01 0.14464171E+04</pdfrwt>
<totfact> 0.15383221E+01</totfact>
</mgrwt>
</event>
<event>
12    2  0.3561489E-008  0.1466299E+04  0.7818608E-02  0.8907178E-01
          1   -1    0    0  501    0  0.00000000000E+00  0.00000000000E+00  0.19117160917E+04  0.19117160917E+04  0.00000000000E+00 0. -1.
         -1   -1    0    0    0  501 -0.00000000000E+00 -0.00000000000E+00 -0.28116543150E+03  0.28116543150E+03  0.00000000000E+00 0.  1.
         23    2    1    2    0    0  0.63763612400E+02  0.45570468095E+03  0.65042084778E+03  0.80195198681E+03  0.91362768212E+02 0.  0.
        254    2    1    2    0    0 -0.63763612400E+02 -0.45570468095E+03  0.98012981243E+03  0.13909295364E+04  0.87309677100E+03 0.  0.
         23    2    4    4    0    0 -0.23364177211E+03  0.17639814606E+03  0.44489475462E+03  0.54042723123E+03  0.91790336924E+02 0.  0.
         23    2    4    4    0    0  0.16987815971E+03 -0.63210282701E+03  0.53523505781E+03  0.85050230518E+03  0.92005602760E+02 0.  0.
          1    1    3    3  502    0  0.20016342695E+02  0.32507574603E+03  0.51088841143E+03  0.60587281137E+03  0.00000000000E+00 0. -1.
         -1    1    3    3    0  502  0.43747269705E+02  0.13062893492E+03  0.13953243636E+03  0.19607917544E+03  0.00000000000E+00 0.  1.
         11    1    5    5    0    0 -0.42957716976E+02 -0.46657063251E+01  0.51258749530E+02  0.67041730785E+02  0.00000000000E+00 0. -1.
        -11    1    5    5    0    0 -0.19068405513E+03  0.18106385239E+03  0.39363600509E+03  0.47338550044E+03  0.00000000000E+00 0.  1.
          1    1    6    6  503    0  0.11008983022E+03 -0.23862888452E+03  0.22253735143E+03  0.34436374378E+03  0.00000000000E+00 0. -1.
         -1    1    6    6    0  503  0.59788329494E+02 -0.39347394249E+03  0.31269770637E+03  0.50613856140E+03  0.00000000000E+00 0.  1.
<mgrwt>
<rscale>  0 0.14662994E+04</rscale>
<asrwt>0</asrwt>
<pdfrwt beam="1">  1        1 0.29411016E+00 0.14662994E+04</pdfrwt>
<pdfrwt beam="2">  1       -1 0.43256221E-01 0.14662994E+04</pdfrwt>
<totfact> 0.17501214E+01</totfact>
</mgrwt>
</event>
<event>
12    2  0.3561489E-008  0.2234800E+04  0.7818608E-02  0.8504082E-01
          1   -1    0    0  501    0  0.00000000000E+00  0.00000000000E+00  0.11615923811E+04  0.11615923811E+04  0.00000000000E+00 0. -1.
         -1   -1    0    0    0  501 -0.00000000000E+00 -0.00000000000E+00 -0.10748884551E+04  0.10748884551E+04  0.00000000000E+00 0.  1.
         23    2    1    2    0    0  0.12242094352E+03  0.43311324782E+03 -0.78414188831E+03  0.91210883035E+03  0.12037460090E+03 0.  0.
        254    2    1    2    0    0 -0.12242094352E+03 -0.43311324782E+03  0.87084581427E+03  0.13243720058E+04  0.89051378696E+03 0.  0.
         23    2    4    4    0    0 -0.62622132606E+02 -0.96553362945E+02 -0.17024502812E+03  0.22480084635E+03  0.91148052815E+02 0.  0.
         23    2    4    4    0    0 -0.59798810919E+02 -0.33655988487E+03  0.10410908424E+04  0.10995711595E+04  0.91313409611E+02 0.  0.
          2    1    3    3  502    0  0.57093643524E+02  0.48082794877E+02 -0.10796217061E+03  0.13125345549E+03  0.00000000000E+00 0. -1.
         -2    1    3    3    0  502  0.65327300001E+02  0.38503045294E+03 -0.67617971770E+03  0.78085537486E+03  0.00000000000E+00 0.  1.
         11    1    5    5    0    0  0.13978417387E+02 -0.29011880748E+02 -0.81531476943E+01  0.33219861446E+02  0.00000000000E+00 0.  1.
        -11    1    5    5    0    0 -0.76600549993E+02 -0.67541482197E+02 -0.16209188043E+03  0.19158098490E+03  0.00000000000E+00 0. -1.
          4    1    6    6  503    0 -0.71097899350E+02 -0.32141938626E+03  0.10170372746E+04  0.10689855710E+04  0.00000000000E+00 0. -1.
         -4    1    6    6    0  503  0.11299088431E+02 -0.15140498614E+02  0.24053567802E+02  0.30585588464E+02  0.00000000000E+00 0.  1.
<mgrwt>
<rscale>  0 0.22347995E+04</rscale>
<asrwt>0</asrwt>
<pdfrwt beam="1">  1        1 0.17870652E+00 0.22347995E+04</pdfrwt>
<pdfrwt beam="2">  1       -1 0.16536745E+00 0.22347995E+04</pdfrwt>
<totfact> 0.27607304E+00</totfact>
</mgrwt>
</event>
<event>
12    2  0.3561489E-008  0.1313060E+04  0.7818608E-02  0.9019272E-01
         -1   -1    0    0    0  501 -0.00000000000E+00  0.00000000000E+00  0.23020652552E+03  0.23020652552E+03  0.00000000000E+00 0.  1.
          1   -1    0    0  501    0  0.00000000000E+00 -0.00000000000E+00 -0.18723704508E+04  0.18723704508E+04  0.00000000000E+00 0. -1.
         23    2    1    2    0    0 -0.22834856660E+03  0.18022987044E+03 -0.78835763242E+03  0.84527277008E+03  0.91391603405E+02 0.  0.
        254    2    1    2    0    0  0.22834856660E+03 -0.18022987044E+03 -0.85380629281E+03  0.12573042062E+04  0.87590114009E+03 0.  0.
         23    2    4    4    0    0 -0.13789673895E+03  0.14992305501E+03 -0.69906936041E+03  0.73258906745E+03  0.80599863844E+02 0.  0.
         23    2    4    4    0    0  0.36624530555E+03 -0.33015292545E+03 -0.15473693240E+03  0.52471513875E+03  0.90806831023E+02 0.  0.
          4    1    3    3  502    0 -0.14012823861E+03  0.10971378452E+03 -0.59812306284E+03  0.62403864950E+03  0.00000000000E+00 0. -1.
         -4    1    3    3    0  502 -0.88220327996E+02  0.70516085916E+02 -0.19023456958E+03  0.22123412058E+03  0.00000000000E+00 0.  1.
         11    1    5    5    0    0 -0.96218038840E+02  0.45204698821E+02 -0.33168776442E+03  0.34830754924E+03  0.00000000000E+00 0. -1.
        -11    1    5    5    0    0 -0.41678700108E+02  0.10471835619E+03 -0.36738159598E+03  0.38428151821E+03  0.00000000000E+00 0.  1.
          1    1    6    6  503    0  0.33485629319E+03 -0.26071191258E+03 -0.14162749127E+03  0.44738996942E+03  0.00000000000E+00 0. -1.
         -1    1    6    6    0  503  0.31389012358E+02 -0.69441012868E+02 -0.13109441132E+02  0.77325169329E+02  0.00000000000E+00 0.  1.
<mgrwt>
<rscale>  0 0.13130604E+04</rscale>
<asrwt>0</asrwt>
<pdfrwt beam="1">  1        1 0.28805699E+00 0.13130604E+04</pdfrwt>
<pdfrwt beam="2">  1       -1 0.35416389E-01 0.13130604E+04</pdfrwt>
<totfact> 0.27145502E+01</totfact>
</mgrwt>
</event>
<event>
12    2  0.3561489E-008  0.1577260E+04  0.7818608E-02  0.8834641E-01
         -1   -1    0    0    0  501 -0.00000000000E+00  0.00000000000E+00  0.19820872856E+04  0.19820872856E+04  0.00000000000E+00 0.  1.
          1   -1    0    0  501    0  0.00000000000E+00 -0.00000000000E+00 -0.31377880682E+03  0.31377880682E+03  0.00000000000E+00 0. -1.
         23    2    1    2    0    0 -0.26153641469E+02 -0.16545452250E+03 -0.16313958285E+03  0.25632266598E+03  0.10501225464E+03 0.  0.
        254    2    1    2    0    0  0.26153641469E+02  0.16545452250E+03  0.18314480616E+04  0.20395434264E+04  0.88174609375E+03 0.  0.
         23    2    4    4    0    0 -0.31632524538E+03 -0.10990068146E+03  0.12918640513E+04  0.13375905420E+04  0.89977276525E+02 0.  0.
         23    2    4    4    0    0  0.34247888684E+03  0.27535520396E+03  0.53958401029E+03  0.70195288441E+03  0.92057978946E+02 0.  0.
          1    1    3    3  502    0 -0.21797895094E+02 -0.15605235187E+03 -0.17830837137E+03  0.23795243234E+03  0.00000000000E+00 0. -1.
         -1    1    3    3    0  502 -0.43557463756E+01 -0.94021706293E+01  0.15168788518E+02  0.18370233644E+02  0.00000000000E+00 0.  1.
         11    1    5    5    0    0 -0.31598195575E+03 -0.11112108999E+03  0.12041650770E+04  0.12498824047E+04  0.00000000000E+00 0.  1.
        -11    1    5    5    0    0 -0.34328962783E+00  0.12204085260E+01  0.87698974321E+02  0.87708137261E+02  0.00000000000E+00 0. -1.
          2    1    6    6  503    0  0.69434371991E+02  0.64393070768E+02  0.18125258550E+03  0.20449963160E+03  0.00000000000E+00 0. -1.
         -2    1    6    6    0  503  0.27304451485E+03  0.21096213319E+03  0.35833142479E+03  0.49745325281E+03  0.00000000000E+00 0.  1.
<mgrwt>
<rscale>  0 0.15772596E+04</rscale>
<asrwt>0</asrwt>
<pdfrwt beam="1">  1        1 0.48273664E-01 0.15772596E+04</pdfrwt>
<pdfrwt beam="2">  1       -1 0.30493650E+00 0.15772596E+04</pdfrwt>
<totfact> 0.24435705E+00</totfact>
</mgrwt>
</event>
<event>
12    2  0.3561489E-008  0.1609968E+04  0.7818608E-02  0.8814448E-01
         -1   -1    0    0    0  501 -0.00000000000E+00  0.00000000000E+00  0.20098148736E+03  0.20098148736E+03  0.00000000000E+00 0.  1.
          1   -1    0    0  501    0  0.00000000000E+00 -0.00000000000E+00 -0.32241738266E+04  0.32241738266E+04  0.00000000000E+00 0. -1.
         23    2    1    2    0    0  0.38434687208E+03  0.11014333318E+02 -0.18312803980E+04  0.18734540486E+04  0.91642470886E+02 0.  0.
        254    2    1    2    0    0 -0.38434687208E+03 -0.11014333318E+02 -0.11919119413E+04  0.15517012654E+04  0.91612166641E+03 0.  0.
         23    2    4    4    0    0 -0.50360359110E+03  0.25286107577E+03 -0.10924482574E+04  0.12326414139E+04  0.91686202026E+02 0.  0.
         23    2    4    4    0    0  0.11925671902E+03 -0.26387540908E+03 -0.99463683905E+02  0.31905985149E+03  0.89742787269E+02 0.  0.
          2    1    3    3  502    0  0.34487644014E+03  0.69027302644E+01 -0.14665463183E+04  0.15065674596E+04  0.00000000000E+00 0. -1.
         -2    1    3    3    0  502  0.39470431934E+02  0.41116030532E+01 -0.36473407966E+03  0.36688658894E+03  0.00000000000E+00 0.  1.
         11    1    5    5    0    0 -0.28443324076E+02 -0.44289908839E+00 -0.28892650377E+02  0.40546320301E+02  0.00000000000E+00 0.  1.
        -11    1    5    5    0    0 -0.47516026702E+03  0.25330397486E+03 -0.10635556070E+04  0.11920950936E+04  0.00000000000E+00 0. -1.
          3    1    6    6  503    0  0.12542762868E+03 -0.26524081007E+03 -0.88593514801E+02  0.30648586954E+03  0.00000000000E+00 0. -1.
         -3    1    6    6    0  503 -0.61709096547E+01  0.13654009855E+01 -0.10870169104E+02  0.12573981954E+02  0.00000000000E+00 0.  1.
<mgrwt>
<rscale>  0 0.16099680E+04</rscale>
<asrwt>0</asrwt>
<pdfrwt beam="1">  1        1 0.49602671E+00 0.16099680E+04</pdfrwt>
<pdfrwt beam="2">  1       -1 0.30920231E-01 0.16099680E+04</pdfrwt>
<totfact> 0.38068405E+00</totfact>
</mgrwt>
</event>
<event>
12    2  0.3561489E-008  0.1945694E+04  0.7818608E-02  0.8632440E-01
          2   -1    0    0  501    0  0.00000000000E+00  0.00000000000E+00  0.13288137419E+04  0.13288137419E+04  0.00000000000E+00 0. -1.
         -2   -1    0    0    0  501 -0.00000000000E+00 -0.00000000000E+00 -0.71223756854E+03  0.71223756854E+03  0.00000000000E+00 0.  1.
         23    2    1    2    0    0 -0.25650829966E+03 -0.48370562900E+03 -0.29301632282E+03  0.62872758181E+03  0.98347157438E+02 0.  0.
        254    2    1    2    0    0  0.25650829966E+03  0.48370562900E+03  0.90959249615E+03  0.14123237286E+04  0.93141406582E+03 0.  0.
         23    2    4    4    0    0  0.17753945116E+03 -0.25543050382E+03  0.33755690165E+03  0.46880300275E+03  0.95218666996E+02 0.  0.
         23    2    4    4    0    0  0.78968848502E+02  0.73913613281E+03  0.57203559450E+03  0.94352072584E+03  0.10221710652E+03 0.  0.
          2    1    3    3  502    0 -0.42729156812E+01 -0.26007984361E+02  0.54349422236E+01  0.26911180872E+02  0.00000000000E+00 0. -1.
         -2    1    3    3    0  502 -0.25223538398E+03 -0.45769764463E+03 -0.29845126504E+03  0.60181640094E+03  0.00000000000E+00 0.  1.
         11    1    5    5    0    0  0.14770654666E+02 -0.89863903933E+02  0.72241155941E+02  0.11624318509E+03  0.00000000000E+00 0. -1.
        -11    1    5    5    0    0  0.16276879649E+03 -0.16556659988E+03  0.26531574571E+03  0.35255981766E+03  0.00000000000E+00 0.  1.
          3    1    6    6  503    0  0.95394257471E+02  0.69212582689E+03  0.54946316554E+03  0.88884644055E+03  0.00000000000E+00 0. -1.
         -3    1    6    6    0  503 -0.16425408969E+02  0.47010305925E+02  0.22572428961E+02  0.54674285292E+02  0.00000000000E+00 0.  1.
<mgrwt>
<rscale>  0 0.19456938E+04</rscale>
<asrwt>0</asrwt>
<pdfrwt beam="1">  1        2 0.20443288E+00 0.19456938E+04</pdfrwt>
<pdfrwt beam="2">  1       -2 0.10957501E+00 0.19456938E+04</pdfrwt>
<totfact> 0.98448230E+00</totfact>
</mgrwt>
</event>
<event>
12    2  0.3561489E-008  0.1665805E+04  0.7818608E-02  0.8781111E-01
          2   -1    0    0  501    0  0.00000000000E+00  0.00000000000E+00  0.85471947463E+03  0.85471947463E+03  0.00000000000E+00 0. -1.
         -2   -1    0    0    0  501 -0.00000000000E+00 -0.00000000000E+00 -0.81164226286E+03  0.81164226286E+03  0.00000000000E+00 0.  1.
         23    2    1    2    0    0 -0.48888918131E+03  0.40807490980E+02 -0.28493599103E+03  0.57409978334E+03  0.87887196601E+02 0.  0.
        254    2    1    2    0    0  0.48888918131E+03 -0.40807490980E+02  0.32801320281E+03  0.10922619541E+04  0.91911132750E+03 0.  0.
         23    2    4    4    0    0 -0.19372858825E+03 -0.17485030043E+03  0.27013186950E+03  0.38812176492E+03  0.97795112444E+02 0.  0.
         23    2    4    4    0    0  0.68261776956E+03  0.13404280945E+03  0.57881333306E+02  0.70414018923E+03  0.92350762045E+02 0.  0.
          1    1    3    3  502    0 -0.31893999182E+03  0.39195853585E+02 -0.23113280848E+03  0.39583002473E+03  0.00000000000E+00 0. -1.
         -1    1    3    3    0  502 -0.16994918949E+03  0.16116373950E+01 -0.53803182548E+02  0.17826975861E+03  0.00000000000E+00 0.  1.
         11    1    5    5    0    0 -0.82031391720E+02 -0.13243246632E+03  0.12235713605E+03  0.19808779898E+03  0.00000000000E+00 0. -1.
        -11    1    5    5    0    0 -0.11169719653E+03 -0.42417834111E+02  0.14777473345E+03  0.19003396594E+03  0.00000000000E+00 0.  1.
          3    1    6    6  503    0  0.53589629556E+03  0.13944034950E+03  0.28953848389E+02  0.55449686743E+03  0.00000000000E+00 0. -1.
         -3    1    6    6    0  503  0.14672147401E+03 -0.53975400456E+01  0.28927484917E+02  0.14964332179E+03  0.00000000000E+00 0.  1.
<mgrwt>
<rscale>  0 0.16658048E+04</rscale>
<asrwt>0</asrwt>
<pdfrwt beam="1">  1        2 0.13149530E+00 0.16658048E+04</pdfrwt>
<pdfrwt beam="2">  1       -2 0.12486804E+00 0.16658048E+04</pdfrwt>
<totfact> 0.14446889E+01</totfact>
</mgrwt>
</event>
<event>
12    2  0.3561489E-008  0.1995470E+04  0.7818608E-02  0.8608742E-01
         -1   -1    0    0    0  501 -0.00000000000E+00  0.00000000000E+00  0.14450433467E+04  0.14450433467E+04  0.00000000000E+00 0.  1.
          1   -1    0    0  501    0  0.00000000000E+00 -0.00000000000E+00 -0.68888942974E+03  0.68888942974E+03  0.00000000000E+00 0. -1.
         23    2    1    2    0    0 -0.24166943186E+03 -0.47927737226E+03 -0.31927586233E+03  0.63112027410E+03  0.90911001858E+02 0.  0.
        254    2    1    2    0    0  0.24166943186E+03  0.47927737226E+03  0.10754297793E+04  0.15028125023E+04  0.90210048950E+03 0.  0.
         23    2    4    4    0    0  0.14248368570E+03  0.62903088107E+03  0.11207809480E+04  0.12962636707E+04  0.90377655276E+02 0.  0.
         23    2    4    4    0    0  0.99185746160E+02 -0.14975350880E+03 -0.45351168727E+02  0.20654883162E+03  0.91333267208E+02 0.  0.
          3    1    3    3  502    0 -0.10545427824E+03 -0.23466881865E+03 -0.20400321485E+03  0.32834032788E+03  0.00000000000E+00 0. -1.
         -3    1    3    3    0  502 -0.13621515362E+03 -0.24460855362E+03 -0.11527264749E+03  0.30277994622E+03  0.00000000000E+00 0.  1.
         11    1    5    5    0    0  0.44591492368E+02  0.10042366583E+03  0.24718132272E+03  0.27050308714E+03  0.00000000000E+00 0. -1.
        -11    1    5    5    0    0  0.97892193329E+02  0.52860721524E+03  0.87359962530E+03  0.10257605836E+04  0.00000000000E+00 0.  1.
          3    1    6    6  503    0  0.48352202858E+02 -0.66428151380E+02 -0.67647409235E+02  0.10642747199E+03  0.00000000000E+00 0. -1.
         -3    1    6    6    0  503  0.50833543302E+02 -0.83325357424E+02  0.22296240509E+02  0.10012135964E+03  0.00000000000E+00 0.  1.
<mgrwt>
<rscale>  0 0.19954700E+04</rscale>
<asrwt>0</asrwt>
<pdfrwt beam="1">  1        1 0.10598299E+00 0.19954700E+04</pdfrwt>
<pdfrwt beam="2">  1       -1 0.22231436E+00 0.19954700E+04</pdfrwt>
<totfact> 0.27505453E+00</totfact>
</mgrwt>
</event>
<event>
12    2  0.3561489E-008  0.1584190E+04  0.7818608E-02  0.8830320E-01
         -2   -1    0    0    0  501 -0.00000000000E+00  0.00000000000E+00  0.10438888553E+04  0.10438888553E+04  0.00000000000E+00 0. -1.
          2   -1    0    0  501    0  0.00000000000E+00 -0.00000000000E+00 -0.60103581816E+03  0.60103581816E+03  0.00000000000E+00 0.  1.
         23    2    1    2    0    0 -0.11773675007E+03 -0.41513541952E+03  0.50793311453E+03  0.67273966904E+03  0.91560114697E+02 0.  0.
        254    2    1    2    0    0  0.11773675007E+03  0.41513541952E+03 -0.65080077412E+02  0.97218500439E+03  0.86873983875E+03 0.  0.
         23    2    4    4    0    0  0.31823385238E+03  0.48798067289E+03 -0.28265055913E+03  0.65409031356E+03  0.92438508204E+02 0.  0.
         23    2    4    4    0    0 -0.20049710230E+03 -0.72845253370E+02  0.21757048172E+03  0.31809469083E+03  0.91333448687E+02 0.  0.
          4    1    3    3  502    0 -0.38894695095E+02 -0.46235713432E+02  0.43721271523E+02  0.74579407927E+02  0.00000000000E+00 0.  1.
         -4    1    3    3    0  502 -0.78842054978E+02 -0.36889970609E+03  0.46421184300E+03  0.59816026111E+03  0.00000000000E+00 0. -1.
         11    1    5    5    0    0  0.67640497095E+02  0.65052754560E+02 -0.17213956631E+02  0.95411833784E+02  0.00000000000E+00 0. -1.
        -11    1    5    5    0    0  0.25059335528E+03  0.42292791833E+03 -0.26543660250E+03  0.55867847977E+03  0.00000000000E+00 0.  1.
          4    1    6    6  503    0 -0.11682745196E+03  0.49891266638E+00  0.82112936968E+02  0.14279858845E+03  0.00000000000E+00 0. -1.
         -4    1    6    6    0  503 -0.83669650339E+02 -0.73344166037E+02  0.13545754475E+03  0.17529610238E+03  0.00000000000E+00 0.  1.
<mgrwt>
<rscale>  0 0.15841901E+04</rscale>
<asrwt>0</asrwt>
<pdfrwt beam="1">  1        2 0.92467049E-01 0.15841901E+04</pdfrwt>
<pdfrwt beam="2">  1       -2 0.16059829E+00 0.15841901E+04</pdfrwt>
<totfact> 0.11838127E+01</totfact>
</mgrwt>
</event>
<event>
12    2  0.3561489E-008  0.3231787E+04  0.7818608E-02  0.8180472E-01
          2   -1    0    0  501    0  0.00000000000E+00  0.00000000000E+00  0.28392493042E+04  0.28392493042E+04  0.00000000000E+00 0. -1.
         -2   -1    0    0    0  501 -0.00000000000E+00 -0.00000000000E+00 -0.91964862799E+03  0.91964862799E+03  0.00000000000E+00 0.  1.
         23    2    1    2    0    0 -0.94145743594E+03  0.19815773955E+03  0.22058563493E+04  0.24082862439E+04  0.91824862476E+02 0.  0.
        254    2    1    2    0    0  0.94145743594E+03 -0.19815773955E+03 -0.28625567308E+03  0.13506116883E+04  0.90365979702E+03 0.  0.
         23    2    4    4    0    0  0.86520505198E+03  0.14752722954E+03 -0.39861297228E+03  0.96828358079E+03  0.91305671977E+02 0.  0.
         23    2    4    4    0    0  0.76252383963E+02 -0.34568496909E+03  0.11235729920E+03  0.38232810750E+03  0.90763953133E+02 0.  0.
          3    1    3    3  502    0 -0.49250740301E+03  0.12419377579E+03  0.12657848605E+04  0.13638911060E+04  0.00000000000E+00 0. -1.
         -3    1    3    3    0  502 -0.44895003294E+03  0.73963963758E+02  0.94007148884E+03  0.10443951379E+04  0.00000000000E+00 0.  1.
         11    1    5    5    0    0  0.40105152717E+03  0.80146906791E+02 -0.23414603722E+03  0.47126449140E+03  0.00000000000E+00 0. -1.
        -11    1    5    5    0    0  0.46415352482E+03  0.67380322748E+02 -0.16446693506E+03  0.49701908939E+03  0.00000000000E+00 0.  1.
          3    1    6    6  503    0  0.10767154688E+02  0.80553215343E+00 -0.31841089219E+01  0.11256955706E+02  0.00000000000E+00 0. -1.
         -3    1    6    6    0  503  0.65485229274E+02 -0.34649050124E+03  0.11554140812E+03  0.37107115180E+03  0.00000000000E+00 0.  1.
<mgrwt>
<rscale>  0 0.32317870E+04</rscale>
<asrwt>0</asrwt>
<pdfrwt beam="1">  1        2 0.43680758E+00 0.32317870E+04</pdfrwt>
<pdfrwt beam="2">  1       -2 0.14148441E+00 0.32317870E+04</pdfrwt>
<totfact> 0.64202260E-01</totfact>
</mgrwt>
</event>
<event>
12    2  0.3561489E-008  0.1490180E+04  0.7818608E-02  0.8891009E-01
         -2   -1    0    0    0  501 -0.00000000000E+00  0.00000000000E+00  0.72484469699E+03  0.72484469699E+03  0.00000000000E+00 0.  1.
          2   -1    0    0  501    0  0.00000000000E+00 -0.00000000000E+00 -0.76590074831E+03  0.76590074831E+03  0.00000000000E+00 0. -1.
         23    2    1    2    0    0  0.68603075409E+01 -0.21427381315E+03  0.40473466439E+03  0.46704990334E+03  0.91461100125E+02 0.  0.
        254    2    1    2    0    0 -0.68603075409E+01  0.21427381315E+03 -0.44579071572E+03  0.10236955420E+04  0.89624933450E+03 0.  0.
         23    2    4    4    0    0 -0.40079101957E+03  0.23297451062E+02 -0.40047875662E+03  0.57450971885E+03  0.92206127569E+02 0.  0.
         23    2    4    4    0    0  0.39393071202E+03  0.19097636208E+03 -0.45311959093E+02  0.44918582310E+03  0.89785039336E+02 0.  0.
          2    1    3    3  502    0  0.40196410804E+02 -0.47526971813E+02  0.92099664489E+02  0.11116165117E+03  0.00000000000E+00 0. -1.
         -2    1    3    3    0  502 -0.33336103263E+02 -0.16674684133E+03  0.31263499990E+03  0.35588825218E+03  0.00000000000E+00 0.  1.
         11    1    5    5    0    0 -0.30344374806E+03  0.36196027169E+02 -0.25001084553E+03  0.39483374159E+03  0.00000000000E+00 0.  1.
        -11    1    5    5    0    0 -0.97347271507E+02 -0.12898576107E+02 -0.15046791110E+03  0.17967597726E+03  0.00000000000E+00 0. -1.
          4    1    6    6  503    0  0.20271229592E+02  0.35773188149E+02  0.51592370178E+01  0.41439853597E+02  0.00000000000E+00 0. -1.
         -4    1    6    6    0  503  0.37365948243E+03  0.15520317393E+03 -0.50471196111E+02  0.40774596951E+03  0.00000000000E+00 0.  1.
<mgrwt>
<rscale>  0 0.14901800E+04</rscale>
<asrwt>0</asrwt>
<pdfrwt beam="1">  1        2 0.11783088E+00 0.14901800E+04</pdfrwt>
<pdfrwt beam="2">  1       -2 0.11151457E+00 0.14901800E+04</pdfrwt>
<totfact> 0.22424083E+01</totfact>
</mgrwt>
</event>
<event>
12    2  0.3561489E-008  0.1666602E+04  0.7818608E-02  0.8780645E-01
         -2   -1    0    0    0  501 -0.00000000000E+00  0.00000000000E+00  0.28827105479E+03  0.28827105479E+03  0.00000000000E+00 0.  1.
          2   -1    0    0  501    0  0.00000000000E+00 -0.00000000000E+00 -0.24088116465E+04  0.24088116465E+04  0.00000000000E+00 0. -1.
         23    2    1    2    0    0  0.49559331050E+03  0.13801970600E+03 -0.66503335460E+03  0.84576383518E+03  0.91569282569E+02 0.  0.
        254    2    1    2    0    0 -0.49559331050E+03 -0.13801970600E+03 -0.14555072371E+04  0.18513188661E+04  0.10218698832E+04 0.  0.
         23    2    4    4    0    0 -0.54559150067E+02  0.41522213178E+03 -0.60852959289E+03  0.74434531904E+03  0.91408801398E+02 0.  0.
         23    2    4    4    0    0 -0.44103416043E+03 -0.55324183778E+03 -0.84697764424E+03  0.11069735471E+04  0.86206974173E+02 0.  0.
          4    1    3    3  502    0  0.34936104579E+03  0.88698885032E+02 -0.39497377864E+03  0.53471947630E+03  0.00000000000E+00 0. -1.
         -4    1    3    3    0  502  0.14623226471E+03  0.49320820972E+02 -0.27005957596E+03  0.31104435888E+03  0.00000000000E+00 0.  1.
         11    1    5    5    0    0 -0.30826083861E+02  0.92080381373E+02 -0.20497752123E+03  0.22681452399E+03  0.00000000000E+00 0.  1.
        -11    1    5    5    0    0 -0.23733066206E+02  0.32314175040E+03 -0.40355207166E+03  0.51753079505E+03  0.00000000000E+00 0. -1.
          4    1    6    6  503    0 -0.70942014871E+02 -0.96765957983E+02 -0.97665275664E+02  0.15470916640E+03  0.00000000000E+00 0.  1.
         -4    1    6    6    0  503 -0.37009214556E+03 -0.45647587980E+03 -0.74931236858E+03  0.95226438070E+03  0.00000000000E+00 0. -1.
<mgrwt>
<rscale>  0 0.16666021E+04</rscale>
<asrwt>0</asrwt>
<pdfrwt beam="1">  1        2 0.37058639E+00 0.16666021E+04</pdfrwt>
<pdfrwt beam="2">  1       -2 0.44349395E-01 0.16666021E+04</pdfrwt>
<totfact> 0.18100169E+01</totfact>
</mgrwt>
</event>
<event>
12    2  0.3561489E-008  0.1477213E+04  0.7818608E-02  0.8899749E-01
         -1   -1    0    0    0  501 -0.00000000000E+00  0.00000000000E+00  0.29432958579E+03  0.29432958579E+03  0.00000000000E+00 0.  1.
          1   -1    0    0  501    0  0.00000000000E+00 -0.00000000000E+00 -0.18534993449E+04  0.18534993449E+04  0.00000000000E+00 0. -1.
         23    2    1    2    0    0 -0.19393482445E+03 -0.30599064947E+03 -0.90472075689E+03  0.97889544146E+03  0.92063259072E+02 0.  0.
        254    2    1    2    0    0  0.19393482445E+03  0.30599064947E+03 -0.65444900225E+03  0.11689334892E+04  0.89825442500E+03 0.  0.
         23    2    4    4    0    0  0.29912685193E+03  0.42947882041E+03 -0.77986945284E+03  0.94365749135E+03  0.91455818831E+02 0.  0.
         23    2    4    4    0    0 -0.10519202747E+03 -0.12348817093E+03  0.12542045059E+03  0.22527599789E+03  0.93296810212E+02 0.  0.
          4    1    3    3  502    0 -0.18006121632E+03 -0.30635004500E+03 -0.89157159406E+03  0.95977721323E+03  0.00000000000E+00 0. -1.
         -4    1    3    3    0  502 -0.13873608131E+02  0.35939552803E+00 -0.13149162823E+02  0.19118228231E+02  0.00000000000E+00 0.  1.
         11    1    5    5    0    0  0.24772121795E+03  0.38863486634E+03 -0.63515080066E+03  0.78474161400E+03  0.00000000000E+00 0.  1.
        -11    1    5    5    0    0  0.51405633979E+02  0.40843954065E+02 -0.14471865218E+03  0.15891587736E+03  0.00000000000E+00 0. -1.
          1    1    6    6  503    0  0.14202976302E+01  0.12131334038E+02  0.18988717448E+02  0.22577818788E+02  0.00000000000E+00 0. -1.
         -1    1    6    6    0  503 -0.10661232510E+03 -0.13561950497E+03  0.10643173314E+03  0.20269817910E+03  0.00000000000E+00 0.  1.
<mgrwt>
<rscale>  0 0.14772132E+04</rscale>
<asrwt>0</asrwt>
<pdfrwt beam="1">  1        1 0.28515375E+00 0.14772132E+04</pdfrwt>
<pdfrwt beam="2">  1       -1 0.45281474E-01 0.14772132E+04</pdfrwt>
<totfact> 0.17582881E+01</totfact>
</mgrwt>
</event>
<event>
12    2  0.3561489E-008  0.1652841E+04  0.7818608E-02  0.8788727E-01
          2   -1    0    0  501    0  0.00000000000E+00  0.00000000000E+00  0.28334783055E+04  0.28334783055E+04  0.00000000000E+00 0. -1.
         -2   -1    0    0    0  501 -0.00000000000E+00 -0.00000000000E+00 -0.24103630189E+03  0.24103630189E+03  0.00000000000E+00 0.  1.
         23    2    1    2    0    0 -0.53159326607E+02 -0.45785993221E+03  0.25475503279E+03  0.53478670316E+03  0.92925021448E+02 0.  0.
        254    2    1    2    0    0  0.53159326607E+02  0.45785993221E+03  0.23376869708E+04  0.25397279042E+04  0.87919043582E+03 0.  0.
         23    2    4    4    0    0  0.28394827701E+03  0.57038483257E+03  0.11162186317E+04  0.12883903243E+04  0.89666676047E+02 0.  0.
         23    2    4    4    0    0 -0.23078895040E+03 -0.11252490035E+03  0.12214683391E+04  0.12513375799E+04  0.89081101324E+02 0.  0.
          4    1    3    3  502    0 -0.14022817630E+02 -0.33287784956E+03  0.22011041989E+03  0.39931553824E+03  0.00000000000E+00 0.  1.
         -4    1    3    3    0  502 -0.39136508977E+02 -0.12498208266E+03  0.34644612903E+02  0.13547116492E+03  0.00000000000E+00 0. -1.
         11    1    5    5    0    0  0.27161728435E+03  0.56683237090E+03  0.10755576118E+04  0.12457524080E+04  0.00000000000E+00 0.  1.
        -11    1    5    5    0    0  0.12330992656E+02  0.35524616657E+01  0.40661019939E+02  0.42637916298E+02  0.00000000000E+00 0. -1.
          2    1    6    6  503    0 -0.40090826631E+02  0.99317053787E+01  0.27680705205E+03  0.27987150125E+03  0.00000000000E+00 0. -1.
         -2    1    6    6    0  503 -0.19069812377E+03 -0.12245660573E+03  0.94466128706E+03  0.97146607865E+03  0.00000000000E+00 0.  1.
<mgrwt>
<rscale>  0 0.16528414E+04</rscale>
<asrwt>0</asrwt>
<pdfrwt beam="1">  1        2 0.43591972E+00 0.16528414E+04</pdfrwt>
<pdfrwt beam="2">  1       -2 0.37082510E-01 0.16528414E+04</pdfrwt>
<totfact> 0.14502557E+01</totfact>
</mgrwt>
</event>
<event>
12    2  0.3561489E-008  0.1057978E+04  0.7818608E-02  0.9247146E-01
          2   -1    0    0  501    0  0.00000000000E+00  0.00000000000E+00  0.14536644740E+04  0.14536644740E+04  0.00000000000E+00 0. -1.
         -2   -1    0    0    0  501 -0.00000000000E+00 -0.00000000000E+00 -0.19249914876E+03  0.19249914876E+03  0.00000000000E+00 0.  1.
         23    2    1    2    0    0  0.41888221743E+02 -0.67491055640E+02  0.36818639836E+02  0.12673687121E+03  0.91634909130E+02 0.  0.
        254    2    1    2    0    0 -0.41888221743E+02  0.67491055640E+02  0.12243466854E+04  0.15194267516E+04  0.89628298077E+03 0.  0.
         23    2    4    4    0    0  0.19632763999E+03 -0.22306817767E+03  0.93513664513E+02  0.32428671016E+03  0.90072808459E+02 0.  0.
         23    2    4    4    0    0 -0.23821586173E+03  0.29055923331E+03  0.11308330209E+04  0.11951400414E+04  0.91678419427E+02 0.  0.
          3    1    3    3  502    0  0.60779423936E+02 -0.51060542977E+02  0.54322082898E+02  0.96188388662E+02  0.00000000000E+00 0. -1.
         -3    1    3    3    0  502 -0.18891202193E+02 -0.16430512662E+02 -0.17503443062E+02  0.30548482543E+02  0.00000000000E+00 0.  1.
         11    1    5    5    0    0  0.38868619363E+02 -0.86874581908E+02  0.62353614014E+02  0.11378020800E+03  0.00000000000E+00 0.  1.
        -11    1    5    5    0    0  0.15745902063E+03 -0.13619359576E+03  0.31160050500E+02  0.21050650216E+03  0.00000000000E+00 0. -1.
          1    1    6    6  503    0 -0.19566515761E+03  0.20014280781E+03  0.92346515373E+03  0.96495071770E+03  0.00000000000E+00 0. -1.
         -1    1    6    6    0  503 -0.42550704121E+02  0.90416425493E+02  0.20736786719E+03  0.23018932374E+03  0.00000000000E+00 0.  1.
<mgrwt>
<rscale>  0 0.10579776E+04</rscale>
<asrwt>0</asrwt>
<pdfrwt beam="1">  1        2 0.22364068E+00 0.10579776E+04</pdfrwt>
<pdfrwt beam="2">  1       -2 0.29615255E-01 0.10579776E+04</pdfrwt>
<totfact> 0.14085021E+02</totfact>
</mgrwt>
</event>
<event>
12    2  0.3561489E-008  0.1498452E+04  0.7818608E-02  0.8885483E-01
         -1   -1    0    0    0  501 -0.00000000000E+00  0.00000000000E+00  0.60575918223E+03  0.60575918223E+03  0.00000000000E+00 0.  1.
          1   -1    0    0  501    0  0.00000000000E+00 -0.00000000000E+00 -0.92667142211E+03  0.92667142211E+03  0.00000000000E+00 0. -1.
         23    2    1    2    0    0 -0.32760526528E+02  0.21451954065E+03  0.32323166861E+03  0.39995849917E+03  0.91630802925E+02 0.  0.
        254    2    1    2    0    0  0.32760526528E+02 -0.21451954065E+03 -0.64414390850E+03  0.11324721052E+04  0.90580340513E+03 0.  0.
         23    2    4    4    0    0  0.25826327489E+03 -0.46723734118E+03 -0.22574378037E+03  0.58664889138E+03  0.90476600477E+02 0.  0.
         23    2    4    4    0    0 -0.22550274836E+03  0.25271780054E+03 -0.41840012812E+03  0.54582321380E+03  0.90258170168E+02 0.  0.
          3    1    3    3  502    0 -0.52890209408E+01 -0.52184321705E+01 -0.81212162165E+00  0.74743105608E+01  0.00000000000E+00 0. -1.
         -3    1    3    3    0  502 -0.27471505588E+02  0.21973797282E+03  0.32404379023E+03  0.39248418860E+03  0.00000000000E+00 0.  1.
         11    1    5    5    0    0  0.14383443718E+03 -0.28087776115E+03 -0.85807855527E+02  0.32702239999E+03  0.00000000000E+00 0. -1.
        -11    1    5    5    0    0  0.11442883771E+03 -0.18635958003E+03 -0.13993592485E+03  0.25962649139E+03  0.00000000000E+00 0.  1.
          1    1    6    6  503    0 -0.37411441670E+02  0.31755856829E+02 -0.11976036958E+03  0.12942409564E+03  0.00000000000E+00 0. -1.
         -1    1    6    6    0  503 -0.18809130669E+03  0.22096194371E+03 -0.29863975854E+03  0.41639911816E+03  0.00000000000E+00 0.  1.
<mgrwt>
<rscale>  0 0.14984522E+04</rscale>
<asrwt>0</asrwt>
<pdfrwt beam="1">  1        1 0.14256483E+00 0.14984522E+04</pdfrwt>
<pdfrwt beam="2">  1       -1 0.93193720E-01 0.14984522E+04</pdfrwt>
<totfact> 0.18723657E+01</totfact>
</mgrwt>
</event>
<event>
12    2  0.3561489E-008  0.3341269E+04  0.7818608E-02  0.8152473E-01
         -2   -1    0    0    0  501 -0.00000000000E+00  0.00000000000E+00  0.70235310978E+03  0.70235310978E+03  0.00000000000E+00 0.  1.
          2   -1    0    0  501    0  0.00000000000E+00 -0.00000000000E+00 -0.39738123758E+04  0.39738123758E+04  0.00000000000E+00 0. -1.
         23    2    1    2    0    0  0.15099730003E+04  0.27916135232E+03 -0.17638179668E+04  0.23404041879E+04  0.92132623861E+02 0.  0.
        254    2    1    2    0    0 -0.15099730003E+04 -0.27916135232E+03 -0.15076412992E+04  0.23357612976E+04  0.90821199635E+03 0.  0.
         23    2    4    4    0    0 -0.30214214967E+03  0.28390268695E+03 -0.21089251886E+03  0.47412506835E+03  0.91805836760E+02 0.  0.
         23    2    4    4    0    0 -0.12078308506E+04 -0.56306403927E+03 -0.12967487803E+04  0.18616362293E+04  0.90750068286E+02 0.  0.
          4    1    3    3  502    0  0.11716028366E+04  0.25453129918E+03 -0.13623339749E+04  0.18147708528E+04  0.00000000000E+00 0. -1.
         -4    1    3    3    0  502  0.33837016370E+03  0.24630053141E+02 -0.40148399194E+03  0.52563333511E+03  0.00000000000E+00 0.  1.
         11    1    5    5    0    0 -0.11788177112E+02  0.50372592301E+02 -0.20067825919E+02  0.55489429731E+02  0.00000000000E+00 0.  1.
        -11    1    5    5    0    0 -0.29035397256E+03  0.23353009465E+03 -0.19082469294E+03  0.41863563862E+03  0.00000000000E+00 0. -1.
          4    1    6    6  503    0 -0.11883353039E+04 -0.54553463667E+03 -0.12835658137E+04  0.18322909246E+04  0.00000000000E+00 0. -1.
         -4    1    6    6    0  503 -0.19495546704E+02 -0.17529402597E+02 -0.13182966601E+02  0.29345304652E+02  0.00000000000E+00 0.  1.
<mgrwt>
<rscale>  0 0.33412689E+04</rscale>
<asrwt>0</asrwt>
<pdfrwt beam="1">  1        2 0.61135574E+00 0.33412689E+04</pdfrwt>
<pdfrwt beam="2">  1       -2 0.10805433E+00 0.33412689E+04</pdfrwt>
<totfact> 0.20466034E-01</totfact>
</mgrwt>
</event>
<event>
12    2  0.3561489E-008  0.1636764E+04  0.7818608E-02  0.8798275E-01
          2   -1    0    0  501    0  0.00000000000E+00  0.00000000000E+00  0.16971583220E+04  0.16971583220E+04  0.00000000000E+00 0.  1.
         -2   -1    0    0    0  501 -0.00000000000E+00 -0.00000000000E+00 -0.39462981038E+03  0.39462981038E+03  0.00000000000E+00 0. -1.
         23    2    1    2    0    0 -0.47549123971E+02  0.34842783141E+02  0.11582631601E+04  0.11632537754E+04  0.90060308808E+02 0.  0.
        254    2    1    2    0    0  0.47549123971E+02 -0.34842783141E+02  0.14426535154E+03  0.92853435700E+03  0.91536256300E+03 0.  0.
         23    2    4    4    0    0  0.10443097489E+03  0.22984195278E+03  0.44098765224E+03  0.51668362299E+03  0.93587953618E+02 0.  0.
         23    2    4    4    0    0 -0.56881850918E+02 -0.26468473592E+03 -0.29672230070E+03  0.41185073401E+03  0.91012905554E+02 0.  0.
          2    1    3    3  502    0 -0.46175600648E+01  0.40868822779E+02  0.20940704496E+03  0.21340780917E+03  0.00000000000E+00 0. -1.
         -2    1    3    3    0  502 -0.42931563906E+02 -0.60260396380E+01  0.94885611513E+03  0.94984596622E+03  0.00000000000E+00 0.  1.
         11    1    5    5    0    0  0.50514152514E+01  0.33585135669E+02  0.14753483354E+02  0.37028953604E+02  0.00000000000E+00 0. -1.
        -11    1    5    5    0    0  0.99379559638E+02  0.19625681711E+03  0.42623416889E+03  0.47965466939E+03  0.00000000000E+00 0.  1.
          1    1    6    6  503    0 -0.16153965297E+02 -0.10710526407E+03 -0.57840181762E+02  0.12279240536E+03  0.00000000000E+00 0. -1.
         -1    1    6    6    0  503 -0.40727885621E+02 -0.15757947185E+03 -0.23888211894E+03  0.28905832865E+03  0.00000000000E+00 0.  1.
<mgrwt>
<rscale>  0 0.16367642E+04</rscale>
<asrwt>0</asrwt>
<pdfrwt beam="1">  1        2 0.26110128E+00 0.16367642E+04</pdfrwt>
<pdfrwt beam="2">  1       -2 0.60712280E-01 0.16367642E+04</pdfrwt>
<totfact> 0.23771336E+01</totfact>
</mgrwt>
</event>
<event>
12    2  0.3561489E-008  0.1426922E+04  0.7818608E-02  0.8934558E-01
          2   -1    0    0  501    0  0.00000000000E+00  0.00000000000E+00  0.90160548562E+03  0.90160548562E+03  0.00000000000E+00 0. -1.
         -2   -1    0    0    0  501 -0.00000000000E+00 -0.00000000000E+00 -0.56457783773E+03  0.56457783773E+03  0.00000000000E+00 0.  1.
         23    2    1    2    0    0  0.27539444034E+03  0.28294945752E+03  0.25482859565E+03  0.48045610353E+03  0.99989804334E+02 0.  0.
        254    2    1    2    0    0 -0.27539444034E+03 -0.28294945752E+03  0.82199052239E+02  0.98572721982E+03  0.89944370275E+03 0.  0.
         23    2    4    4    0    0 -0.30000068765E+02  0.21978474370E+03  0.29403009279E+03  0.37923253517E+03  0.90323211696E+02 0.  0.
         23    2    4    4    0    0 -0.24539437158E+03 -0.50273420123E+03 -0.21183104056E+03  0.60649468465E+03  0.10001668903E+03 0.  0.
          2    1    3    3  502    0  0.20344360701E+03  0.22966892144E+03  0.14673749180E+03  0.34010146458E+03  0.00000000000E+00 0.  1.
         -2    1    3    3    0  502  0.71950833332E+02  0.53280536079E+02  0.10809110385E+03  0.14035463895E+03  0.00000000000E+00 0. -1.
         11    1    5    5    0    0 -0.16482065168E+02  0.22375378684E+02  0.39177190081E+01  0.28065362383E+02  0.00000000000E+00 0.  1.
        -11    1    5    5    0    0 -0.13518003597E+02  0.19740936502E+03  0.29011237379E+03  0.35116717279E+03  0.00000000000E+00 0. -1.
          4    1    6    6  503    0 -0.21951340762E+03 -0.47804882089E+03 -0.17312746855E+03  0.55379592961E+03  0.00000000000E+00 0. -1.
         -4    1    6    6    0  503 -0.25880963957E+02 -0.24685380334E+02 -0.38703572004E+02  0.52698755046E+02  0.00000000000E+00 0.  1.
<mgrwt>
<rscale>  0 0.14269218E+04</rscale>
<asrwt>0</asrwt>
<pdfrwt beam="1">  1        2 0.13870854E+00 0.14269218E+04</pdfrwt>
<pdfrwt beam="2">  1       -2 0.86858129E-01 0.14269218E+04</pdfrwt>
<totfact> 0.32593267E+01</totfact>
</mgrwt>
</event>
<event>
12    2  0.3561489E-008  0.2041490E+04  0.7818608E-02  0.8587465E-01
          2   -1    0    0  501    0  0.00000000000E+00  0.00000000000E+00  0.24401844853E+04  0.24401844853E+04  0.00000000000E+00 0. -1.
         -2   -1    0    0    0  501 -0.00000000000E+00 -0.00000000000E+00 -0.42698413314E+03  0.42698413314E+03  0.00000000000E+00 0.  1.
         23    2    1    2    0    0  0.54803952325E+03  0.46312334137E+03  0.13621305087E+04  0.15422940493E+04  0.91874170718E+02 0.  0.
        254    2    1    2    0    0 -0.54803952325E+03 -0.46312334137E+03  0.65106984342E+03  0.13248745691E+04  0.90364270295E+03 0.  0.
         23    2    4    4    0    0  0.19228286750E+03 -0.26678268819E+03  0.36863814201E+03  0.50336430151E+03  0.96622132228E+02 0.  0.
         23    2    4    4    0    0 -0.74032239076E+03 -0.19634065318E+03  0.28243170141E+03  0.82151026764E+03  0.92111668795E+02 0.  0.
          4    1    3    3  502    0  0.24994988711E+03  0.22745741775E+03  0.54764612025E+03  0.64352785176E+03  0.00000000000E+00 0. -1.
         -4    1    3    3    0  502  0.29808963614E+03  0.23566592362E+03  0.81448438846E+03  0.89876619750E+03  0.00000000000E+00 0.  1.
         11    1    5    5    0    0  0.17999300587E+03 -0.25535933194E+03  0.37247551891E+03  0.48615211895E+03  0.00000000000E+00 0. -1.
        -11    1    5    5    0    0  0.12289861629E+02 -0.11423356246E+02 -0.38373769036E+01  0.17212182554E+02  0.00000000000E+00 0.  1.
          1    1    6    6  503    0 -0.72027948713E+03 -0.17659150870E+03  0.28185659426E+03  0.79336639722E+03  0.00000000000E+00 0. -1.
         -1    1    6    6    0  503 -0.20042903632E+02 -0.19749144484E+02  0.57510715687E+00  0.28143870418E+02  0.00000000000E+00 0.  1.
<mgrwt>
<rscale>  0 0.20414897E+04</rscale>
<asrwt>0</asrwt>
<pdfrwt beam="1">  1        2 0.37541299E+00 0.20414897E+04</pdfrwt>
<pdfrwt beam="2">  1       -2 0.65689868E-01 0.20414897E+04</pdfrwt>
<totfact> 0.74511355E+00</totfact>
</mgrwt>
</event>
<event>
12    2  0.3561489E-008  0.1467250E+04  0.7818608E-02  0.8906528E-01
         -1   -1    0    0    0  501 -0.00000000000E+00  0.00000000000E+00  0.38209400210E+03  0.38209400210E+03  0.00000000000E+00 0.  1.
          1   -1    0    0  501    0  0.00000000000E+00 -0.00000000000E+00 -0.14085681297E+04  0.14085681297E+04  0.00000000000E+00 0. -1.
         23    2    1    2    0    0  0.37906344290E+03  0.18598126827E+03 -0.13106593842E+03  0.45193745293E+03  0.93760627406E+02 0.  0.
        254    2    1    2    0    0 -0.37906344290E+03 -0.18598126827E+03 -0.89540818915E+03  0.13387246788E+04  0.90119355005E+03 0.  0.
         23    2    4    4    0    0 -0.23420320285E+03  0.28256158776E+03 -0.71180215724E+03  0.80625767671E+03  0.93257380946E+02 0.  0.
         23    2    4    4    0    0 -0.14486024006E+03 -0.46854285603E+03 -0.18360603191E+03  0.53246700213E+03  0.96400395821E+02 0.  0.
          2    1    3    3  502    0  0.60209732531E+02  0.87984040190E+01 -0.48799249060E+02  0.77999939190E+02  0.00000000000E+00 0. -1.
         -2    1    3    3    0  502  0.31885371037E+03  0.17718286425E+03 -0.82266689364E+02  0.37393751374E+03  0.00000000000E+00 0.  1.
         11    1    5    5    0    0 -0.98514253652E+02  0.14766342538E+03 -0.43441096125E+03  0.46927862579E+03  0.00000000000E+00 0.  1.
        -11    1    5    5    0    0 -0.13568894919E+03  0.13489816238E+03 -0.27739119599E+03  0.33697905092E+03  0.00000000000E+00 0. -1.
          1    1    6    6  503    0 -0.11064819070E+01 -0.12707338047E+03 -0.25319687390E+02  0.12957605834E+03  0.00000000000E+00 0. -1.
         -1    1    6    6    0  503 -0.14375375815E+03 -0.34146947556E+03 -0.15828634452E+03  0.40289094379E+03  0.00000000000E+00 0.  1.
<mgrwt>
<rscale>  0 0.14672497E+04</rscale>
<asrwt>0</asrwt>
<pdfrwt beam="1">  1        1 0.21670278E+00 0.14672497E+04</pdfrwt>
<pdfrwt beam="2">  1       -1 0.58783694E-01 0.14672497E+04</pdfrwt>
<totfact> 0.21552927E+01</totfact>
</mgrwt>
</event>
<event>
12    2  0.3561489E-008  0.2290621E+04  0.7818608E-02  0.8481628E-01
          1   -1    0    0  501    0  0.00000000000E+00  0.00000000000E+00  0.16056614047E+04  0.16056614047E+04  0.00000000000E+00 0. -1.
         -1   -1    0    0    0  501 -0.00000000000E+00 -0.00000000000E+00 -0.81694434848E+03  0.81694434848E+03  0.00000000000E+00 0.  1.
         23    2    1    2    0    0  0.38388604168E+03 -0.81745887577E+03  0.69415087998E+03  0.11427808037E+04  0.92168402773E+02 0.  0.
        254    2    1    2    0    0 -0.38388604168E+03  0.81745887577E+03  0.94566176226E+02  0.12798249495E+04  0.90188781626E+03 0.  0.
         23    2    4    4    0    0 -0.25080884183E+03  0.80904539695E+03  0.39404197434E+03  0.93973467828E+03  0.10184624955E+03 0.  0.
         23    2    4    4    0    0 -0.13307719985E+03  0.84134788191E+01 -0.29947579811E+03  0.34009027123E+03  0.90527958035E+02 0.  0.
          3    1    3    3  502    0  0.16373456627E+03 -0.39174511111E+03  0.27313917258E+03  0.50485467995E+03  0.00000000000E+00 0. -1.
         -3    1    3    3    0  502  0.22015147541E+03 -0.42571376466E+03  0.42101170740E+03  0.63792612371E+03  0.00000000000E+00 0.  1.
         11    1    5    5    0    0 -0.16245856796E+03  0.36713440215E+03  0.16295156897E+03  0.43328243603E+03  0.00000000000E+00 0.  1.
        -11    1    5    5    0    0 -0.88350273869E+02  0.44191099480E+03  0.23109040537E+03  0.50645224224E+03  0.00000000000E+00 0. -1.
          1    1    6    6  503    0 -0.12197024719E+03  0.39418362371E+02 -0.24173778113E+03  0.27361963255E+03  0.00000000000E+00 0. -1.
         -1    1    6    6    0  503 -0.11106952654E+02 -0.31004883552E+02 -0.57738016981E+02  0.66470638678E+02  0.00000000000E+00 0.  1.
<mgrwt>
<rscale>  0 0.22906209E+04</rscale>
<asrwt>0</asrwt>
<pdfrwt beam="1">  1        1 0.24702483E+00 0.22906209E+04</pdfrwt>
<pdfrwt beam="2">  1       -1 0.12568375E+00 0.22906209E+04</pdfrwt>
<totfact> 0.27618151E+00</totfact>
</mgrwt>
</event>
<event>
12    2  0.3561489E-008  0.1924841E+04  0.7818608E-02  0.8642589E-01
         -2   -1    0    0    0  501 -0.00000000000E+00  0.00000000000E+00  0.16926180178E+04  0.16926180178E+04  0.00000000000E+00 0.  1.
          2   -1    0    0  501    0  0.00000000000E+00 -0.00000000000E+00 -0.54723115104E+03  0.54723115104E+03  0.00000000000E+00 0. -1.
         23    2    1    2    0    0 -0.40596232934E+03 -0.62039424550E+03  0.32488620391E+03  0.81391562179E+03  0.84930331509E+02 0.  0.
        254    2    1    2    0    0  0.40596232934E+03  0.62039424550E+03  0.82050066282E+03  0.14259335470E+04  0.90020592652E+03 0.  0.
         23    2    4    4    0    0  0.61223904705E+03  0.68773928873E+03  0.69808307392E+03  0.11590187374E+04  0.90457037367E+02 0.  0.
         23    2    4    4    0    0 -0.20627671771E+03 -0.67345043230E+02  0.12241758890E+03  0.26691480960E+03  0.95770613427E+02 0.  0.
          3    1    3    3  502    0 -0.36194676553E+03 -0.59190674822E+03  0.30012275860E+03  0.75593169658E+03  0.00000000000E+00 0. -1.
         -3    1    3    3    0  502 -0.44015563815E+02 -0.28487497277E+02  0.24763445308E+02  0.57983925209E+02  0.00000000000E+00 0.  1.
         11    1    5    5    0    0  0.60778302618E+03  0.66566200052E+03  0.68970445574E+03  0.11349882564E+04  0.00000000000E+00 0. -1.
        -11    1    5    5    0    0  0.44560208682E+01  0.22077288210E+02  0.83786181856E+01  0.24030481047E+02  0.00000000000E+00 0.  1.
          4    1    6    6  503    0 -0.26926887306E+02  0.23758507592E+02  0.21557332189E+02  0.41883678374E+02  0.00000000000E+00 0.  1.
         -4    1    6    6    0  503 -0.17934983040E+03 -0.91103550822E+02  0.10086025671E+03  0.22503113122E+03  0.00000000000E+00 0. -1.
<mgrwt>
<rscale>  0 0.19248411E+04</rscale>
<asrwt>0</asrwt>
<pdfrwt beam="1">  1        2 0.84189409E-01 0.19248411E+04</pdfrwt>
<pdfrwt beam="2">  1       -2 0.26040277E+00 0.19248411E+04</pdfrwt>
<totfact> 0.28720525E+00</totfact>
</mgrwt>
</event>
<event>
12    2  0.3561489E-008  0.2330318E+04  0.7818608E-02  0.8466062E-01
          1   -1    0    0  501    0  0.00000000000E+00  0.00000000000E+00  0.14218447681E+04  0.14218447681E+04  0.00000000000E+00 0. -1.
         -1   -1    0    0    0  501 -0.00000000000E+00 -0.00000000000E+00 -0.95481282540E+03  0.95481282540E+03  0.00000000000E+00 0.  1.
         23    2    1    2    0    0 -0.51295173474E+03 -0.11662377322E+03 -0.65428095136E+03  0.84467656388E+03  0.93136177712E+02 0.  0.
        254    2    1    2    0    0  0.51295173474E+03  0.11662377322E+03  0.11213128940E+04  0.15319810296E+04  0.90161115899E+03 0.  0.
         23    2    4    4    0    0  0.70745970126E+03 -0.15886056055E+02  0.10499659953E+04  0.12695323725E+04  0.92370222021E+02 0.  0.
         23    2    4    4    0    0 -0.19450796652E+03  0.13250982927E+03  0.71346898728E+02  0.26244865705E+03  0.91633584109E+02 0.  0.
          2    1    3    3  502    0 -0.26187174924E+03 -0.14870441769E+02 -0.29585092113E+03  0.39538046313E+03  0.00000000000E+00 0. -1.
         -2    1    3    3    0  502 -0.25107998550E+03 -0.10175333145E+03 -0.35843003023E+03  0.44929610075E+03  0.00000000000E+00 0.  1.
         11    1    5    5    0    0  0.29270641676E+03 -0.47982764598E+02  0.40360168149E+03  0.50087294738E+03  0.00000000000E+00 0. -1.
        -11    1    5    5    0    0  0.41475328450E+03  0.32096708543E+02  0.64636431381E+03  0.76865942515E+03  0.00000000000E+00 0.  1.
          2    1    6    6  503    0 -0.20329415548E+03  0.12102662631E+03  0.73686499040E+02  0.24780165066E+03  0.00000000000E+00 0.  1.
         -2    1    6    6    0  503  0.87861889579E+01  0.11483202966E+02 -0.23396003123E+01  0.14647006396E+02  0.00000000000E+00 0. -1.
<mgrwt>
<rscale>  0 0.23303181E+04</rscale>
<asrwt>0</asrwt>
<pdfrwt beam="1">  1        1 0.21874535E+00 0.23303181E+04</pdfrwt>
<pdfrwt beam="2">  1       -1 0.14689428E+00 0.23303181E+04</pdfrwt>
<totfact> 0.24677867E+00</totfact>
</mgrwt>
</event>
<event>
12    2  0.3561489E-008  0.1984906E+04  0.7818608E-02  0.8613710E-01
         -2   -1    0    0    0  501 -0.00000000000E+00  0.00000000000E+00  0.48599651021E+03  0.48599651021E+03  0.00000000000E+00 0.  1.
          2   -1    0    0  501    0  0.00000000000E+00 -0.00000000000E+00 -0.20266864864E+04  0.20266864864E+04  0.00000000000E+00 0. -1.
         23    2    1    2    0    0  0.19831461664E+03 -0.74159158726E+03 -0.40651552179E+03  0.87334573967E+03  0.90504928487E+02 0.  0.
        254    2    1    2    0    0 -0.19831461664E+03  0.74159158726E+03 -0.11341744544E+04  0.16393372569E+04  0.90099288540E+03 0.  0.
         23    2    4    4    0    0 -0.25571713933E+03  0.83734245795E+02 -0.88073865935E+03  0.92562409132E+03  0.93148768623E+02 0.  0.
         23    2    4    4    0    0  0.57402522696E+02  0.65785734146E+03 -0.25343579504E+03  0.71371316562E+03  0.95317622918E+02 0.  0.
          1    1    3    3  502    0  0.51348581378E+02 -0.13777378869E+03 -0.42128533588E+02  0.15294805328E+03  0.00000000000E+00 0. -1.
         -1    1    3    3    0  502  0.14696603526E+03 -0.60381779857E+03 -0.36438698820E+03  0.72039768639E+03  0.00000000000E+00 0.  1.
         11    1    5    5    0    0 -0.53560018505E+02  0.45783650627E+02 -0.13823577850E+03  0.15515781870E+03  0.00000000000E+00 0. -1.
        -11    1    5    5    0    0 -0.20215712083E+03  0.37950595167E+02 -0.74250288084E+03  0.77046627261E+03  0.00000000000E+00 0.  1.
          2    1    6    6  503    0 -0.11061860073E+02  0.33672554458E+03 -0.10111508725E+03  0.35175377466E+03  0.00000000000E+00 0.  1.
         -2    1    6    6    0  503  0.68464382770E+02  0.32113179688E+03 -0.15232070779E+03  0.36195939095E+03  0.00000000000E+00 0. -1.
<mgrwt>
<rscale>  0 0.19849056E+04</rscale>
<asrwt>0</asrwt>
<pdfrwt beam="1">  1        2 0.31179792E+00 0.19849056E+04</pdfrwt>
<pdfrwt beam="2">  1       -2 0.74768694E-01 0.19849056E+04</pdfrwt>
<totfact> 0.96552697E+00</totfact>
</mgrwt>
</event>
<event>
12    2  0.3561489E-008  0.2816938E+04  0.7818608E-02  0.8298029E-01
         -1   -1    0    0    0  501 -0.00000000000E+00  0.00000000000E+00  0.69482099237E+03  0.69482099237E+03  0.00000000000E+00 0.  1.
          1   -1    0    0  501    0  0.00000000000E+00 -0.00000000000E+00 -0.28551031498E+04  0.28551031498E+04  0.00000000000E+00 0. -1.
         23    2    1    2    0    0 -0.11482040513E+03  0.13309999162E+03  0.60710164640E+03  0.63879491840E+03  0.92667176016E+02 0.  0.
        254    2    1    2    0    0  0.11482040513E+03 -0.13309999162E+03 -0.27673838038E+04  0.29111292238E+04  0.88620590528E+03 0.  0.
         23    2    4    4    0    0 -0.31959199365E+03 -0.26536216614E+03 -0.15846329485E+04  0.16409307311E+04  0.95057672197E+02 0.  0.
         23    2    4    4    0    0  0.43441239878E+03  0.13226217452E+03 -0.11827508553E+04  0.12701984927E+04  0.91089022753E+02 0.  0.
          4    1    3    3  502    0 -0.13056281690E+02 -0.12328994471E+02  0.29500741059E+02  0.34536420187E+02  0.00000000000E+00 0. -1.
         -4    1    3    3    0  502 -0.10176412344E+03  0.14542898609E+03  0.57760090534E+03  0.60425849822E+03  0.00000000000E+00 0.  1.
         11    1    5    5    0    0 -0.39244288511E+02 -0.21176607919E+02 -0.30977740752E+03  0.31297061382E+03  0.00000000000E+00 0. -1.
        -11    1    5    5    0    0 -0.28034770514E+03 -0.24418555822E+03 -0.12748555410E+04  0.13279601172E+04  0.00000000000E+00 0.  1.
          4    1    6    6  503    0  0.16780183184E+03  0.67751981365E+02 -0.35996617627E+03  0.40289382448E+03  0.00000000000E+00 0. -1.
         -4    1    6    6    0  503  0.26661056694E+03  0.64510193151E+02 -0.82278467907E+03  0.86730466823E+03  0.00000000000E+00 0.  1.
<mgrwt>
<rscale>  0 0.28169385E+04</rscale>
<asrwt>0</asrwt>
<pdfrwt beam="1">  1        1 0.43924665E+00 0.28169385E+04</pdfrwt>
<pdfrwt beam="2">  1       -1 0.10689553E+00 0.28169385E+04</pdfrwt>
<totfact> 0.53683424E-01</totfact>
</mgrwt>
</event>
<event>
12    2  0.3561489E-008  0.1212829E+04  0.7818608E-02  0.9101701E-01
          2   -1    0    0  501    0  0.00000000000E+00  0.00000000000E+00  0.21473981178E+04  0.21473981178E+04  0.00000000000E+00 0. -1.
         -2   -1    0    0    0  501 -0.00000000000E+00 -0.00000000000E+00 -0.17124829362E+03  0.17124829362E+03  0.00000000000E+00 0.  1.
         23    2    1    2    0    0  0.10060352200E+03  0.59935199157E+02  0.87870422939E+03  0.89141557189E+03  0.93740611929E+02 0.  0.
        254    2    1    2    0    0 -0.10060352200E+03 -0.59935199157E+02  0.10974455948E+04  0.14272308395E+04  0.90492416205E+03 0.  0.
         23    2    4    4    0    0  0.10360408350E+03 -0.42871726007E+03  0.37484747106E+03  0.58571663270E+03  0.89560326370E+02 0.  0.
         23    2    4    4    0    0 -0.20420760550E+03  0.36878206091E+03  0.72259812374E+03  0.84151420685E+03  0.91088733090E+02 0.  0.
          3    1    3    3  502    0  0.76874688791E+02  0.58631199029E+02  0.84299763462E+03  0.84852362799E+03  0.00000000000E+00 0. -1.
         -3    1    3    3    0  502  0.23728833209E+02  0.13040001285E+01  0.35706594768E+02  0.42891943902E+02  0.00000000000E+00 0.  1.
         11    1    5    5    0    0  0.10299494884E+03 -0.24584632750E+03  0.20690091907E+03  0.33742609050E+03  0.00000000000E+00 0.  1.
        -11    1    5    5    0    0  0.60913465584E+00 -0.18287093257E+03  0.16794655199E+03  0.24829054220E+03  0.00000000000E+00 0. -1.
          2    1    6    6  503    0 -0.20480293165E+03  0.30940480550E+03  0.64011336095E+03  0.73987883423E+03  0.00000000000E+00 0.  1.
         -2    1    6    6    0  503  0.59532615051E+00  0.59377255416E+02  0.82484762792E+02  0.10163537262E+03  0.00000000000E+00 0. -1.
<mgrwt>
<rscale>  0 0.12128285E+04</rscale>
<asrwt>0</asrwt>
<pdfrwt beam="1">  1        2 0.33036892E+00 0.12128285E+04</pdfrwt>
<pdfrwt beam="2">  1       -2 0.26345893E-01 0.12128285E+04</pdfrwt>
<totfact> 0.71224714E+01</totfact>
</mgrwt>
</event>
<event>
12    2  0.3561489E-008  0.1313625E+04  0.7818608E-02  0.9018829E-01
         -1   -1    0    0    0  501 -0.00000000000E+00  0.00000000000E+00  0.39252541394E+03  0.39252541394E+03  0.00000000000E+00 0.  1.
          1   -1    0    0  501    0  0.00000000000E+00 -0.00000000000E+00 -0.10990442749E+04  0.10990442749E+04  0.00000000000E+00 0. -1.
         23    2    1    2    0    0 -0.69376407008E+02 -0.17891426201E+03  0.13137888561E+03  0.24968585932E+03  0.90880238566E+02 0.  0.
        254    2    1    2    0    0  0.69376407008E+02  0.17891426201E+03 -0.83789774653E+03  0.12418838295E+04  0.89631434959E+03 0.  0.
         23    2    4    4    0    0  0.30816043608E+03  0.43425328663E+03 -0.60998609308E+03  0.81487770333E+03  0.91672604035E+02 0.  0.
         23    2    4    4    0    0 -0.23878402907E+03 -0.25533902461E+03 -0.22791165345E+03  0.42700612614E+03  0.90413936744E+02 0.  0.
          2    1    3    3  502    0 -0.26262493318E+02 -0.39850873061E+02  0.83938849102E+02  0.96558485011E+02  0.00000000000E+00 0.  1.
         -2    1    3    3    0  502 -0.43113913691E+02 -0.13906338895E+03  0.47440036506E+02  0.15312737431E+03  0.00000000000E+00 0. -1.
         11    1    5    5    0    0  0.21941729204E+03  0.23135874117E+03 -0.36175006203E+03  0.48221771280E+03  0.00000000000E+00 0. -1.
        -11    1    5    5    0    0  0.88743144040E+02  0.20289454545E+03 -0.24823603105E+03  0.33265999053E+03  0.00000000000E+00 0.  1.
          4    1    6    6  503    0  0.66043519890E+01 -0.72617713419E+01 -0.15969038003E+02  0.18744624908E+02  0.00000000000E+00 0. -1.
         -4    1    6    6    0  503 -0.24538838106E+03 -0.24807725327E+03 -0.21194261545E+03  0.40826150123E+03  0.00000000000E+00 0.  1.
<mgrwt>
<rscale>  0 0.13136252E+04</rscale>
<asrwt>0</asrwt>
<pdfrwt beam="1">  1        1 0.16908373E+00 0.13136252E+04</pdfrwt>
<pdfrwt beam="2">  1       -1 0.60388526E-01 0.13136252E+04</pdfrwt>
<totfact> 0.34661256E+01</totfact>
</mgrwt>
</event>
<event>
12    2  0.3561489E-008  0.2328085E+04  0.7818608E-02  0.8466929E-01
         -1   -1    0    0    0  501 -0.00000000000E+00  0.00000000000E+00  0.10331531949E+04  0.10331531949E+04  0.00000000000E+00 0.  1.
          1   -1    0    0  501    0  0.00000000000E+00 -0.00000000000E+00 -0.13115143767E+04  0.13115143767E+04  0.00000000000E+00 0. -1.
         23    2    1    2    0    0  0.96134933853E+03 -0.20435321363E+03 -0.29754782854E+03  0.10307842878E+04  0.89603298115E+02 0.  0.
        254    2    1    2    0    0 -0.96134933853E+03  0.20435321363E+03  0.19186646800E+02  0.13138832839E+04  0.87176164723E+03 0.  0.
         23    2    4    4    0    0 -0.25855199923E+03  0.47975215980E+03  0.11727822394E+02  0.55376459796E+03  0.97500856380E+02 0.  0.
         23    2    4    4    0    0 -0.70279733929E+03 -0.27539894617E+03  0.74588244065E+01  0.76011868590E+03  0.89196989388E+02 0.  0.
          3    1    3    3  502    0  0.75944324292E+03 -0.19781246893E+03 -0.24283588188E+03  0.82149441727E+03  0.00000000000E+00 0. -1.
         -3    1    3    3    0  502  0.20190609561E+03 -0.65407446983E+01 -0.54711946655E+02  0.20928987050E+03  0.00000000000E+00 0.  1.
         11    1    5    5    0    0 -0.16445355823E+03  0.31762512670E+03 -0.38379958817E+02  0.35972727887E+03  0.00000000000E+00 0. -1.
        -11    1    5    5    0    0 -0.94098441001E+02  0.16212703311E+03  0.50107781210E+02  0.19403731909E+03  0.00000000000E+00 0.  1.
          1    1    6    6  503    0 -0.36903337068E+03 -0.14583681968E+03  0.48446267330E+02  0.39975123198E+03  0.00000000000E+00 0. -1.
         -1    1    6    6    0  503 -0.33376396861E+03 -0.12956212649E+03 -0.40987442924E+02  0.36036745392E+03  0.00000000000E+00 0.  1.
<mgrwt>
<rscale>  0 0.23280853E+04</rscale>
<asrwt>0</asrwt>
<pdfrwt beam="1">  1        1 0.20177144E+00 0.23280853E+04</pdfrwt>
<pdfrwt beam="2">  1       -1 0.15894665E+00 0.23280853E+04</pdfrwt>
<totfact> 0.23825523E+00</totfact>
</mgrwt>
</event>
<event>
12    2  0.3561489E-008  0.1404968E+04  0.7818608E-02  0.8950230E-01
          2   -1    0    0  501    0  0.00000000000E+00  0.00000000000E+00  0.12629494574E+04  0.12629494574E+04  0.00000000000E+00 0. -1.
         -2   -1    0    0    0  501 -0.00000000000E+00 -0.00000000000E+00 -0.39073914952E+03  0.39073914952E+03  0.00000000000E+00 0.  1.
         23    2    1    2    0    0 -0.39655979995E+03  0.11786760094E+03  0.19845858910E+03  0.46764057598E+03  0.90274306541E+02 0.  0.
        254    2    1    2    0    0  0.39655979995E+03 -0.11786760094E+03  0.67375171876E+03  0.11860480309E+04  0.88409055353E+03 0.  0.
         23    2    4    4    0    0  0.30619122914E+03 -0.16460705648E+03 -0.12154969468E+03  0.37882168330E+03  0.88786190469E+02 0.  0.
         23    2    4    4    0    0  0.90368570809E+02  0.46739455542E+02  0.79530141344E+03  0.80722634762E+03  0.93589437333E+02 0.  0.
          1    1    3    3  502    0 -0.32058647966E+03  0.77769703165E+02  0.19153333375E+03  0.38145620405E+03  0.00000000000E+00 0. -1.
         -1    1    3    3    0  502 -0.75973320289E+02  0.40097897776E+02  0.69252553475E+01  0.86184371921E+02  0.00000000000E+00 0.  1.
         11    1    5    5    0    0  0.14455590854E+03 -0.12794685810E+03 -0.64398617313E+02  0.20350427785E+03  0.00000000000E+00 0.  1.
        -11    1    5    5    0    0  0.16163532060E+03 -0.36660198386E+02 -0.57151077364E+02  0.17531740546E+03  0.00000000000E+00 0. -1.
          2    1    6    6  503    0  0.80710613473E+02 -0.82809429534E+01  0.41659889221E+03  0.42442598192E+03  0.00000000000E+00 0. -1.
         -2    1    6    6    0  503  0.96579573359E+01  0.55020398496E+02  0.37870252124E+03  0.38280036570E+03  0.00000000000E+00 0.  1.
<mgrwt>
<rscale>  0 0.14049680E+04</rscale>
<asrwt>0</asrwt>
<pdfrwt beam="1">  1        2 0.19429991E+00 0.14049680E+04</pdfrwt>
<pdfrwt beam="2">  1       -2 0.60113716E-01 0.14049680E+04</pdfrwt>
<totfact> 0.43617205E+01</totfact>
</mgrwt>
</event>
<event>
12    2  0.3561489E-008  0.1354218E+04  0.7818608E-02  0.8987641E-01
         -1   -1    0    0    0  501 -0.00000000000E+00  0.00000000000E+00  0.14056626676E+03  0.14056626676E+03  0.00000000000E+00 0.  1.
          1   -1    0    0  501    0  0.00000000000E+00 -0.00000000000E+00 -0.32616402345E+04  0.32616402345E+04  0.00000000000E+00 0. -1.
         23    2    1    2    0    0 -0.18044212549E+03  0.10742302257E+03 -0.10564122365E+03  0.25029099805E+03  0.85944453797E+02 0.  0.
        254    2    1    2    0    0  0.18044212549E+03 -0.10742302257E+03 -0.30154327441E+04  0.31519155032E+04  0.89310561461E+03 0.  0.
         23    2    4    4    0    0  0.12938051080E+03 -0.48161899449E+03 -0.20355263763E+04  0.20976955361E+04  0.90899730183E+02 0.  0.
         23    2    4    4    0    0  0.51061614691E+02  0.37419597193E+03 -0.97990636781E+03  0.10542199672E+04  0.92376055466E+02 0.  0.
          2    1    3    3  502    0 -0.17076953929E+02 -0.14180153166E+02 -0.35483680909E+01  0.22478656886E+02  0.00000000000E+00 0. -1.
         -2    1    3    3    0  502 -0.16336517157E+03  0.12160317573E+03 -0.10209285556E+03  0.22781234116E+03  0.00000000000E+00 0.  1.
         11    1    5    5    0    0  0.11570793874E+03 -0.40567584106E+03 -0.18342284363E+04  0.18821145480E+04  0.00000000000E+00 0.  1.
        -11    1    5    5    0    0  0.13672572060E+02 -0.75943153433E+02 -0.20129793995E+03  0.21558098805E+03  0.00000000000E+00 0. -1.
          3    1    6    6  503    0  0.71518018171E+02  0.31150019765E+03 -0.85843267568E+03  0.91599883119E+03  0.00000000000E+00 0. -1.
         -3    1    6    6    0  503 -0.20456403480E+02  0.62695774278E+02 -0.12147369213E+03  0.13822113599E+03  0.00000000000E+00 0.  1.
<mgrwt>
<rscale>  0 0.13542180E+04</rscale>
<asrwt>0</asrwt>
<pdfrwt beam="1">  1        1 0.50179078E+00 0.13542180E+04</pdfrwt>
<pdfrwt beam="2">  1       -1 0.21625581E-01 0.13542180E+04</pdfrwt>
<totfact> 0.67847155E+00</totfact>
</mgrwt>
</event>
<event>
12    2  0.3561489E-008  0.2439441E+04  0.7818608E-02  0.8424883E-01
         -1   -1    0    0    0  501 -0.00000000000E+00  0.00000000000E+00  0.46697837580E+03  0.46697837580E+03  0.00000000000E+00 0.  1.
          1   -1    0    0  501    0  0.00000000000E+00 -0.00000000000E+00 -0.31858391482E+04  0.31858391482E+04  0.00000000000E+00 0. -1.
         23    2    1    2    0    0  0.61919545700E+03  0.38662693022E+03 -0.23243201802E+04  0.24380629966E+04  0.93826850186E+02 0.  0.
        254    2    1    2    0    0 -0.61919545700E+03 -0.38662693022E+03 -0.39454059217E+03  0.12147545275E+04  0.88717691919E+03 0.  0.
         23    2    4    4    0    0 -0.62687650130E+03 -0.37672549944E+03 -0.62504214499E+03  0.96633744801E+03  0.90742110380E+02 0.  0.
         23    2    4    4    0    0  0.76810443006E+01 -0.99014307784E+01  0.23050155281E+03  0.24841707944E+03  0.91777136240E+02 0.  0.
          2    1    3    3  502    0  0.31944223017E+03  0.20815383596E+03 -0.13662572686E+04  0.14184605324E+04  0.00000000000E+00 0. -1.
         -2    1    3    3    0  502  0.29975322683E+03  0.17847309426E+03 -0.95806291162E+03  0.10196024642E+04  0.00000000000E+00 0.  1.
         11    1    5    5    0    0 -0.56585234269E+03 -0.34800245512E+03 -0.53012830663E+03  0.84990034945E+03  0.00000000000E+00 0. -1.
        -11    1    5    5    0    0 -0.61024158610E+02 -0.28723044320E+02 -0.94913838361E+02  0.11643709856E+03  0.00000000000E+00 0.  1.
          1    1    6    6  503    0  0.38052910293E+02 -0.32991609313E+01  0.20407890945E+03  0.20762251738E+03  0.00000000000E+00 0. -1.
         -1    1    6    6    0  503 -0.30371865992E+02 -0.66022698471E+01  0.26422643369E+02  0.40794562059E+02  0.00000000000E+00 0.  1.
<mgrwt>
<rscale>  0 0.24394409E+04</rscale>
<asrwt>0</asrwt>
<pdfrwt beam="1">  1        1 0.49012908E+00 0.24394409E+04</pdfrwt>
<pdfrwt beam="2">  1       -1 0.71842830E-01 0.24394409E+04</pdfrwt>
<totfact> 0.76107163E-01</totfact>
</mgrwt>
</event>
<event>
12    2  0.3561489E-008  0.1489923E+04  0.7818608E-02  0.8891182E-01
         -2   -1    0    0    0  501 -0.00000000000E+00  0.00000000000E+00  0.35443822531E+03  0.35443822531E+03  0.00000000000E+00 0.  1.
          2   -1    0    0  501    0  0.00000000000E+00 -0.00000000000E+00 -0.15657671428E+04  0.15657671428E+04  0.00000000000E+00 0. -1.
         23    2    1    2    0    0  0.35446433695E+02 -0.22012670286E+03 -0.91468470031E+03  0.94547652949E+03  0.86980180841E+02 0.  0.
        254    2    1    2    0    0 -0.35446433695E+02  0.22012670286E+03 -0.29664421716E+03  0.97472883861E+03  0.90132474851E+03 0.  0.
         23    2    4    4    0    0  0.31814154540E+03  0.15121762577E+02  0.14819909342E+03  0.36340815009E+03  0.93058055242E+02 0.  0.
         23    2    4    4    0    0 -0.35358797910E+03  0.20500494028E+03 -0.44484331058E+03  0.61132068852E+03  0.93679927088E+02 0.  0.
          1    1    3    3  502    0  0.23485491676E+02 -0.22354749307E+03 -0.88842353062E+03  0.91641771029E+03  0.00000000000E+00 0. -1.
         -1    1    3    3    0  502  0.11960942019E+02  0.34207902107E+01 -0.26261169696E+02  0.29058819202E+02  0.00000000000E+00 0.  1.
         11    1    5    5    0    0  0.29775819257E+03  0.22209496028E+02  0.16006233997E+03  0.33878187029E+03  0.00000000000E+00 0.  1.
        -11    1    5    5    0    0  0.20383352833E+02 -0.70877334504E+01 -0.11863246553E+02  0.24626279803E+02  0.00000000000E+00 0. -1.
          3    1    6    6  503    0 -0.14586991135E+03  0.65932146589E+02 -0.11338240549E+03  0.19616485125E+03  0.00000000000E+00 0. -1.
         -3    1    6    6    0  503 -0.20771806775E+03  0.13907279369E+03 -0.33146090509E+03  0.41515583727E+03  0.00000000000E+00 0.  1.
<mgrwt>
<rscale>  0 0.14899231E+04</rscale>
<asrwt>0</asrwt>
<pdfrwt beam="1">  1        2 0.24088725E+00 0.14899231E+04</pdfrwt>
<pdfrwt beam="2">  1       -2 0.54528957E-01 0.14899231E+04</pdfrwt>
<totfact> 0.35665549E+01</totfact>
</mgrwt>
</event>
<event>
12    2  0.3561489E-008  0.1094486E+04  0.7818608E-02  0.9210583E-01
          1   -1    0    0  501    0  0.00000000000E+00  0.00000000000E+00  0.63763053575E+03  0.63763053575E+03  0.00000000000E+00 0. -1.
         -1   -1    0    0    0  501 -0.00000000000E+00 -0.00000000000E+00 -0.46966851263E+03  0.46966851263E+03  0.00000000000E+00 0.  1.
         23    2    1    2    0    0  0.11268253095E+03 -0.11231520977E+03  0.37073228974E+02  0.18698920372E+03  0.90986146600E+02 0.  0.
        254    2    1    2    0    0 -0.11268253095E+03  0.11231520977E+03  0.13088879414E+03  0.92030984466E+03  0.89695388656E+03 0.  0.
         23    2    4    4    0    0  0.16458765129E+03  0.41146412425E+03  0.20533199585E+03  0.49676961344E+03  0.90702810410E+02 0.  0.
         23    2    4    4    0    0 -0.27727018225E+03 -0.29914891448E+03 -0.74443201709E+02  0.42354023122E+03  0.86462189357E+02 0.  0.
          2    1    3    3  502    0  0.59930856291E+02 -0.15242294798E+02  0.44613058817E+02  0.76251951473E+02  0.00000000000E+00 0. -1.
         -2    1    3    3    0  502  0.52751674663E+02 -0.97072914971E+02 -0.75398298435E+01  0.11073725225E+03  0.00000000000E+00 0.  1.
         11    1    5    5    0    0  0.17621528131E+03  0.38900804295E+03  0.19415490381E+03  0.46912174275E+03  0.00000000000E+00 0.  1.
        -11    1    5    5    0    0 -0.11627630021E+02  0.22456081293E+02  0.11177092041E+02  0.27647870685E+02  0.00000000000E+00 0. -1.
          1    1    6    6  503    0 -0.52292633138E+02 -0.14784306719E+02 -0.10413202190E+02  0.55331094201E+02  0.00000000000E+00 0. -1.
         -1    1    6    6    0  503 -0.22497754911E+03 -0.28436460776E+03 -0.64029999519E+02  0.36820913702E+03  0.00000000000E+00 0.  1.
<mgrwt>
<rscale>  0 0.10944862E+04</rscale>
<asrwt>0</asrwt>
<pdfrwt beam="1">  1        1 0.98097005E-01 0.10944862E+04</pdfrwt>
<pdfrwt beam="2">  1       -1 0.72256694E-01 0.10944862E+04</pdfrwt>
<totfact> 0.60384709E+01</totfact>
</mgrwt>
</event>
<event>
12    2  0.3561489E-008  0.1172743E+04  0.7818608E-02  0.9137055E-01
          1   -1    0    0  501    0  0.00000000000E+00  0.00000000000E+00  0.26042931587E+03  0.26042931587E+03  0.00000000000E+00 0. -1.
         -1   -1    0    0    0  501 -0.00000000000E+00 -0.00000000000E+00 -0.13202491463E+04  0.13202491463E+04  0.00000000000E+00 0.  1.
         23    2    1    2    0    0  0.24128316876E+02 -0.15279689289E+02 -0.57578885707E+03  0.58366343880E+03  0.91184194230E+02 0.  0.
        254    2    1    2    0    0 -0.24128316876E+02  0.15279689289E+02 -0.48403097336E+03  0.99701502339E+03  0.87117009195E+03 0.  0.
         23    2    4    4    0    0 -0.30547022884E+03 -0.23956064014E+03 -0.31782214529E+02  0.39989276041E+03  0.90569032564E+02 0.  0.
         23    2    4    4    0    0  0.28134191196E+03  0.25484032943E+03 -0.45224875883E+03  0.59712226297E+03  0.89046011377E+02 0.  0.
          3    1    3    3  502    0 -0.33469831198E+02 -0.84039025427E+01 -0.14860380632E+03  0.15255801005E+03  0.00000000000E+00 0. -1.
         -3    1    3    3    0  502  0.57598148074E+02 -0.68757867468E+01 -0.42718505076E+03  0.43110542875E+03  0.00000000000E+00 0.  1.
         11    1    5    5    0    0 -0.25166128418E+03 -0.18994057995E+03 -0.60892753086E+02  0.32112108813E+03  0.00000000000E+00 0.  1.
        -11    1    5    5    0    0 -0.53808944665E+02 -0.49620060187E+02  0.29110538557E+02  0.78771672282E+02  0.00000000000E+00 0. -1.
          2    1    6    6  503    0  0.20904595718E+03  0.23201242671E+03 -0.38537985763E+03  0.49603186695E+03  0.00000000000E+00 0. -1.
         -2    1    6    6    0  503  0.72295954781E+02  0.22827902715E+02 -0.66868901206E+02  0.10109039603E+03  0.00000000000E+00 0.  1.
<mgrwt>
<rscale>  0 0.11727431E+04</rscale>
<asrwt>0</asrwt>
<pdfrwt beam="1">  1        1 0.40066049E-01 0.11727431E+04</pdfrwt>
<pdfrwt beam="2">  1       -1 0.20311525E+00 0.11727431E+04</pdfrwt>
<totfact> 0.14985786E+01</totfact>
</mgrwt>
</event>
<event>
12    2  0.3561489E-008  0.1611414E+04  0.7818608E-02  0.8813567E-01
         -1   -1    0    0    0  501 -0.00000000000E+00  0.00000000000E+00  0.12729183269E+04  0.12729183269E+04  0.00000000000E+00 0.  1.
          1   -1    0    0  501    0  0.00000000000E+00 -0.00000000000E+00 -0.50998041457E+03  0.50998041457E+03  0.00000000000E+00 0. -1.
         23    2    1    2    0    0 -0.35285285119E+03 -0.29239526447E+03 -0.69732217794E+02  0.47259989999E+03  0.92130114494E+02 0.  0.
        254    2    1    2    0    0  0.35285285119E+03  0.29239526447E+03  0.83267013008E+03  0.13102988414E+04  0.90196639797E+03 0.  0.
         23    2    4    4    0    0  0.39040014840E+03 -0.19476368154E+03  0.15903399360E+03  0.47339875340E+03  0.92029349030E+02 0.  0.
         23    2    4    4    0    0 -0.37547297210E+02  0.48715894601E+03  0.67363613648E+03  0.83690008804E+03  0.88783302364E+02 0.  0.
          3    1    3    3  502    0 -0.14315500067E+03 -0.17381472100E+03 -0.51606035229E+02  0.23101535518E+03  0.00000000000E+00 0. -1.
         -3    1    3    3    0  502 -0.20969785051E+03 -0.11858054347E+03 -0.18126182565E+02  0.24158454482E+03  0.00000000000E+00 0.  1.
         11    1    5    5    0    0  0.77401269131E+01 -0.77996056964E+01  0.24355070142E+02  0.26719147728E+02  0.00000000000E+00 0. -1.
        -11    1    5    5    0    0  0.38266002148E+03 -0.18696407585E+03  0.13467892346E+03  0.44667960567E+03  0.00000000000E+00 0.  1.
          4    1    6    6  503    0 -0.50491905907E+02  0.19229503073E+03  0.22953101472E+03  0.30366313264E+03  0.00000000000E+00 0. -1.
         -4    1    6    6    0  503  0.12944608697E+02  0.29486391528E+03  0.44410512176E+03  0.53323695540E+03  0.00000000000E+00 0.  1.
<mgrwt>
<rscale>  0 0.16114136E+04</rscale>
<asrwt>0</asrwt>
<pdfrwt beam="1">  1        1 0.78458526E-01 0.16114136E+04</pdfrwt>
<pdfrwt beam="2">  1       -1 0.19583359E+00 0.16114136E+04</pdfrwt>
<totfact> 0.66484721E+00</totfact>
</mgrwt>
</event>
<event>
12    2  0.3561489E-008  0.1375093E+04  0.7818608E-02  0.8972047E-01
          1   -1    0    0  501    0  0.00000000000E+00  0.00000000000E+00  0.11376279190E+04  0.11376279190E+04  0.00000000000E+00 0. -1.
         -1   -1    0    0    0  501 -0.00000000000E+00 -0.00000000000E+00 -0.41553155119E+03  0.41553155119E+03  0.00000000000E+00 0.  1.
         23    2    1    2    0    0  0.16471058168E+02  0.38527110122E+03  0.21099529003E+03  0.44897489755E+03  0.91402018693E+02 0.  0.
        254    2    1    2    0    0 -0.16471058168E+02 -0.38527110122E+03  0.51110107774E+03  0.11041845726E+04  0.89960777093E+03 0.  0.
         23    2    4    4    0    0 -0.29024690535E+03 -0.14824093266E+03 -0.13016583623E+03  0.36210708856E+03  0.89217478561E+02 0.  0.
         23    2    4    4    0    0  0.27377584718E+03 -0.23703016856E+03  0.64126691397E+03  0.74207748404E+03  0.91209769567E+02 0.  0.
          2    1    3    3  502    0  0.44906743386E+02  0.13860595482E+03  0.54970145234E+02  0.15572393259E+03  0.00000000000E+00 0.  1.
         -2    1    3    3    0  502 -0.28435685218E+02  0.24666514640E+03  0.15602514480E+03  0.29325096496E+03  0.00000000000E+00 0. -1.
         11    1    5    5    0    0 -0.25803127494E+02 -0.46034626161E+02 -0.33800276754E+02  0.62669345800E+02  0.00000000000E+00 0.  1.
        -11    1    5    5    0    0 -0.26444377786E+03 -0.10220630650E+03 -0.96365559476E+02  0.29943774276E+03  0.00000000000E+00 0. -1.
          1    1    6    6  503    0  0.23964599849E+03 -0.18520209682E+03  0.46248092309E+03  0.55282784434E+03  0.00000000000E+00 0. -1.
         -1    1    6    6    0  503  0.34129848693E+02 -0.51828071740E+02  0.17878599088E+03  0.18924963970E+03  0.00000000000E+00 0.  1.
<mgrwt>
<rscale>  0 0.13750932E+04</rscale>
<asrwt>0</asrwt>
<pdfrwt beam="1">  1        1 0.17501968E+00 0.13750932E+04</pdfrwt>
<pdfrwt beam="2">  1       -1 0.63927931E-01 0.13750932E+04</pdfrwt>
<totfact> 0.28804888E+01</totfact>
</mgrwt>
</event>
<event>
12    2  0.3561489E-008  0.1681790E+04  0.7818608E-02  0.8771819E-01
          1   -1    0    0  501    0  0.00000000000E+00  0.00000000000E+00  0.15720102905E+04  0.15720102905E+04  0.00000000000E+00 0. -1.
         -1   -1    0    0    0  501 -0.00000000000E+00 -0.00000000000E+00 -0.44980902873E+03  0.44980902873E+03  0.00000000000E+00 0.  1.
         23    2    1    2    0    0  0.11084456890E+03 -0.21102568929E+03  0.10809830395E+04  0.11107328819E+04  0.91568789813E+02 0.  0.
        254    2    1    2    0    0 -0.11084456890E+03  0.21102568929E+03  0.41218222248E+02  0.91108643729E+03  0.87838556135E+03 0.  0.
         23    2    4    4    0    0  0.38058773171E+02 -0.16333412409E+03 -0.31324477594E+03  0.36675492538E+03  0.90886628977E+02 0.  0.
         23    2    4    4    0    0 -0.14890334207E+03  0.37435981338E+03  0.35446299819E+03  0.54433151191E+03  0.91297878477E+02 0.  0.
          1    1    3    3  502    0  0.68832593403E+02 -0.17930089246E+03  0.69033963132E+03  0.71655812222E+03  0.00000000000E+00 0. -1.
         -1    1    3    3    0  502  0.42011975493E+02 -0.31724796835E+02  0.39064340816E+03  0.39417475967E+03  0.00000000000E+00 0.  1.
         11    1    5    5    0    0  0.51817659908E+02 -0.16576868656E+03 -0.26760941020E+03  0.31902840586E+03  0.00000000000E+00 0. -1.
        -11    1    5    5    0    0 -0.13758886737E+02  0.24345624625E+01 -0.45635365746E+02  0.47726519519E+02  0.00000000000E+00 0.  1.
          1    1    6    6  503    0 -0.12589845289E+03  0.36741690135E+03  0.34066566618E+03  0.51662239203E+03  0.00000000000E+00 0. -1.
         -1    1    6    6    0  503 -0.23004889180E+02  0.69429120370E+01  0.13797332012E+02  0.27709119877E+02  0.00000000000E+00 0.  1.
<mgrwt>
<rscale>  0 0.16817900E+04</rscale>
<asrwt>0</asrwt>
<pdfrwt beam="1">  1        1 0.24184773E+00 0.16817900E+04</pdfrwt>
<pdfrwt beam="2">  1       -1 0.69201390E-01 0.16817900E+04</pdfrwt>
<totfact> 0.11743302E+01</totfact>
</mgrwt>
</event>
<event>
12    2  0.3561489E-008  0.1499338E+04  0.7818608E-02  0.8884893E-01
          2   -1    0    0  501    0  0.00000000000E+00  0.00000000000E+00  0.16838581033E+04  0.16838581033E+04  0.00000000000E+00 0. -1.
         -2   -1    0    0    0  501 -0.00000000000E+00 -0.00000000000E+00 -0.33375967376E+03  0.33375967376E+03  0.00000000000E+00 0.  1.
         23    2    1    2    0    0  0.38956132191E+03  0.81630629924E+01  0.78303202323E+02  0.40751135536E+03  0.90052507646E+02 0.  0.
        254    2    1    2    0    0 -0.38956132191E+03 -0.81630629924E+01  0.12717952272E+04  0.16101064217E+04  0.90727886017E+03 0.  0.
         23    2    4    4    0    0 -0.40678112135E+02  0.31986844893E+02  0.12409816860E+04  0.12459878283E+04  0.98854722511E+02 0.  0.
         23    2    4    4    0    0 -0.34888320977E+03 -0.40149907886E+02  0.30813541235E+02  0.36411859344E+03  0.91111835700E+02 0.  0.
          1    1    3    3  502    0  0.12486733648E+02 -0.18028691436E+02  0.47029273762E+01  0.22429216615E+02  0.00000000000E+00 0. -1.
         -1    1    3    3    0  502  0.37707458826E+03  0.26191754428E+02  0.73600274947E+02  0.38508213875E+03  0.00000000000E+00 0.  1.
         11    1    5    5    0    0  0.22442501173E+02 -0.16602735433E+01  0.69201163155E+03  0.69237744083E+03  0.00000000000E+00 0. -1.
        -11    1    5    5    0    0 -0.63120613307E+02  0.33647118437E+02  0.54897005444E+03  0.55361038743E+03  0.00000000000E+00 0.  1.
          1    1    6    6  503    0 -0.32074271766E+03 -0.15198358362E+02  0.44342473532E+02  0.32414986656E+03  0.00000000000E+00 0. -1.
         -1    1    6    6    0  503 -0.28140492107E+02 -0.24951549524E+02 -0.13528932297E+02  0.39968726884E+02  0.00000000000E+00 0.  1.
<mgrwt>
<rscale>  0 0.14993384E+04</rscale>
<asrwt>0</asrwt>
<pdfrwt beam="1">  1        2 0.25905509E+00 0.14993384E+04</pdfrwt>
<pdfrwt beam="2">  1       -2 0.51347643E-01 0.14993384E+04</pdfrwt>
<totfact> 0.34663129E+01</totfact>
</mgrwt>
</event>
<event>
12    2  0.3561489E-008  0.1810656E+04  0.7818608E-02  0.8700653E-01
         -1   -1    0    0    0  501 -0.00000000000E+00  0.00000000000E+00  0.81055694823E+03  0.81055694823E+03  0.00000000000E+00 0.  1.
          1   -1    0    0  501    0  0.00000000000E+00 -0.00000000000E+00 -0.10111795670E+04  0.10111795670E+04  0.00000000000E+00 0. -1.
         23    2    1    2    0    0 -0.17970421457E+03  0.58733059299E+03 -0.35901051370E+03  0.71787168620E+03  0.95918604591E+02 0.  0.
        254    2    1    2    0    0  0.17970421457E+03 -0.58733059299E+03  0.15838789491E+03  0.11038648290E+04  0.90342681239E+03 0.  0.
         23    2    4    4    0    0 -0.16874782327E+03 -0.26038812839E+03  0.43719102242E+03  0.54423394866E+03  0.93684553308E+02 0.  0.
         23    2    4    4    0    0  0.34845203784E+03 -0.32694246460E+03 -0.27880312750E+03  0.55963088038E+03  0.84530116190E+02 0.  0.
          1    1    3    3  502    0 -0.18955621808E+03  0.55652063393E+03 -0.32881591826E+03  0.67362206311E+03  0.00000000000E+00 0. -1.
         -1    1    3    3    0  502  0.98520035080E+01  0.30809959059E+02 -0.30194595436E+02  0.44249623093E+02  0.00000000000E+00 0.  1.
         11    1    5    5    0    0 -0.10932830718E+03 -0.93290469821E+02  0.23318469443E+03  0.27391767418E+03  0.00000000000E+00 0. -1.
        -11    1    5    5    0    0 -0.59419516086E+02 -0.16709765857E+03  0.20400632798E+03  0.27031627448E+03  0.00000000000E+00 0.  1.
          2    1    6    6  503    0  0.34942430230E+03 -0.30810772637E+03 -0.27269919997E+03  0.53980789894E+03  0.00000000000E+00 0. -1.
         -2    1    6    6    0  503 -0.97226446287E+00 -0.18834738224E+02 -0.61039275342E+01  0.19822981449E+02  0.00000000000E+00 0.  1.
<mgrwt>
<rscale>  0 0.18106558E+04</rscale>
<asrwt>0</asrwt>
<pdfrwt beam="1">  1        1 0.15556609E+00 0.18106558E+04</pdfrwt>
<pdfrwt beam="2">  1       -1 0.12470107E+00 0.18106558E+04</pdfrwt>
<totfact> 0.78721569E+00</totfact>
</mgrwt>
</event>
<event>
12    2  0.3561489E-008  0.1233745E+04  0.7818608E-02  0.9083821E-01
         -2   -1    0    0    0  501 -0.00000000000E+00  0.00000000000E+00  0.92422303292E+03  0.92422303292E+03  0.00000000000E+00 0.  1.
          2   -1    0    0  501    0  0.00000000000E+00 -0.00000000000E+00 -0.41173175254E+03  0.41173175254E+03  0.00000000000E+00 0. -1.
         23    2    1    2    0    0  0.16810677112E+03 -0.36963228807E+02 -0.12168403847E+03  0.22980224666E+03  0.91519946312E+02 0.  0.
        254    2    1    2    0    0 -0.16810677112E+03  0.36963228807E+02  0.63417531885E+03  0.11061525388E+04  0.88981399026E+03 0.  0.
         23    2    4    4    0    0  0.24521082746E+03  0.16405461953E+03 -0.27885528980E+02  0.31055395077E+03  0.92864877758E+02 0.  0.
         23    2    4    4    0    0 -0.41331759858E+03 -0.12709139073E+03  0.66206084783E+03  0.79559858802E+03  0.87572188156E+02 0.  0.
          3    1    3    3  502    0  0.16714816787E+03 -0.54618340975E+02 -0.10177102848E+03  0.20317237861E+03  0.00000000000E+00 0. -1.
         -3    1    3    3    0  502  0.95860325605E+00  0.17655112169E+02 -0.19913009982E+02  0.26629868051E+02  0.00000000000E+00 0.  1.
         11    1    5    5    0    0  0.22371000616E+02 -0.11226501819E+02  0.36315964533E+01  0.25291984985E+02  0.00000000000E+00 0.  1.
        -11    1    5    5    0    0  0.22283982684E+03  0.17528112135E+03 -0.31517125433E+02  0.28526196579E+03  0.00000000000E+00 0. -1.
          3    1    6    6  503    0 -0.36729033412E+03 -0.13064718126E+03  0.54768096068E+03  0.67225390307E+03  0.00000000000E+00 0. -1.
         -3    1    6    6    0  503 -0.46027264468E+02  0.35557905335E+01  0.11437988715E+03  0.12334468495E+03  0.00000000000E+00 0.  1.
<mgrwt>
<rscale>  0 0.12337455E+04</rscale>
<asrwt>0</asrwt>
<pdfrwt beam="1">  1        2 0.63343347E-01 0.12337455E+04</pdfrwt>
<pdfrwt beam="2">  1       -2 0.14218816E+00 0.12337455E+04</pdfrwt>
<totfact> 0.26112258E+01</totfact>
</mgrwt>
</event>
<event>
12    2  0.3561489E-008  0.1988803E+04  0.7818608E-02  0.8611874E-01
          2   -1    0    0  501    0  0.00000000000E+00  0.00000000000E+00  0.65884488292E+03  0.65884488292E+03  0.00000000000E+00 0. -1.
         -2   -1    0    0    0  501 -0.00000000000E+00 -0.00000000000E+00 -0.15008606091E+04  0.15008606091E+04  0.00000000000E+00 0.  1.
         23    2    1    2    0    0 -0.68470023680E+02  0.72725196453E+03 -0.17532799003E+02  0.73654327749E+03  0.92763336031E+02 0.  0.
        254    2    1    2    0    0  0.68470023680E+02 -0.72725196453E+03 -0.82448292720E+03  0.14231622146E+04  0.90112986171E+03 0.  0.
         23    2    4    4    0    0  0.30542942628E+03  0.67483872364E+02 -0.20564795410E+03  0.38417275630E+03  0.86350554079E+02 0.  0.
         23    2    4    4    0    0 -0.23695940260E+03 -0.79473583689E+03 -0.61883497310E+03  0.10389894583E+04  0.93741994502E+02 0.  0.
          4    1    3    3  502    0 -0.47609151860E+02  0.13778748007E+03  0.95062293163E+01  0.14609034671E+03  0.00000000000E+00 0. -1.
         -4    1    3    3    0  502 -0.20860871820E+02  0.58946448446E+03 -0.27039028320E+02  0.59045293078E+03  0.00000000000E+00 0.  1.
         11    1    5    5    0    0  0.11356350429E+03 -0.14862240415E+02 -0.88682960306E+02  0.14485241850E+03  0.00000000000E+00 0.  1.
        -11    1    5    5    0    0  0.19186592199E+03  0.82346112778E+02 -0.11696499380E+03  0.23932033780E+03  0.00000000000E+00 0. -1.
          4    1    6    6  503    0 -0.99482022449E+02 -0.47191683121E+03 -0.38806596069E+03  0.61902936781E+03  0.00000000000E+00 0. -1.
         -4    1    6    6    0  503 -0.13747738015E+03 -0.32281900569E+03 -0.23076901240E+03  0.41996009045E+03  0.00000000000E+00 0.  1.
<mgrwt>
<rscale>  0 0.19888030E+04</rscale>
<asrwt>0</asrwt>
<pdfrwt beam="1">  1        2 0.10136075E+00 0.19888030E+04</pdfrwt>
<pdfrwt beam="2">  1       -2 0.23090163E+00 0.19888030E+04</pdfrwt>
<totfact> 0.34682731E+00</totfact>
</mgrwt>
</event>
<event>
12    2  0.3561489E-008  0.1229947E+04  0.7818608E-02  0.9087040E-01
          1   -1    0    0  501    0  0.00000000000E+00  0.00000000000E+00  0.18036366576E+04  0.18036366576E+04  0.00000000000E+00 0. -1.
         -1   -1    0    0    0  501 -0.00000000000E+00 -0.00000000000E+00 -0.20968323674E+03  0.20968323674E+03  0.00000000000E+00 0.  1.
         23    2    1    2    0    0 -0.25692226857E+03 -0.10533132145E+02  0.22147788132E+03  0.35137658908E+03  0.91066220278E+02 0.  0.
        254    2    1    2    0    0  0.25692226857E+03  0.10533132145E+02  0.13724755395E+04  0.16619433052E+04  0.90124716048E+03 0.  0.
         23    2    4    4    0    0  0.45901356445E+03 -0.29989140796E+03  0.84844802957E+03  0.10142343583E+04  0.90437634435E+02 0.  0.
         23    2    4    4    0    0 -0.20209129588E+03  0.31042454011E+03  0.52402750994E+03  0.64770894695E+03  0.87850792861E+02 0.  0.
          1    1    3    3  502    0 -0.24055356159E+02  0.10137166943E+02  0.65035336741E+02  0.70078651090E+02  0.00000000000E+00 0. -1.
         -1    1    3    3    0  502 -0.23286691241E+03 -0.20670299088E+02  0.15644254458E+03  0.28129793799E+03  0.00000000000E+00 0.  1.
         11    1    5    5    0    0  0.30923065586E+03 -0.25024981617E+03  0.59853068803E+03  0.71867068504E+03  0.00000000000E+00 0. -1.
        -11    1    5    5    0    0  0.14978290859E+03 -0.49641591797E+02  0.24991734153E+03  0.29556367324E+03  0.00000000000E+00 0.  1.
          1    1    6    6  503    0 -0.42989205970E+02  0.14062452729E+03  0.18098683986E+03  0.23319426602E+03  0.00000000000E+00 0. -1.
         -1    1    6    6    0  503 -0.15910208991E+03  0.16980001282E+03  0.34304067009E+03  0.41451468092E+03  0.00000000000E+00 0.  1.
<mgrwt>
<rscale>  0 0.12299469E+04</rscale>
<asrwt>0</asrwt>
<pdfrwt beam="1">  1        1 0.27748255E+00 0.12299469E+04</pdfrwt>
<pdfrwt beam="2">  1       -1 0.32258961E-01 0.12299469E+04</pdfrwt>
<totfact> 0.35933180E+01</totfact>
</mgrwt>
</event>
<event>
12    2  0.3561489E-008  0.2589334E+04  0.7818608E-02  0.8371833E-01
         -1   -1    0    0    0  501 -0.00000000000E+00  0.00000000000E+00  0.72331599870E+03  0.72331599870E+03  0.00000000000E+00 0.  1.
          1   -1    0    0  501    0  0.00000000000E+00 -0.00000000000E+00 -0.23173309877E+04  0.23173309877E+04  0.00000000000E+00 0. -1.
         23    2    1    2    0    0 -0.53624384055E+03 -0.19139434871E+03  0.45349782543E+03  0.73377847271E+03  0.92635393330E+02 0.  0.
        254    2    1    2    0    0  0.53624384055E+03  0.19139434871E+03 -0.20475128144E+04  0.23068685137E+04  0.89729836788E+03 0.  0.
         23    2    4    4    0    0 -0.19660139643E+03 -0.81883904373E+02 -0.22925822227E+03  0.32542963339E+03  0.89375784969E+02 0.  0.
         23    2    4    4    0    0  0.73284523697E+03  0.27327825308E+03 -0.18182545921E+04  0.19814388803E+04  0.91143455709E+02 0.  0.
          1    1    3    3  502    0  0.82692992576E+00  0.37940533295E+01 -0.53891877725E+00  0.39203427424E+01  0.00000000000E+00 0. -1.
         -1    1    3    3    0  502 -0.53707077047E+03 -0.19518840204E+03  0.45403674420E+03  0.72985812996E+03  0.00000000000E+00 0.  1.
         11    1    5    5    0    0 -0.15687048997E+03 -0.75296307252E+02 -0.12669553700E+03  0.21524321964E+03  0.00000000000E+00 0. -1.
        -11    1    5    5    0    0 -0.39730906463E+02 -0.65875971207E+01 -0.10256268528E+03  0.11018641375E+03  0.00000000000E+00 0.  1.
          2    1    6    6  503    0  0.63082438170E+03  0.21917055437E+03 -0.16157637134E+04  0.17483327801E+04  0.00000000000E+00 0. -1.
         -2    1    6    6    0  503  0.10202085527E+03  0.54107698716E+02 -0.20249087878E+03  0.23310610022E+03  0.00000000000E+00 0.  1.
<mgrwt>
<rscale>  0 0.25893340E+04</rscale>
<asrwt>0</asrwt>
<pdfrwt beam="1">  1        1 0.35651246E+00 0.25893340E+04</pdfrwt>
<pdfrwt beam="2">  1       -1 0.11127938E+00 0.25893340E+04</pdfrwt>
<totfact> 0.11849913E+00</totfact>
</mgrwt>
</event>
<event>
12    2  0.3561489E-008  0.1694589E+04  0.7818608E-02  0.8764457E-01
          3   -1    0    0  501    0  0.00000000000E+00  0.00000000000E+00  0.29508564936E+03  0.29508564936E+03  0.00000000000E+00 0. -1.
         -3   -1    0    0    0  501 -0.00000000000E+00 -0.00000000000E+00 -0.24328788864E+04  0.24328788864E+04  0.00000000000E+00 0.  1.
         23    2    1    2    0    0 -0.11209471453E+03  0.55841546338E+03 -0.45718027421E+03  0.73607174091E+03  0.91622867589E+02 0.  0.
        254    2    1    2    0    0  0.11209471453E+03 -0.55841546338E+03 -0.16806129629E+04  0.19918927949E+04  0.90486679714E+03 0.  0.
         23    2    4    4    0    0  0.46929562907E+03 -0.21287474481E+03 -0.11248896034E+04  0.12406835777E+04  0.91460787658E+02 0.  0.
         23    2    4    4    0    0 -0.35720091454E+03 -0.34554071858E+03 -0.55572335949E+03  0.75120921721E+03  0.92173500489E+02 0.  0.
          1    1    3    3  502    0 -0.78384713607E+02  0.25098265307E+03 -0.25693164896E+03  0.36762797459E+03  0.00000000000E+00 0. -1.
         -1    1    3    3    0  502 -0.33710000925E+02  0.30743281031E+03 -0.20024862526E+03  0.36844376632E+03  0.00000000000E+00 0.  1.
         11    1    5    5    0    0  0.34487454884E+03 -0.14178272367E+03 -0.89787528315E+03  0.97222467530E+03  0.00000000000E+00 0. -1.
        -11    1    5    5    0    0  0.12442108023E+03 -0.71092021141E+02 -0.22701432022E+03  0.26845890237E+03  0.00000000000E+00 0.  1.
          1    1    6    6  503    0 -0.31599999803E+03 -0.31657877218E+03 -0.45202395327E+03  0.63592748964E+03  0.00000000000E+00 0. -1.
         -1    1    6    6    0  503 -0.41200916509E+02 -0.28961946397E+02 -0.10369940623E+03  0.11528172757E+03  0.00000000000E+00 0.  1.
<mgrwt>
<rscale>  0 0.16945886E+04</rscale>
<asrwt>0</asrwt>
<pdfrwt beam="1">  1        3 0.45397794E-01 0.16945886E+04</pdfrwt>
<pdfrwt beam="2">  1       -3 0.37428905E+00 0.16945886E+04</pdfrwt>
<totfact> 0.17757670E-01</totfact>
</mgrwt>
</event>
<event>
12    2  0.3561489E-008  0.3063933E+04  0.7818608E-02  0.8225707E-01
          1   -1    0    0  501    0  0.00000000000E+00  0.00000000000E+00  0.19748159604E+04  0.19748159604E+04  0.00000000000E+00 0.  1.
         -1   -1    0    0    0  501 -0.00000000000E+00 -0.00000000000E+00 -0.11884251048E+04  0.11884251048E+04  0.00000000000E+00 0. -1.
         23    2    1    2    0    0  0.68240964727E+03  0.78366997144E+03  0.12583831755E+04  0.16362608406E+04  0.11832062893E+03 0.  0.
        254    2    1    2    0    0 -0.68240964727E+03 -0.78366997144E+03 -0.47199231997E+03  0.15269802246E+04  0.10144310254E+04 0.  0.
         23    2    4    4    0    0  0.11501042494E+03  0.12861488216E+03  0.54994910256E+02  0.20254553522E+03  0.90725233121E+02 0.  0.
         23    2    4    4    0    0 -0.79742007222E+03 -0.91228485359E+03 -0.52698723023E+03  0.13244346893E+04  0.90935580725E+02 0.  0.
          2    1    3    3  502    0  0.65072789594E+03  0.73265801753E+03  0.11381949417E+04  0.15019062189E+04  0.00000000000E+00 0. -1.
         -2    1    3    3    0  502  0.31681751329E+02  0.51011953902E+02  0.12018823386E+03  0.13435462168E+03  0.00000000000E+00 0.  1.
         11    1    5    5    0    0 -0.38808141708E+01 -0.10200990606E+02  0.88202649737E+01  0.14032747492E+02  0.00000000000E+00 0.  1.
        -11    1    5    5    0    0  0.11889123911E+03  0.13881587276E+03  0.46174645282E+02  0.18851278773E+03  0.00000000000E+00 0. -1.
          3    1    6    6  503    0 -0.63500293068E+03 -0.67041319518E+03 -0.38744476470E+03  0.10013970341E+04  0.00000000000E+00 0. -1.
         -3    1    6    6    0  503 -0.16241714153E+03 -0.24187165841E+03 -0.13954246553E+03  0.32303765522E+03  0.00000000000E+00 0.  1.
<mgrwt>
<rscale>  0 0.30639327E+04</rscale>
<asrwt>0</asrwt>
<pdfrwt beam="1">  1        1 0.30381784E+00 0.30639327E+04</pdfrwt>
<pdfrwt beam="2">  1       -1 0.18283463E+00 0.30639327E+04</pdfrwt>
<totfact> 0.52105796E-01</totfact>
</mgrwt>
</event>
<event>
12    2  0.3561489E-008  0.1420287E+04  0.7818608E-02  0.8939263E-01
          1   -1    0    0  501    0  0.00000000000E+00  0.00000000000E+00  0.11860625321E+03  0.11860625321E+03  0.00000000000E+00 0. -1.
         -1   -1    0    0    0  501 -0.00000000000E+00 -0.00000000000E+00 -0.42519173080E+04  0.42519173080E+04  0.00000000000E+00 0.  1.
         23    2    1    2    0    0 -0.25664502574E+03 -0.14970509723E+03 -0.34561671787E+03  0.46477109607E+03  0.91010827373E+02 0.  0.
        254    2    1    2    0    0  0.25664502574E+03  0.14970509723E+03 -0.37876943369E+04  0.39057524651E+04  0.90553610842E+03 0.  0.
         23    2    4    4    0    0  0.12380030777E+03  0.42191887819E+03 -0.32581344228E+04  0.32890692859E+04  0.95889491575E+02 0.  0.
         23    2    4    4    0    0  0.13284471796E+03 -0.27221378096E+03 -0.52955991408E+03  0.61668317918E+03  0.90090949862E+02 0.  0.
          1    1    3    3  502    0 -0.21951137242E+03 -0.15815570275E+03 -0.31914123103E+03  0.41838928557E+03  0.00000000000E+00 0. -1.
         -1    1    3    3    0  502 -0.37133653313E+02  0.84506055202E+01 -0.26475486843E+02  0.46381810504E+02  0.00000000000E+00 0.  1.
         11    1    5    5    0    0  0.13284390856E+01  0.70744426484E+02 -0.33656356778E+03  0.34392088303E+03  0.00000000000E+00 0. -1.
        -11    1    5    5    0    0  0.12247186869E+03  0.35117445170E+03 -0.29215708550E+04  0.29451484029E+04  0.00000000000E+00 0.  1.
          2    1    6    6  503    0  0.12458100361E+03 -0.20013144198E+03 -0.34016206930E+03  0.41386381084E+03  0.00000000000E+00 0.  1.
         -2    1    6    6    0  503  0.82637143564E+01 -0.72082338974E+02 -0.18939784478E+03  0.20281936834E+03  0.00000000000E+00 0. -1.
<mgrwt>
<rscale>  0 0.14202873E+04</rscale>
<asrwt>0</asrwt>
<pdfrwt beam="1">  1        1 0.18247113E-01 0.14202873E+04</pdfrwt>
<pdfrwt beam="2">  1       -1 0.65414124E+00 0.14202873E+04</pdfrwt>
<totfact> 0.80431641E-02</totfact>
</mgrwt>
</event>
<event>
12    2  0.3561489E-008  0.1299477E+04  0.7818608E-02  0.9029980E-01
         -1   -1    0    0    0  501 -0.00000000000E+00  0.00000000000E+00  0.38274205289E+03  0.38274205289E+03  0.00000000000E+00 0.  1.
          1   -1    0    0  501    0  0.00000000000E+00 -0.00000000000E+00 -0.11029878798E+04  0.11029878798E+04  0.00000000000E+00 0. -1.
         23    2    1    2    0    0 -0.15855834378E+03  0.20345193776E+03  0.47813374287E+02  0.27638531007E+03  0.87001617820E+02 0.  0.
        254    2    1    2    0    0  0.15855834378E+03 -0.20345193776E+03 -0.76805920118E+03  0.12093446226E+04  0.89781180676E+03 0.  0.
         23    2    4    4    0    0  0.12947198592E+03 -0.53648092214E+03 -0.61185674011E+03  0.82900312114E+03  0.91119314573E+02 0.  0.
         23    2    4    4    0    0  0.29086357867E+02  0.33302898438E+03 -0.15620246107E+03  0.38034150147E+03  0.92228673660E+02 0.  0.
          1    1    3    3  502    0 -0.76836997691E+01  0.55833122673E+02 -0.10655353015E+02  0.57357766496E+02  0.00000000000E+00 0. -1.
         -1    1    3    3    0  502 -0.15087464401E+03  0.14761881508E+03  0.58468727302E+02  0.21902754358E+03  0.00000000000E+00 0.  1.
         11    1    5    5    0    0  0.15884277573E+01 -0.10562824168E+01  0.31071744839E+01  0.36460072075E+01  0.00000000000E+00 0.  1.
        -11    1    5    5    0    0  0.12788355816E+03 -0.53542463972E+03 -0.61496391459E+03  0.82535711393E+03  0.00000000000E+00 0. -1.
          1    1    6    6  503    0  0.34765164216E+02  0.47710174255E+02 -0.10632166846E+02  0.59982667015E+02  0.00000000000E+00 0.  1.
         -1    1    6    6    0  503 -0.56788063494E+01  0.28531881012E+03 -0.14557029423E+03  0.32035883446E+03  0.00000000000E+00 0. -1.
<mgrwt>
<rscale>  0 0.12994766E+04</rscale>
<asrwt>0</asrwt>
<pdfrwt beam="1">  1        1 0.16969044E+00 0.12994766E+04</pdfrwt>
<pdfrwt beam="2">  1       -1 0.58883392E-01 0.12994766E+04</pdfrwt>
<totfact> 0.36225963E+01</totfact>
</mgrwt>
</event>
<event>
12    2  0.3561489E-008  0.1245672E+04  0.7818608E-02  0.9073793E-01
         -1   -1    0    0    0  501 -0.00000000000E+00  0.00000000000E+00  0.23737872735E+03  0.23737872735E+03  0.00000000000E+00 0.  1.
          1   -1    0    0  501    0  0.00000000000E+00 -0.00000000000E+00 -0.16342006676E+04  0.16342006676E+04  0.00000000000E+00 0. -1.
         23    2    1    2    0    0 -0.17459357367E+02  0.28202773879E+03 -0.38981476392E+03  0.49019399700E+03  0.92141901023E+02 0.  0.
        254    2    1    2    0    0  0.17459357367E+02 -0.28202773879E+03 -0.10070071763E+04  0.13813853979E+04  0.90239552850E+03 0.  0.
         23    2    4    4    0    0  0.15627546162E+03  0.20710242074E+03 -0.76200174859E+03  0.80994779620E+03  0.89751518835E+02 0.  0.
         23    2    4    4    0    0 -0.13881610425E+03 -0.48913015953E+03 -0.24500542771E+03  0.57143760172E+03  0.89415039527E+02 0.  0.
          3    1    3    3  502    0 -0.36517029704E+02  0.27384692640E+03 -0.36697197057E+03  0.45934089709E+03  0.00000000000E+00 0. -1.
         -3    1    3    3    0  502  0.19057672337E+02  0.81808123899E+01 -0.22842793343E+02  0.30853099908E+02  0.00000000000E+00 0.  1.
         11    1    5    5    0    0  0.15583651227E+03  0.21524261018E+03 -0.72801124429E+03  0.77499340101E+03  0.00000000000E+00 0.  1.
        -11    1    5    5    0    0  0.43894935052E+00 -0.81401894398E+01 -0.33990504294E+02  0.34954395186E+02  0.00000000000E+00 0. -1.
          4    1    6    6  503    0 -0.30876837129E+02 -0.16884027656E+03 -0.40358611001E+02  0.17632139843E+03  0.00000000000E+00 0. -1.
         -4    1    6    6    0  503 -0.10793926713E+03 -0.32028988296E+03 -0.20464681671E+03  0.39511620330E+03  0.00000000000E+00 0.  1.
<mgrwt>
<rscale>  0 0.12456717E+04</rscale>
<asrwt>0</asrwt>
<pdfrwt beam="1">  1        1 0.25141549E+00 0.12456717E+04</pdfrwt>
<pdfrwt beam="2">  1       -1 0.36519804E-01 0.12456717E+04</pdfrwt>
<totfact> 0.37487500E+01</totfact>
</mgrwt>
</event>
<event>
12    2  0.3561489E-008  0.2749306E+04  0.7818608E-02  0.8319182E-01
         -2   -1    0    0    0  501 -0.00000000000E+00  0.00000000000E+00  0.10873900282E+04  0.10873900282E+04  0.00000000000E+00 0.  1.
          2   -1    0    0  501    0  0.00000000000E+00 -0.00000000000E+00 -0.17378038441E+04  0.17378038441E+04  0.00000000000E+00 0. -1.
         23    2    1    2    0    0 -0.97818485015E+03 -0.65781558322E+03  0.54254307132E+02  0.11842928615E+04  0.10019535593E+03 0.  0.
        254    2    1    2    0    0  0.97818485015E+03  0.65781558322E+03 -0.70466812299E+03  0.16409010109E+04  0.89801560193E+03 0.  0.
         23    2    4    4    0    0  0.90512903081E+03  0.24107239210E+03 -0.17549079830E+03  0.95724824243E+03  0.90292395613E+02 0.  0.
         23    2    4    4    0    0  0.73055819340E+02  0.41674319112E+03 -0.52917732468E+03  0.68365276843E+03  0.91325936844E+02 0.  0.
          2    1    3    3  502    0 -0.93388159147E+03 -0.60045430981E+03  0.57424015298E+02  0.11117453497E+04  0.00000000000E+00 0.  1.
         -2    1    3    3    0  502 -0.44303258680E+02 -0.57361273409E+02 -0.31697081659E+01  0.72547511788E+02  0.00000000000E+00 0. -1.
         11    1    5    5    0    0  0.59818783583E+03  0.20317083537E+03 -0.11893172533E+03  0.64284666178E+03  0.00000000000E+00 0. -1.
        -11    1    5    5    0    0  0.30694119498E+03  0.37901556734E+02 -0.56559072972E+02  0.31440158065E+03  0.00000000000E+00 0.  1.
          1    1    6    6  503    0  0.28787162337E+02  0.30132918060E+03 -0.31856609071E+03  0.43944548006E+03  0.00000000000E+00 0. -1.
         -1    1    6    6    0  503  0.44268657004E+02  0.11541401052E+03 -0.21061123397E+03  0.24420728837E+03  0.00000000000E+00 0.  1.
<mgrwt>
<rscale>  0 0.27493058E+04</rscale>
<asrwt>0</asrwt>
<pdfrwt beam="1">  1        2 0.26735444E+00 0.27493058E+04</pdfrwt>
<pdfrwt beam="2">  1       -2 0.16729078E+00 0.27493058E+04</pdfrwt>
<totfact> 0.18197204E+00</totfact>
</mgrwt>
</event>
<event>
12    2  0.3561489E-008  0.2122916E+04  0.7818608E-02  0.8551215E-01
         -2   -1    0    0    0  501 -0.00000000000E+00  0.00000000000E+00  0.69266298012E+03  0.69266298012E+03  0.00000000000E+00 0.  1.
          2   -1    0    0  501    0  0.00000000000E+00 -0.00000000000E+00 -0.16266104501E+04  0.16266104501E+04  0.00000000000E+00 0. -1.
         23    2    1    2    0    0  0.31917163025E+03  0.69581249488E+03 -0.82899541190E+03  0.11320506220E+04  0.90992637764E+02 0.  0.
        254    2    1    2    0    0 -0.31917163025E+03 -0.69581249488E+03 -0.10495205805E+03  0.11872228082E+04  0.90136424618E+03 0.  0.
         23    2    4    4    0    0 -0.30554511702E+02 -0.78847928084E+03  0.11373485399E+03  0.80260630677E+03  0.92779912473E+02 0.  0.
         23    2    4    4    0    0 -0.28861711855E+03  0.92666785958E+02 -0.21868691204E+03  0.38461650145E+03  0.90658222767E+02 0.  0.
          2    1    3    3  502    0  0.27706145102E+03  0.51245610757E+03 -0.63822425244E+03  0.86412065490E+03  0.00000000000E+00 0. -1.
         -2    1    3    3    0  502  0.42110179230E+02  0.18335638731E+03 -0.19077115946E+03  0.26792996705E+03  0.00000000000E+00 0.  1.
         11    1    5    5    0    0  0.18123855022E+02 -0.13846824712E+03 -0.64044658918E+01  0.13979608994E+03  0.00000000000E+00 0. -1.
        -11    1    5    5    0    0 -0.48678366724E+02 -0.65001103372E+03  0.12013931988E+03  0.66281021683E+03  0.00000000000E+00 0.  1.
          4    1    6    6  503    0 -0.66739459122E+02 -0.16940889298E+02 -0.50840130552E+02  0.85591284653E+02  0.00000000000E+00 0. -1.
         -4    1    6    6    0  503 -0.22187765943E+03  0.10960767526E+03 -0.16784678149E+03  0.29902521680E+03  0.00000000000E+00 0.  1.
<mgrwt>
<rscale>  0 0.21229158E+04</rscale>
<asrwt>0</asrwt>
<pdfrwt beam="1">  1        2 0.25024776E+00 0.21229158E+04</pdfrwt>
<pdfrwt beam="2">  1       -2 0.10656354E+00 0.21229158E+04</pdfrwt>
<totfact> 0.70323599E+00</totfact>
</mgrwt>
</event>
<event>
12    2  0.3561489E-008  0.2101347E+04  0.7818608E-02  0.8560650E-01
          2   -1    0    0  501    0  0.00000000000E+00  0.00000000000E+00  0.13260924686E+04  0.13260924686E+04  0.00000000000E+00 0.  1.
         -2   -1    0    0    0  501 -0.00000000000E+00 -0.00000000000E+00 -0.83245663853E+03  0.83245663853E+03  0.00000000000E+00 0. -1.
         23    2    1    2    0    0  0.43946238280E+03  0.11663569925E+03 -0.53887029861E+03  0.71092966193E+03  0.91152143439E+02 0.  0.
        254    2    1    2    0    0 -0.43946238280E+03 -0.11663569925E+03  0.10325061287E+04  0.14476194452E+04  0.90708438422E+03 0.  0.
         23    2    4    4    0    0 -0.12132230266E+03 -0.39295713061E+02 -0.15052881904E+03  0.21704023353E+03  0.90467029475E+02 0.  0.
         23    2    4    4    0    0 -0.31814008014E+03 -0.77339986192E+02  0.11830349477E+04  0.12305792117E+04  0.86942076094E+02 0.  0.
          4    1    3    3  502    0  0.34141551495E+03  0.81441935465E+02 -0.46774310284E+03  0.58479137558E+03  0.00000000000E+00 0. -1.
         -4    1    3    3    0  502  0.98046867853E+02  0.35193763788E+02 -0.71127195767E+02  0.12613828635E+03  0.00000000000E+00 0.  1.
         11    1    5    5    0    0 -0.12995909203E+03 -0.33101557032E+02 -0.10510118803E+03  0.17038585154E+03  0.00000000000E+00 0. -1.
        -11    1    5    5    0    0  0.86367893739E+01 -0.61941560296E+01 -0.45427631012E+02  0.46654381991E+02  0.00000000000E+00 0.  1.
          1    1    6    6  503    0 -0.29875444581E+03 -0.63818085401E+02  0.11504788380E+04  0.11903480683E+04  0.00000000000E+00 0. -1.
         -1    1    6    6    0  503 -0.19385634330E+02 -0.13521900791E+02  0.32556109691E+02  0.40231143379E+02  0.00000000000E+00 0.  1.
<mgrwt>
<rscale>  0 0.21013467E+04</rscale>
<asrwt>0</asrwt>
<pdfrwt beam="1">  1        2 0.20401423E+00 0.21013467E+04</pdfrwt>
<pdfrwt beam="2">  1       -2 0.12807025E+00 0.21013467E+04</pdfrwt>
<totfact> 0.66357297E+00</totfact>
</mgrwt>
</event>
<event>
12    2  0.3561489E-008  0.2661241E+04  0.7818608E-02  0.8347692E-01
          2   -1    0    0  501    0  0.00000000000E+00  0.00000000000E+00  0.25464956020E+04  0.25464956020E+04  0.00000000000E+00 0. -1.
         -2   -1    0    0    0  501 -0.00000000000E+00 -0.00000000000E+00 -0.69528898884E+03  0.69528898884E+03  0.00000000000E+00 0.  1.
         23    2    1    2    0    0  0.37336969640E+03 -0.93909347101E+03  0.86910062252E+02  0.10181496481E+04  0.88169550211E+02 0.  0.
        254    2    1    2    0    0 -0.37336969640E+03  0.93909347101E+03  0.17642965509E+04  0.22236349427E+04  0.90028248974E+03 0.  0.
         23    2    4    4    0    0 -0.36832272567E+03  0.57538320726E+02  0.21815541503E+03  0.44105806929E+03  0.89264476592E+02 0.  0.
         23    2    4    4    0    0 -0.50469707327E+01  0.88155515029E+03  0.15461411358E+04  0.17825768734E+04  0.99312348868E+02 0.  0.
          3    1    3    3  502    0  0.92565485563E+02 -0.19092250548E+03 -0.14168919056E+02  0.21265119441E+03  0.00000000000E+00 0. -1.
         -3    1    3    3    0  502  0.28080421084E+03 -0.74817096553E+03  0.10107898131E+03  0.80549845373E+03  0.00000000000E+00 0.  1.
         11    1    5    5    0    0 -0.99144606785E+01  0.15424319998E+02  0.27125516378E+02  0.32741408289E+02  0.00000000000E+00 0.  1.
        -11    1    5    5    0    0 -0.35840826499E+03  0.42114000728E+02  0.19102989866E+03  0.40831666100E+03  0.00000000000E+00 0. -1.
          2    1    6    6  503    0  0.55060039590E+01  0.71618373937E+03  0.11741460095E+04  0.13753429813E+04  0.00000000000E+00 0. -1.
         -2    1    6    6    0  503 -0.10552974692E+02  0.16537141092E+03  0.37199512634E+03  0.40723389206E+03  0.00000000000E+00 0.  1.
<mgrwt>
<rscale>  0 0.26612406E+04</rscale>
<asrwt>0</asrwt>
<pdfrwt beam="1">  1        2 0.39176855E+00 0.26612406E+04</pdfrwt>
<pdfrwt beam="2">  1       -2 0.10696754E+00 0.26612406E+04</pdfrwt>
<totfact> 0.20230983E+00</totfact>
</mgrwt>
</event>
<event>
12    2  0.3561489E-008  0.2524862E+04  0.7818608E-02  0.8394182E-01
         -2   -1    0    0    0  501 -0.00000000000E+00  0.00000000000E+00  0.80799082671E+03  0.80799082671E+03  0.00000000000E+00 0.  1.
          2   -1    0    0  501    0  0.00000000000E+00 -0.00000000000E+00 -0.19724626439E+04  0.19724626439E+04  0.00000000000E+00 0. -1.
         23    2    1    2    0    0  0.27339871516E+03 -0.67753815238E+03  0.39443455539E+03  0.84014170224E+03  0.12827570294E+03 0.  0.
        254    2    1    2    0    0 -0.27339871516E+03  0.67753815238E+03 -0.15589063726E+04  0.19403117684E+04  0.89488316258E+03 0.  0.
         23    2    4    4    0    0  0.17211302219E+03  0.12884694479E+03 -0.10205403630E+04  0.10471379336E+04  0.93652506636E+02 0.  0.
         23    2    4    4    0    0 -0.44551173734E+03  0.54869120759E+03 -0.53836600961E+03  0.89317383476E+03  0.91535727423E+02 0.  0.
          1    1    3    3  502    0  0.25080544041E+02 -0.75826701569E+02  0.93620305665E+02  0.12305886394E+03  0.00000000000E+00 0. -1.
         -1    1    3    3    0  502  0.24831817112E+03 -0.60171145081E+03  0.30081424972E+03  0.71708283830E+03  0.00000000000E+00 0.  1.
         11    1    5    5    0    0  0.28133355199E+02 -0.13220071461E+02 -0.10413920556E+03  0.10867948334E+03  0.00000000000E+00 0.  1.
        -11    1    5    5    0    0  0.14397966699E+03  0.14206701625E+03 -0.91640115740E+03  0.93845845028E+03  0.00000000000E+00 0. -1.
          4    1    6    6  503    0 -0.50522027936E+02  0.87557279022E+02 -0.44240743337E+02  0.11034489471E+03  0.00000000000E+00 0.  1.
         -4    1    6    6    0  503 -0.39498970941E+03  0.46113392857E+03 -0.49412526628E+03  0.78282894006E+03  0.00000000000E+00 0. -1.
<mgrwt>
<rscale>  0 0.25248618E+04</rscale>
<asrwt>0</asrwt>
<pdfrwt beam="1">  1        2 0.30345579E+00 0.25248618E+04</pdfrwt>
<pdfrwt beam="2">  1       -2 0.12430628E+00 0.25248618E+04</pdfrwt>
<totfact> 0.29953271E+00</totfact>
</mgrwt>
</event>
<event>
12    2  0.3561489E-008  0.2635529E+04  0.7818608E-02  0.8356232E-01
          1   -1    0    0  501    0  0.00000000000E+00  0.00000000000E+00  0.13272305633E+04  0.13272305633E+04  0.00000000000E+00 0. -1.
         -1   -1    0    0    0  501 -0.00000000000E+00 -0.00000000000E+00 -0.13083662472E+04  0.13083662472E+04  0.00000000000E+00 0.  1.
         23    2    1    2    0    0 -0.81305643127E+03  0.64124322897E+03 -0.52789576007E+03  0.11658710050E+04  0.91255836587E+02 0.  0.
        254    2    1    2    0    0  0.81305643127E+03 -0.64124322897E+03  0.54676007611E+03  0.14697258055E+04  0.88819689452E+03 0.  0.
         23    2    4    4    0    0 -0.12672487021E+03 -0.10675175891E+03 -0.93500522595E+02  0.20921666854E+03  0.87029511704E+02 0.  0.
         23    2    4    4    0    0  0.93978130148E+03 -0.53449147006E+03  0.64026059871E+03  0.12605091370E+04  0.10039733047E+03 0.  0.
          3    1    3    3  502    0 -0.77153462014E+03  0.61562546469E+03 -0.48026060626E+03  0.10976842136E+04  0.00000000000E+00 0. -1.
         -3    1    3    3    0  502 -0.41521811129E+02  0.25617764286E+02 -0.47635153809E+02  0.68186791425E+02  0.00000000000E+00 0.  1.
         11    1    5    5    0    0 -0.62375608959E+02 -0.85027363425E+02 -0.16825516113E+02  0.10678701755E+03  0.00000000000E+00 0.  1.
        -11    1    5    5    0    0 -0.64349261252E+02 -0.21724395486E+02 -0.76675006482E+02  0.10242965099E+03  0.00000000000E+00 0. -1.
          2    1    6    6  503    0  0.19988401417E+02 -0.31611311561E+02  0.25327669449E+02  0.45169702783E+02  0.00000000000E+00 0. -1.
         -2    1    6    6    0  503  0.91979290006E+03 -0.50288015850E+03  0.61493292926E+03  0.12153394342E+04  0.00000000000E+00 0.  1.
<mgrwt>
<rscale>  0 0.26355293E+04</rscale>
<asrwt>0</asrwt>
<pdfrwt beam="1">  1        1 0.20418932E+00 0.26355293E+04</pdfrwt>
<pdfrwt beam="2">  1       -1 0.20128711E+00 0.26355293E+04</pdfrwt>
<totfact> 0.11199548E+00</totfact>
</mgrwt>
</event>
<event>
12    2  0.3561489E-008  0.1897497E+04  0.7818608E-02  0.8656103E-01
         -1   -1    0    0    0  501 -0.00000000000E+00  0.00000000000E+00  0.41686441801E+03  0.41686441801E+03  0.00000000000E+00 0.  1.
          1   -1    0    0  501    0  0.00000000000E+00 -0.00000000000E+00 -0.21592731563E+04  0.21592731563E+04  0.00000000000E+00 0. -1.
         23    2    1    2    0    0 -0.31061667648E+03 -0.13768794185E+03 -0.15292729572E+04  0.15691091853E+04  0.89370960820E+02 0.  0.
        254    2    1    2    0    0  0.31061667648E+03  0.13768794185E+03 -0.21313578106E+03  0.10070283890E+04  0.92370916748E+03 0.  0.
         23    2    4    4    0    0 -0.14523989263E+03 -0.52471239406E+02  0.26133650798E+03  0.31601945908E+03  0.87884416891E+02 0.  0.
         23    2    4    4    0    0  0.45585656911E+03  0.19015918126E+03 -0.47447228904E+03  0.69100892994E+03  0.91671491593E+02 0.  0.
          4    1    3    3  502    0 -0.26118667192E+03 -0.12344311851E+03 -0.14087720019E+04  0.14380873528E+04  0.00000000000E+00 0. -1.
         -4    1    3    3    0  502 -0.49430004560E+02 -0.14244823340E+02 -0.12050095535E+03  0.13102183247E+03  0.00000000000E+00 0.  1.
         11    1    5    5    0    0  0.14778752035E+01 -0.16709462519E+01 -0.62577914569E+01  0.66435028721E+01  0.00000000000E+00 0.  1.
        -11    1    5    5    0    0 -0.14671776784E+03 -0.50800293154E+02  0.26759429944E+03  0.30937595620E+03  0.00000000000E+00 0. -1.
          2    1    6    6  503    0  0.28962188669E+03  0.16560948378E+03 -0.33252216467E+03  0.47103962504E+03  0.00000000000E+00 0. -1.
         -2    1    6    6    0  503  0.16623468242E+03  0.24549697474E+02 -0.14195012438E+03  0.21996930490E+03  0.00000000000E+00 0.  1.
<mgrwt>
<rscale>  0 0.18974975E+04</rscale>
<asrwt>0</asrwt>
<pdfrwt beam="1">  1        1 0.33219587E+00 0.18974975E+04</pdfrwt>
<pdfrwt beam="2">  1       -1 0.64132988E-01 0.18974975E+04</pdfrwt>
<totfact> 0.53592930E+00</totfact>
</mgrwt>
</event>
<event>
12    2  0.3561489E-008  0.1762018E+04  0.7818608E-02  0.8726763E-01
          2   -1    0    0  501    0  0.00000000000E+00  0.00000000000E+00  0.12411027698E+04  0.12411027698E+04  0.00000000000E+00 0. -1.
         -2   -1    0    0    0  501 -0.00000000000E+00 -0.00000000000E+00 -0.62539287851E+03  0.62539287851E+03  0.00000000000E+00 0.  1.
         23    2    1    2    0    0 -0.26511304499E+03 -0.58523080836E+03  0.15534741702E+03  0.66703978950E+03  0.89605999362E+02 0.  0.
        254    2    1    2    0    0  0.26511304499E+03  0.58523080836E+03  0.46036247427E+03  0.11994558588E+04  0.90220880281E+03 0.  0.
         23    2    4    4    0    0  0.59246288977E+03  0.36339838780E+03  0.27133519313E+03  0.75163738205E+03  0.90913712162E+02 0.  0.
         23    2    4    4    0    0 -0.32734984478E+03  0.22183242056E+03  0.18902728114E+03  0.44781847677E+03  0.91883248906E+02 0.  0.
          2    1    3    3  502    0 -0.20914393250E+03 -0.39562200564E+03  0.13935135589E+03  0.46869687031E+03  0.00000000000E+00 0. -1.
         -2    1    3    3    0  502 -0.55969112497E+02 -0.18960880272E+03  0.15996061131E+02  0.19834291919E+03  0.00000000000E+00 0.  1.
         11    1    5    5    0    0  0.33079759209E+03  0.24292970837E+03  0.12821483544E+03  0.42997782986E+03  0.00000000000E+00 0.  1.
        -11    1    5    5    0    0  0.26166529768E+03  0.12046867942E+03  0.14312035769E+03  0.32165955220E+03  0.00000000000E+00 0. -1.
          3    1    6    6  503    0 -0.11378710374E+03  0.12725630296E+03  0.10011257198E+03  0.19789946612E+03  0.00000000000E+00 0. -1.
         -3    1    6    6    0  503 -0.21356274104E+03  0.94576117605E+02  0.88914709161E+02  0.24991901065E+03  0.00000000000E+00 0.  1.
<mgrwt>
<rscale>  0 0.17620180E+04</rscale>
<asrwt>0</asrwt>
<pdfrwt beam="1">  1        2 0.19093889E+00 0.17620180E+04</pdfrwt>
<pdfrwt beam="2">  1       -2 0.96214289E-01 0.17620180E+04</pdfrwt>
<totfact> 0.15339571E+01</totfact>
</mgrwt>
</event>
<event>
12    2  0.3561489E-008  0.1355327E+04  0.7818608E-02  0.8986805E-01
          2   -1    0    0  501    0  0.00000000000E+00  0.00000000000E+00  0.86529053517E+03  0.86529053517E+03  0.00000000000E+00 0. -1.
         -2   -1    0    0    0  501 -0.00000000000E+00 -0.00000000000E+00 -0.53072097806E+03  0.53072097806E+03  0.00000000000E+00 0.  1.
         23    2    1    2    0    0  0.13798502418E+03  0.15477357584E+03 -0.22067621506E+03  0.31663709724E+03  0.92554485491E+02 0.  0.
        254    2    1    2    0    0 -0.13798502418E+03 -0.15477357584E+03  0.55524577217E+03  0.10793744160E+04  0.90208455019E+03 0.  0.
         23    2    4    4    0    0  0.34461546039E+01  0.36138963738E+03  0.30115269777E+03  0.47967392056E+03  0.93700462664E+02 0.  0.
         23    2    4    4    0    0 -0.14143117878E+03 -0.51616321322E+03  0.25409307440E+03  0.59970049542E+03  0.93006197294E+02 0.  0.
          3    1    3    3  502    0  0.19054181146E+02  0.13040502965E+01  0.41843252884E+01  0.19551750418E+02  0.00000000000E+00 0. -1.
         -3    1    3    3    0  502  0.11893084303E+03  0.15346952554E+03 -0.22486054034E+03  0.29708534683E+03  0.00000000000E+00 0.  1.
         11    1    5    5    0    0  0.28538629576E+02  0.91204081749E+02  0.41768360079E+02  0.10429397782E+03  0.00000000000E+00 0.  1.
        -11    1    5    5    0    0 -0.25092474972E+02  0.27018555563E+03  0.25938433769E+03  0.37537994274E+03  0.00000000000E+00 0. -1.
          1    1    6    6  503    0 -0.76403065090E+02 -0.35728634041E+03  0.12970845530E+03  0.38770509511E+03  0.00000000000E+00 0. -1.
         -1    1    6    6    0  503 -0.65028113692E+02 -0.15887687281E+03  0.12438461909E+03  0.21199540031E+03  0.00000000000E+00 0.  1.
<mgrwt>
<rscale>  0 0.13553270E+04</rscale>
<asrwt>0</asrwt>
<pdfrwt beam="1">  1        2 0.13312162E+00 0.13553270E+04</pdfrwt>
<pdfrwt beam="2">  1       -2 0.81649381E-01 0.13553270E+04</pdfrwt>
<totfact> 0.39934337E+01</totfact>
</mgrwt>
</event>
<event>
12    2  0.3561489E-008  0.1790743E+04  0.7818608E-02  0.8711238E-01
          2   -1    0    0  501    0  0.00000000000E+00  0.00000000000E+00  0.84508992728E+03  0.84508992728E+03  0.00000000000E+00 0. -1.
         -2   -1    0    0    0  501 -0.00000000000E+00 -0.00000000000E+00 -0.94864440457E+03  0.94864440457E+03  0.00000000000E+00 0.  1.
         23    2    1    2    0    0 -0.14493061039E+03 -0.10187421984E+03 -0.69259281574E+03  0.72050859353E+03  0.89803042515E+02 0.  0.
        254    2    1    2    0    0  0.14493061039E+03  0.10187421984E+03  0.58903833844E+03  0.10732257383E+04  0.87946806806E+03 0.  0.
         23    2    4    4    0    0 -0.10981716130E+03 -0.39506921109E+02  0.72304617649E+03  0.73865417913E+03  0.95883352479E+02 0.  0.
         23    2    4    4    0    0  0.25474777169E+03  0.14138114095E+03 -0.13400783804E+03  0.33457155919E+03  0.95367569783E+02 0.  0.
          3    1    3    3  502    0 -0.48585347528E+02 -0.49882767878E+02 -0.43616228659E+03  0.44168582360E+03  0.00000000000E+00 0. -1.
         -3    1    3    3    0  502 -0.96345262867E+02 -0.51991451960E+02 -0.25643052915E+03  0.27882276993E+03  0.00000000000E+00 0.  1.
         11    1    5    5    0    0 -0.39270345512E+02 -0.22752177070E+02  0.83730751021E+02  0.95240013989E+02  0.00000000000E+00 0.  1.
        -11    1    5    5    0    0 -0.70546815784E+02 -0.16754744039E+02  0.63931542547E+03  0.64341416514E+03  0.00000000000E+00 0. -1.
          2    1    6    6  503    0  0.20448825874E+03  0.11820341482E+03 -0.14635852997E+03  0.27786384171E+03  0.00000000000E+00 0. -1.
         -2    1    6    6    0  503  0.50259512951E+02  0.23177726128E+02  0.12350691926E+02  0.56707717478E+02  0.00000000000E+00 0.  1.
<mgrwt>
<rscale>  0 0.17907427E+04</rscale>
<asrwt>0</asrwt>
<pdfrwt beam="1">  1        2 0.13001383E+00 0.17907427E+04</pdfrwt>
<pdfrwt beam="2">  1       -2 0.14594529E+00 0.17907427E+04</pdfrwt>
<totfact> 0.97330714E+00</totfact>
</mgrwt>
</event>
<event>
12    2  0.3561489E-008  0.2171923E+04  0.7818608E-02  0.8530206E-01
         -1   -1    0    0    0  501 -0.00000000000E+00  0.00000000000E+00  0.57214107063E+03  0.57214107063E+03  0.00000000000E+00 0.  1.
          1   -1    0    0  501    0  0.00000000000E+00 -0.00000000000E+00 -0.20612270480E+04  0.20612270480E+04  0.00000000000E+00 0. -1.
         23    2    1    2    0    0  0.40517790289E+03  0.46779951132E+03  0.17708033559E+03  0.65035694345E+03  0.92742616213E+02 0.  0.
        254    2    1    2    0    0 -0.40517790289E+03 -0.46779951132E+03 -0.16661663130E+04  0.19830111752E+04  0.87932793807E+03 0.  0.
         23    2    4    4    0    0 -0.57972093761E+03 -0.59224478072E+03 -0.12066979377E+04  0.14665816348E+04  0.88946797594E+02 0.  0.
         23    2    4    4    0    0  0.17454303472E+03  0.12444526941E+03 -0.45946837524E+03  0.51642954039E+03  0.98165097138E+02 0.  0.
          1    1    3    3  502    0  0.84489523690E+01  0.10016908958E+02  0.21080197995E+02  0.24821321655E+02  0.00000000000E+00 0. -1.
         -1    1    3    3    0  502  0.39672895052E+03  0.45778260236E+03  0.15600013760E+03  0.62553562180E+03  0.00000000000E+00 0.  1.
         11    1    5    5    0    0 -0.18769185702E+03 -0.25266752142E+03 -0.46719839749E+03  0.56333245264E+03  0.00000000000E+00 0.  1.
        -11    1    5    5    0    0 -0.39202908059E+03 -0.33957725930E+03 -0.73949954024E+03  0.90324918217E+03  0.00000000000E+00 0. -1.
          1    1    6    6  503    0  0.13498405179E+03  0.71463669802E+02 -0.39740341917E+03  0.42574314781E+03  0.00000000000E+00 0. -1.
         -1    1    6    6    0  503  0.39558982932E+02  0.52981599606E+02 -0.62064956065E+02  0.90686392578E+02  0.00000000000E+00 0.  1.
<mgrwt>
<rscale>  0 0.21719232E+04</rscale>
<asrwt>0</asrwt>
<pdfrwt beam="1">  1        1 0.31711185E+00 0.21719232E+04</pdfrwt>
<pdfrwt beam="2">  1       -1 0.88021704E-01 0.21719232E+04</pdfrwt>
<totfact> 0.31390432E+00</totfact>
</mgrwt>
</event>
<event>
12    2  0.3561489E-008  0.3216690E+04  0.7818608E-02  0.8184423E-01
          1   -1    0    0  501    0  0.00000000000E+00  0.00000000000E+00  0.14447659728E+04  0.14447659728E+04  0.00000000000E+00 0. -1.
         -1   -1    0    0    0  501 -0.00000000000E+00 -0.00000000000E+00 -0.17904452378E+04  0.17904452378E+04  0.00000000000E+00 0.  1.
         23    2    1    2    0    0 -0.93780065576E+03  0.55188794251E+03  0.84699980375E+03  0.13819593748E+04  0.91392970365E+02 0.  0.
        254    2    1    2    0    0  0.93780065576E+03 -0.55188794251E+03 -0.11926790688E+04  0.18532518358E+04  0.90994979790E+03 0.  0.
         23    2    4    4    0    0  0.56149399340E+03 -0.38146489421E+03 -0.11388513895E+03  0.69441414387E+03  0.91925013996E+02 0.  0.
         23    2    4    4    0    0  0.37630666236E+03 -0.17042304830E+03 -0.10787939298E+04  0.11588376919E+04  0.91965937430E+02 0.  0.
          3    1    3    3  502    0 -0.58999998464E+03  0.38311991667E+03  0.58527249880E+03  0.91510914665E+03  0.00000000000E+00 0. -1.
         -3    1    3    3    0  502 -0.34780067112E+03  0.16876802584E+03  0.26172730495E+03  0.46685022816E+03  0.00000000000E+00 0.  1.
         11    1    5    5    0    0  0.22944058736E+03 -0.10742809187E+03 -0.22921012659E+02  0.25437993410E+03  0.00000000000E+00 0. -1.
        -11    1    5    5    0    0  0.33205340604E+03 -0.27403680234E+03 -0.90964126293E+02  0.44003420977E+03  0.00000000000E+00 0.  1.
          3    1    6    6  503    0  0.34462325375E+03 -0.12306340329E+03 -0.91812148494E+03  0.98836068789E+03  0.00000000000E+00 0.  1.
         -3    1    6    6    0  503  0.31683408612E+02 -0.47359645013E+02 -0.16067244487E+03  0.17047700401E+03  0.00000000000E+00 0. -1.
<mgrwt>
<rscale>  0 0.32166904E+04</rscale>
<asrwt>0</asrwt>
<pdfrwt beam="1">  1        1 0.22227169E+00 0.32166904E+04</pdfrwt>
<pdfrwt beam="2">  1       -1 0.27545311E+00 0.32166904E+04</pdfrwt>
<totfact> 0.28439399E-01</totfact>
</mgrwt>
</event>
<event>
12    2  0.3561489E-008  0.1861428E+04  0.7818608E-02  0.8674298E-01
         -2   -1    0    0    0  501 -0.00000000000E+00  0.00000000000E+00  0.52108446067E+03  0.52108446067E+03  0.00000000000E+00 0.  1.
          2   -1    0    0  501    0  0.00000000000E+00 -0.00000000000E+00 -0.16623563977E+04  0.16623563977E+04  0.00000000000E+00 0. -1.
         23    2    1    2    0    0 -0.68509982027E+03 -0.13322350140E+03 -0.29358778726E+03  0.76264371387E+03  0.91221600596E+02 0.  0.
        254    2    1    2    0    0  0.68509982027E+03  0.13322350140E+03 -0.84768414979E+03  0.14207971445E+04  0.90165727579E+03 0.  0.
         23    2    4    4    0    0  0.40055181643E+03  0.29457370766E+03 -0.94116157196E+03  0.10683366025E+04  0.91337641494E+02 0.  0.
         23    2    4    4    0    0  0.28454800385E+03 -0.16135020626E+03  0.93477422176E+02  0.35246054204E+03  0.92135496335E+02 0.  0.
          2    1    3    3  502    0 -0.83295593657E+02  0.75572231854E+01 -0.55201608958E+02  0.10021220074E+03  0.00000000000E+00 0. -1.
         -2    1    3    3    0  502 -0.60180422662E+03 -0.14078072459E+03 -0.23838617830E+03  0.66243151313E+03  0.00000000000E+00 0.  1.
         11    1    5    5    0    0  0.30130633704E+03  0.26653278060E+03 -0.75842207399E+03  0.85850409096E+03  0.00000000000E+00 0.  1.
        -11    1    5    5    0    0  0.99245479392E+02  0.28040927064E+02 -0.18273949797E+03  0.20983251152E+03  0.00000000000E+00 0. -1.
          3    1    6    6  503    0  0.80462579696E+02 -0.35309638173E+02 -0.15108177288E+02  0.89158590726E+02  0.00000000000E+00 0. -1.
         -3    1    6    6    0  503  0.20408542415E+03 -0.12604056809E+03  0.10858559946E+03  0.26330195131E+03  0.00000000000E+00 0.  1.
<mgrwt>
<rscale>  0 0.18614275E+04</rscale>
<asrwt>0</asrwt>
<pdfrwt beam="1">  1        2 0.25574714E+00 0.18614275E+04</pdfrwt>
<pdfrwt beam="2">  1       -2 0.80166840E-01 0.18614275E+04</pdfrwt>
<totfact> 0.13302093E+01</totfact>
</mgrwt>
</event>
<event>
12    2  0.3561489E-008  0.3209723E+04  0.7818608E-02  0.8186254E-01
         -1   -1    0    0    0  501 -0.00000000000E+00  0.00000000000E+00  0.11951817977E+04  0.11951817977E+04  0.00000000000E+00 0.  1.
          1   -1    0    0  501    0  0.00000000000E+00 -0.00000000000E+00 -0.21549702638E+04  0.21549702638E+04  0.00000000000E+00 0. -1.
         23    2    1    2    0    0 -0.11968639005E+04 -0.11992173536E+03 -0.13369109905E+04  0.18007928185E+04  0.93055681851E+02 0.  0.
        254    2    1    2    0    0  0.11968639005E+04  0.11992173536E+03  0.37712252434E+03  0.15493592429E+04  0.90079312073E+03 0.  0.
         23    2    4    4    0    0  0.61227119904E+03 -0.73350432860E+02 -0.24443250554E+03  0.66929722219E+03  0.89192010302E+02 0.  0.
         23    2    4    4    0    0  0.58459270144E+03  0.19327216822E+03  0.62155502987E+03  0.88006202072E+03  0.95266718019E+02 0.  0.
          1    1    3    3  502    0 -0.96644796652E+03 -0.73250858568E+02 -0.11169882868E+04  0.14788678755E+04  0.00000000000E+00 0. -1.
         -1    1    3    3    0  502 -0.23041593396E+03 -0.46670876792E+02 -0.21992270361E+03  0.32192494300E+03  0.00000000000E+00 0.  1.
         11    1    5    5    0    0  0.49380349077E+03 -0.91310875241E+02 -0.21256549903E+03  0.54531060397E+03  0.00000000000E+00 0.  1.
        -11    1    5    5    0    0  0.11846770827E+03  0.17960442381E+02 -0.31867006509E+02  0.12398661822E+03  0.00000000000E+00 0. -1.
          4    1    6    6  503    0  0.66499411590E+02  0.27364875569E+02  0.34691993759E+02  0.79840732635E+02  0.00000000000E+00 0. -1.
         -4    1    6    6    0  503  0.51809328985E+03  0.16590729265E+03  0.58686303611E+03  0.80022128808E+03  0.00000000000E+00 0.  1.
<mgrwt>
<rscale>  0 0.32097235E+04</rscale>
<asrwt>0</asrwt>
<pdfrwt beam="1">  1        1 0.33153388E+00 0.32097235E+04</pdfrwt>
<pdfrwt beam="2">  1       -1 0.18387413E+00 0.32097235E+04</pdfrwt>
<totfact> 0.38159376E-01</totfact>
</mgrwt>
</event>
<event>
12    2  0.3561489E-008  0.2708063E+04  0.7818608E-02  0.8332393E-01
          2   -1    0    0  501    0  0.00000000000E+00  0.00000000000E+00  0.20137788694E+04  0.20137788694E+04  0.00000000000E+00 0. -1.
         -2   -1    0    0    0  501 -0.00000000000E+00 -0.00000000000E+00 -0.91042853772E+03  0.91042853772E+03  0.00000000000E+00 0.  1.
         23    2    1    2    0    0  0.10233605199E+04 -0.16043953289E+03  0.11447045050E+04  0.15464785302E+04  0.90773582568E+02 0.  0.
        254    2    1    2    0    0 -0.10233605199E+04  0.16043953289E+03 -0.41354173297E+02  0.13777288769E+04  0.90742442835E+03 0.  0.
         23    2    4    4    0    0  0.26856580286E+02  0.11807357558E+03 -0.25968070275E+03  0.30042908137E+03  0.90337812682E+02 0.  0.
         23    2    4    4    0    0 -0.10502171002E+04  0.42365957306E+02  0.21832652945E+03  0.10772997955E+04  0.90319123651E+02 0.  0.
          3    1    3    3  502    0  0.59974752165E+03 -0.10989509064E+03  0.73502687516E+03  0.95500708263E+03  0.00000000000E+00 0. -1.
         -3    1    3    3    0  502  0.42361299825E+03 -0.50544442247E+02  0.40967762980E+03  0.59147144757E+03  0.00000000000E+00 0.  1.
         11    1    5    5    0    0  0.11348732085E+02  0.44089234341E+02 -0.19711280291E+03  0.20230203009E+03  0.00000000000E+00 0.  1.
        -11    1    5    5    0    0  0.15507848201E+02  0.73984341240E+02 -0.62567899834E+02  0.98127051286E+02  0.00000000000E+00 0. -1.
          3    1    6    6  503    0 -0.15185674796E+03 -0.24550205190E+02  0.40442706305E+02  0.15905595546E+03  0.00000000000E+00 0. -1.
         -3    1    6    6    0  503 -0.89836035223E+03  0.66916162496E+02  0.17788382315E+03  0.91824384005E+03  0.00000000000E+00 0.  1.
<mgrwt>
<rscale>  0 0.27080633E+04</rscale>
<asrwt>0</asrwt>
<pdfrwt beam="1">  1        2 0.30981213E+00 0.27080633E+04</pdfrwt>
<pdfrwt beam="2">  1       -2 0.14006593E+00 0.27080633E+04</pdfrwt>
<totfact> 0.20645402E+00</totfact>
</mgrwt>
</event>
<event>
12    2  0.3561489E-008  0.3406922E+04  0.7818608E-02  0.8136210E-01
         -2   -1    0    0    0  501 -0.00000000000E+00  0.00000000000E+00  0.96879899964E+03  0.96879899964E+03  0.00000000000E+00 0.  1.
          2   -1    0    0  501    0  0.00000000000E+00 -0.00000000000E+00 -0.29952334089E+04  0.29952334089E+04  0.00000000000E+00 0. -1.
         23    2    1    2    0    0  0.11822479263E+03 -0.10416914514E+04  0.42503852099E+03  0.11349444514E+04  0.91339925301E+02 0.  0.
        254    2    1    2    0    0 -0.11822479263E+03  0.10416914514E+04 -0.24514729303E+04  0.28290879571E+04  0.94600262139E+03 0.  0.
         23    2    4    4    0    0  0.67529005148E+02  0.11558027256E+04 -0.18635797791E+04  0.21958392236E+04  0.91324673677E+02 0.  0.
         23    2    4    4    0    0 -0.18575379778E+03 -0.11411127412E+03 -0.58789315117E+03  0.63324873349E+03  0.88655202908E+02 0.  0.
          1    1    3    3  502    0  0.29329256137E+02 -0.22241522184E+03  0.51620047873E+02  0.23020287903E+03  0.00000000000E+00 0. -1.
         -1    1    3    3    0  502  0.88895536497E+02 -0.81927622959E+03  0.37341847312E+03  0.90474157241E+03  0.00000000000E+00 0.  1.
         11    1    5    5    0    0  0.56823034480E+02  0.82442330715E+03 -0.12512472621E+04  0.14995073716E+04  0.00000000000E+00 0.  1.
        -11    1    5    5    0    0  0.10705970668E+02  0.33137941840E+03 -0.61233251702E+03  0.69633185203E+03  0.00000000000E+00 0. -1.
          3    1    6    6  503    0 -0.54724018470E+01  0.11472376791E+02 -0.14950199265E+02  0.19623227799E+02  0.00000000000E+00 0. -1.
         -3    1    6    6    0  503 -0.18028139593E+03 -0.12558365091E+03 -0.57294295190E+03  0.61362550569E+03  0.00000000000E+00 0.  1.
<mgrwt>
<rscale>  0 0.34069219E+04</rscale>
<asrwt>0</asrwt>
<pdfrwt beam="1">  1        2 0.46080513E+00 0.34069219E+04</pdfrwt>
<pdfrwt beam="2">  1       -2 0.14904600E+00 0.34069219E+04</pdfrwt>
<totfact> 0.44202121E-01</totfact>
</mgrwt>
</event>
<event>
12    2  0.3561489E-008  0.1655039E+04  0.7818608E-02  0.8787431E-01
          3   -1    0    0  501    0  0.00000000000E+00  0.00000000000E+00  0.21835616516E+04  0.21835616516E+04  0.00000000000E+00 0. -1.
         -3   -1    0    0    0  501 -0.00000000000E+00 -0.00000000000E+00 -0.31361081874E+03  0.31361081874E+03  0.00000000000E+00 0.  1.
         23    2    1    2    0    0  0.49790046021E+03  0.66420234095E+02  0.22740896923E+03  0.55896398847E+03  0.91702700859E+02 0.  0.
        254    2    1    2    0    0 -0.49790046021E+03 -0.66420234095E+02  0.16425418636E+04  0.19382084819E+04  0.89799322360E+03 0.  0.
         23    2    4    4    0    0  0.22361145929E+03  0.69389942475E+02  0.21858381780E+03  0.33349463715E+03  0.92858703216E+02 0.  0.
         23    2    4    4    0    0 -0.72151191950E+03 -0.13581017657E+03  0.14239580459E+04  0.16047138447E+04  0.91794079804E+02 0.  0.
          3    1    3    3  502    0  0.13394478043E+03  0.29438053049E+02  0.20471398865E+02  0.13866103037E+03  0.00000000000E+00 0. -1.
         -3    1    3    3    0  502  0.36395567978E+03  0.36982181046E+02  0.20693757036E+03  0.42030295810E+03  0.00000000000E+00 0.  1.
         11    1    5    5    0    0  0.12390431669E+02  0.12369864407E+02 -0.73535656145E+01  0.18989767498E+02  0.00000000000E+00 0.  1.
        -11    1    5    5    0    0  0.21122102762E+03  0.57020078068E+02  0.22593738341E+03  0.31450486965E+03  0.00000000000E+00 0. -1.
          1    1    6    6  503    0 -0.60182636096E+03 -0.12176050228E+03  0.11115209220E+04  0.12698422535E+04  0.00000000000E+00 0. -1.
         -1    1    6    6    0  503 -0.11968555854E+03 -0.14049674285E+02  0.31243712387E+03  0.33487159128E+03  0.00000000000E+00 0.  1.
<mgrwt>
<rscale>  0 0.16550390E+04</rscale>
<asrwt>0</asrwt>
<pdfrwt beam="1">  1        3 0.33593255E+00 0.16550390E+04</pdfrwt>
<pdfrwt beam="2">  1       -3 0.48247820E-01 0.16550390E+04</pdfrwt>
<totfact> 0.26356268E-01</totfact>
</mgrwt>
</event>
<event>
12    2  0.3561489E-008  0.3518598E+04  0.7818608E-02  0.8109397E-01
         -1   -1    0    0    0  501 -0.00000000000E+00  0.00000000000E+00  0.73973083051E+03  0.73973083051E+03  0.00000000000E+00 0.  1.
          1   -1    0    0  501    0  0.00000000000E+00 -0.00000000000E+00 -0.41841342276E+04  0.41841342276E+04  0.00000000000E+00 0. -1.
         23    2    1    2    0    0 -0.28146212619E+02  0.45955439590E+03  0.60468223684E+03  0.76546122625E+03  0.91147294306E+02 0.  0.
        254    2    1    2    0    0  0.28146212619E+02 -0.45955439590E+03 -0.40490856339E+04  0.41584038319E+04  0.82779557009E+03 0.  0.
         23    2    4    4    0    0 -0.30314876157E+03 -0.30898681962E+03 -0.11033609904E+04  0.11888506439E+04  0.92673361756E+02 0.  0.
         23    2    4    4    0    0  0.33129497419E+03 -0.15056757628E+03 -0.29457246435E+04  0.29695531880E+04  0.92333665524E+02 0.  0.
          3    1    3    3  502    0  0.32154878900E+01  0.14185171595E+03  0.25610383710E+03  0.29278221267E+03  0.00000000000E+00 0. -1.
         -3    1    3    3    0  502 -0.31361700509E+02  0.31770267995E+03  0.34857839974E+03  0.47267901358E+03  0.00000000000E+00 0.  1.
         11    1    5    5    0    0 -0.26017153740E+03 -0.27418815308E+03 -0.86188790736E+03  0.94112652551E+03  0.00000000000E+00 0.  1.
        -11    1    5    5    0    0 -0.42977224171E+02 -0.34798666537E+02 -0.24147308304E+03  0.24772411837E+03  0.00000000000E+00 0. -1.
          1    1    6    6  503    0  0.38372972089E+02 -0.51955263202E+02 -0.62757284615E+03  0.63088787560E+03  0.00000000000E+00 0. -1.
         -1    1    6    6    0  503  0.29292200210E+03 -0.98612313081E+02 -0.23181517974E+04  0.23386653124E+04  0.00000000000E+00 0.  1.
<mgrwt>
<rscale>  0 0.35185981E+04</rscale>
<asrwt>0</asrwt>
<pdfrwt beam="1">  1        1 0.64371296E+00 0.35185981E+04</pdfrwt>
<pdfrwt beam="2">  1       -1 0.11380474E+00 0.35185981E+04</pdfrwt>
<totfact> 0.37399183E-02</totfact>
</mgrwt>
</event>
<event>
12    2  0.3561489E-008  0.1151330E+04  0.7818608E-02  0.9156557E-01
         -1   -1    0    0    0  501 -0.00000000000E+00  0.00000000000E+00  0.25440402710E+03  0.25440402710E+03  0.00000000000E+00 0.  1.
          1   -1    0    0  501    0  0.00000000000E+00 -0.00000000000E+00 -0.13026139501E+04  0.13026139501E+04  0.00000000000E+00 0. -1.
         23    2    1    2    0    0 -0.29841136333E+02 -0.14648508340E+03  0.66247132722E+02  0.18705663112E+03  0.90846725730E+02 0.  0.
        254    2    1    2    0    0  0.29841136333E+02  0.14648508340E+03 -0.11144570557E+04  0.13699613461E+04  0.78257982829E+03 0.  0.
         23    2    4    4    0    0 -0.10856376282E+03 -0.21279455442E+03 -0.86606598106E+03  0.90300756978E+03  0.91020736904E+02 0.  0.
         23    2    4    4    0    0  0.13840489916E+03  0.35927963782E+03 -0.24839107463E+03  0.46695377628E+03  0.90055144007E+02 0.  0.
          3    1    3    3  502    0  0.14066241679E+02 -0.82396309707E+01 -0.13823039249E+02  0.21373513693E+02  0.00000000000E+00 0. -1.
         -3    1    3    3    0  502 -0.43907378012E+02 -0.13824545242E+03  0.80070171971E+02  0.16568311742E+03  0.00000000000E+00 0.  1.
         11    1    5    5    0    0 -0.10662112687E+03 -0.14761696031E+03 -0.72629594846E+03  0.74877542455E+03  0.00000000000E+00 0.  1.
        -11    1    5    5    0    0 -0.19426359508E+01 -0.65177594118E+02 -0.13977003260E+03  0.15423214523E+03  0.00000000000E+00 0. -1.
          4    1    6    6  503    0 -0.11381812791E+02  0.30042028652E+02 -0.32582829559E+02  0.45757075191E+02  0.00000000000E+00 0. -1.
         -4    1    6    6    0  503  0.14978671195E+03  0.32923760917E+03 -0.21580824507E+03  0.42119670109E+03  0.00000000000E+00 0.  1.
<mgrwt>
<rscale>  0 0.11513301E+04</rscale>
<asrwt>0</asrwt>
<pdfrwt beam="1">  1        1 0.20040215E+00 0.11513301E+04</pdfrwt>
<pdfrwt beam="2">  1       -1 0.39139081E-01 0.11513301E+04</pdfrwt>
<totfact> 0.56662046E+01</totfact>
</mgrwt>
</event>
<event>
12    2  0.3561489E-008  0.2455885E+04  0.7818608E-02  0.8418872E-01
          1   -1    0    0  501    0  0.00000000000E+00  0.00000000000E+00  0.21040185988E+04  0.21040185988E+04  0.00000000000E+00 0. -1.
         -1   -1    0    0    0  501 -0.00000000000E+00 -0.00000000000E+00 -0.71664895414E+03  0.71664895414E+03  0.00000000000E+00 0.  1.
         23    2    1    2    0    0 -0.50925207125E+01 -0.22128489330E+03  0.18035356389E+04  0.18193768525E+04  0.91642744966E+02 0.  0.
        254    2    1    2    0    0  0.50925207125E+01  0.22128489330E+03 -0.41616599423E+03  0.10012907005E+04  0.88340024586E+03 0.  0.
         23    2    4    4    0    0  0.89212785161E+02  0.13425210645E+03 -0.67587560345E+03  0.70119081630E+03  0.94224096663E+02 0.  0.
         23    2    4    4    0    0 -0.84120264449E+02  0.87032786853E+02  0.25970960923E+03  0.30009988421E+03  0.89218465001E+02 0.  0.
          4    1    3    3  502    0 -0.16394088325E+02 -0.65466917867E+02  0.89207378913E+03  0.89462300927E+03  0.00000000000E+00 0. -1.
         -4    1    3    3    0  502  0.11301567613E+02 -0.15581797544E+03  0.91146184977E+03  0.92475384318E+03  0.00000000000E+00 0.  1.
         11    1    5    5    0    0  0.92937046649E+02  0.58259176735E+02 -0.43298446889E+03  0.44666203847E+03  0.00000000000E+00 0. -1.
        -11    1    5    5    0    0 -0.37242614872E+01  0.75992929714E+02 -0.24289113456E+03  0.25452877782E+03  0.00000000000E+00 0.  1.
          1    1    6    6  503    0 -0.87106984291E+02  0.72779769094E+02  0.14342884594E+03  0.18291078522E+03  0.00000000000E+00 0. -1.
         -1    1    6    6    0  503  0.29867198423E+01  0.14253017759E+02  0.11628076329E+03  0.11718909899E+03  0.00000000000E+00 0.  1.
<mgrwt>
<rscale>  0 0.24558850E+04</rscale>
<asrwt>0</asrwt>
<pdfrwt beam="1">  1        1 0.32369517E+00 0.24558850E+04</pdfrwt>
<pdfrwt beam="2">  1       -1 0.11025369E+00 0.24558850E+04</pdfrwt>
<totfact> 0.17138343E+00</totfact>
</mgrwt>
</event>
<event>
12    2  0.3561489E-008  0.1508672E+04  0.7818608E-02  0.8878706E-01
         -2   -1    0    0    0  501 -0.00000000000E+00  0.00000000000E+00  0.20650480440E+03  0.20650480440E+03  0.00000000000E+00 0.  1.
          2   -1    0    0  501    0  0.00000000000E+00 -0.00000000000E+00 -0.27554949741E+04  0.27554949741E+04  0.00000000000E+00 0. -1.
         23    2    1    2    0    0 -0.81658720507E+02  0.10562291149E+03  0.79785416360E+02  0.18041622018E+03  0.91432782821E+02 0.  0.
        254    2    1    2    0    0  0.81658720507E+02 -0.10562291149E+03 -0.26287755861E+04  0.27815835583E+04  0.89940072489E+03 0.  0.
         23    2    4    4    0    0  0.27788242812E+03 -0.34782793491E+03 -0.21784550474E+04  0.22253990173E+04  0.92365991268E+02 0.  0.
         23    2    4    4    0    0 -0.19622370761E+03  0.24220502343E+03 -0.45032053865E+03  0.55618454104E+03  0.96879509477E+02 0.  0.
          4    1    3    3  502    0  0.82235720521E+01  0.28232677065E+02  0.50191173938E+02  0.58170999070E+02  0.00000000000E+00 0. -1.
         -4    1    3    3    0  502 -0.89882292559E+02  0.77390234421E+02  0.29594242421E+02  0.12224522111E+03  0.00000000000E+00 0.  1.
         11    1    5    5    0    0  0.44078833353E+02 -0.34687644992E+02 -0.44000940235E+03  0.44357011895E+03  0.00000000000E+00 0. -1.
        -11    1    5    5    0    0  0.23380359476E+03 -0.31314028992E+03 -0.17384456451E+04  0.17818288983E+04  0.00000000000E+00 0.  1.
          2    1    6    6  503    0 -0.15499716303E+02 -0.18184512813E+01 -0.35779830202E+01  0.16010931673E+02  0.00000000000E+00 0. -1.
         -2    1    6    6    0  503 -0.18072399131E+03  0.24402347471E+03 -0.44674255563E+03  0.54017360936E+03  0.00000000000E+00 0.  1.
<mgrwt>
<rscale>  0 0.15086722E+04</rscale>
<asrwt>0</asrwt>
<pdfrwt beam="1">  1        2 0.42392230E+00 0.15086722E+04</pdfrwt>
<pdfrwt beam="2">  1       -2 0.31769970E-01 0.15086722E+04</pdfrwt>
<totfact> 0.21976307E+01</totfact>
</mgrwt>
</event>
<event>
12    2  0.3561489E-008  0.1458664E+04  0.7818608E-02  0.8912416E-01
          2   -1    0    0  501    0  0.00000000000E+00  0.00000000000E+00  0.70471688205E+03  0.70471688205E+03  0.00000000000E+00 0. -1.
         -2   -1    0    0    0  501 -0.00000000000E+00 -0.00000000000E+00 -0.75480727558E+03  0.75480727558E+03  0.00000000000E+00 0.  1.
         23    2    1    2    0    0  0.85937300987E+02  0.43985657589E+03 -0.58174911197E+02  0.46089000828E+03  0.90422632029E+02 0.  0.
        254    2    1    2    0    0 -0.85937300987E+02 -0.43985657589E+03  0.80845176711E+01  0.99863414936E+03  0.89238208060E+03 0.  0.
         23    2    4    4    0    0 -0.35422717353E+03 -0.43175622114E+03  0.25760401576E+03  0.62086711414E+03  0.85004820579E+02 0.  0.
         23    2    4    4    0    0  0.26828987255E+03 -0.81003547471E+01 -0.24951949809E+03  0.37776703522E+03  0.91667232493E+02 0.  0.
          2    1    3    3  502    0  0.34445971875E+02  0.18693000298E+03  0.20177312915E+02  0.19114516721E+03  0.00000000000E+00 0. -1.
         -2    1    3    3    0  502  0.51491329112E+02  0.25292657291E+03 -0.78352224112E+02  0.26974484106E+03  0.00000000000E+00 0.  1.
         11    1    5    5    0    0 -0.94941361048E+02 -0.84400233844E+02  0.92017980495E+02  0.15685844015E+03  0.00000000000E+00 0. -1.
        -11    1    5    5    0    0 -0.25928581249E+03 -0.34735598730E+03  0.16558603526E+03  0.46400867399E+03  0.00000000000E+00 0.  1.
          4    1    6    6  503    0  0.29225245295E+02 -0.24705649966E+02 -0.11382350436E+02  0.39925455592E+02  0.00000000000E+00 0. -1.
         -4    1    6    6    0  503  0.23906462725E+03  0.16605295219E+02 -0.23813714765E+03  0.33784157963E+03  0.00000000000E+00 0.  1.
<mgrwt>
<rscale>  0 0.14586644E+04</rscale>
<asrwt>0</asrwt>
<pdfrwt beam="1">  1        2 0.10841798E+00 0.14586644E+04</pdfrwt>
<pdfrwt beam="2">  1       -2 0.11612420E+00 0.14586644E+04</pdfrwt>
<totfact> 0.22668548E+01</totfact>
</mgrwt>
</event>
<event>
12    2  0.3561489E-008  0.1709087E+04  0.7818608E-02  0.8756198E-01
         -1   -1    0    0    0  501 -0.00000000000E+00  0.00000000000E+00  0.63657610040E+03  0.63657610040E+03  0.00000000000E+00 0. -1.
          1   -1    0    0  501    0  0.00000000000E+00 -0.00000000000E+00 -0.11471447632E+04  0.11471447632E+04  0.00000000000E+00 0.  1.
         23    2    1    2    0    0 -0.85778435314E+02 -0.60722990802E+03 -0.25577438842E+03  0.67018026368E+03  0.87378183168E+02 0.  0.
        254    2    1    2    0    0  0.85778435314E+02  0.60722990802E+03 -0.25479427435E+03  0.11135405999E+04  0.89384922903E+03 0.  0.
         23    2    4    4    0    0  0.14928689085E+03  0.31792906482E+03 -0.56635083113E+03  0.67255305376E+03  0.90602870567E+02 0.  0.
         23    2    4    4    0    0 -0.63508455538E+02  0.28930084320E+03  0.31155655678E+03  0.44098754614E+03  0.98357643215E+02 0.  0.
          4    1    3    3  502    0 -0.10142965793E+02 -0.33977798324E+03 -0.16446334259E+03  0.37762434867E+03  0.00000000000E+00 0. -1.
         -4    1    3    3    0  502 -0.75635469521E+02 -0.26745192478E+03 -0.91311045832E+02  0.29255591501E+03  0.00000000000E+00 0.  1.
         11    1    5    5    0    0  0.78215544377E+02  0.18043007408E+03 -0.23213155309E+03  0.30423303725E+03  0.00000000000E+00 0. -1.
        -11    1    5    5    0    0  0.71071346475E+02  0.13749899075E+03 -0.33421927805E+03  0.36832001651E+03  0.00000000000E+00 0.  1.
          1    1    6    6  503    0 -0.28718051504E+02  0.11771304883E+02  0.19795317012E+02  0.36812289747E+02  0.00000000000E+00 0. -1.
         -1    1    6    6    0  503 -0.34790404034E+02  0.27752953831E+03  0.29176123977E+03  0.40417525640E+03  0.00000000000E+00 0.  1.
<mgrwt>
<rscale>  0 0.17090874E+04</rscale>
<asrwt>0</asrwt>
<pdfrwt beam="1">  1        1 0.17648381E+00 0.17090874E+04</pdfrwt>
<pdfrwt beam="2">  1       -1 0.97934785E-01 0.17090874E+04</pdfrwt>
<totfact> 0.11112127E+01</totfact>
</mgrwt>
</event>
<event>
12    2  0.3561489E-008  0.2122391E+04  0.7818608E-02  0.8551443E-01
          2   -1    0    0  501    0  0.00000000000E+00  0.00000000000E+00  0.11982496666E+04  0.11982496666E+04  0.00000000000E+00 0. -1.
         -2   -1    0    0    0  501 -0.00000000000E+00 -0.00000000000E+00 -0.93981773368E+03  0.93981773368E+03  0.00000000000E+00 0.  1.
         23    2    1    2    0    0  0.36889521523E+03 -0.78685117458E+03  0.63087993045E+02  0.87588602688E+03  0.89318455253E+02 0.  0.
        254    2    1    2    0    0 -0.36889521523E+03  0.78685117458E+03  0.19534393991E+03  0.12621813734E+04  0.89427295266E+03 0.  0.
         23    2    4    4    0    0 -0.12553435183E+03 -0.60131482786E+02 -0.22612888341E+03  0.28116206623E+03  0.92429253275E+02 0.  0.
         23    2    4    4    0    0 -0.24336086340E+03  0.84698265737E+03  0.42147282332E+03  0.98101930722E+03  0.90307301050E+02 0.  0.
          1    1    3    3  502    0  0.12995807788E+03 -0.33739474379E+03  0.62171311472E+02  0.36686453510E+03  0.00000000000E+00 0. -1.
         -1    1    3    3    0  502  0.23893713735E+03 -0.44945643079E+03  0.91668157272E+00  0.50902149178E+03  0.00000000000E+00 0.  1.
         11    1    5    5    0    0 -0.10766008574E+03 -0.42795900521E+02 -0.10136731622E+03  0.15393997519E+03  0.00000000000E+00 0. -1.
        -11    1    5    5    0    0 -0.17874266089E+02 -0.17335582265E+02 -0.12476156719E+03  0.12722209104E+03  0.00000000000E+00 0.  1.
          1    1    6    6  503    0 -0.20592540254E+03  0.77505398784E+03  0.35887749181E+03  0.87858238635E+03  0.00000000000E+00 0. -1.
         -1    1    6    6    0  503 -0.37435460860E+02  0.71928669526E+02  0.62595331517E+02  0.10243692087E+03  0.00000000000E+00 0.  1.
<mgrwt>
<rscale>  0 0.21223914E+04</rscale>
<asrwt>0</asrwt>
<pdfrwt beam="1">  1        2 0.18434610E+00 0.21223914E+04</pdfrwt>
<pdfrwt beam="2">  1       -2 0.14458734E+00 0.21223914E+04</pdfrwt>
<totfact> 0.57664869E+00</totfact>
</mgrwt>
</event>
<event>
12    2  0.3561489E-008  0.2544676E+04  0.7818608E-02  0.8387240E-01
         -1   -1    0    0    0  501 -0.00000000000E+00  0.00000000000E+00  0.59846546439E+03  0.59846546439E+03  0.00000000000E+00 0.  1.
          1   -1    0    0  501    0  0.00000000000E+00 -0.00000000000E+00 -0.27049919667E+04  0.27049919667E+04  0.00000000000E+00 0. -1.
         23    2    1    2    0    0 -0.90848847104E+03  0.56478379672E+03 -0.54206670850E+03  0.12026691921E+04  0.90801047009E+02 0.  0.
        254    2    1    2    0    0  0.90848847104E+03 -0.56478379672E+03 -0.15644597938E+04  0.21007882390E+04  0.90633588672E+03 0.  0.
         23    2    4    4    0    0  0.84549170515E+03 -0.56580772427E+03 -0.16637333761E+04  0.19523432178E+04  0.92955308322E+02 0.  0.
         23    2    4    4    0    0  0.62996765888E+02  0.10239275565E+01  0.99273582234E+02  0.14844502114E+03  0.90614784846E+02 0.  0.
          3    1    3    3  502    0 -0.75382424328E+03  0.44282651247E+03 -0.47249582069E+03  0.99377996079E+03  0.00000000000E+00 0. -1.
         -3    1    3    3    0  502 -0.15466422776E+03  0.12195728425E+03 -0.69570887812E+02  0.20888923132E+03  0.00000000000E+00 0.  1.
         11    1    5    5    0    0  0.84715886016E+03 -0.56312287438E+03 -0.16509971398E+04  0.19392207357E+04  0.00000000000E+00 0.  1.
        -11    1    5    5    0    0 -0.16671550077E+01 -0.26848498953E+01 -0.12736236243E+02  0.13122482174E+02  0.00000000000E+00 0. -1.
          3    1    6    6  503    0 -0.63656176891E+01 -0.14005124850E+02 -0.98536834102E+01  0.18269091039E+02  0.00000000000E+00 0. -1.
         -3    1    6    6    0  503  0.69362383577E+02  0.15029052406E+02  0.10912726564E+03  0.13017593011E+03  0.00000000000E+00 0.  1.
<mgrwt>
<rscale>  0 0.25446762E+04</rscale>
<asrwt>0</asrwt>
<pdfrwt beam="1">  1        1 0.41615262E+00 0.25446762E+04</pdfrwt>
<pdfrwt beam="2">  1       -1 0.92071607E-01 0.25446762E+04</pdfrwt>
<totfact> 0.98906097E-01</totfact>
</mgrwt>
</event>
<event>
12    2  0.3561489E-008  0.2729483E+04  0.7818608E-02  0.8325502E-01
          2   -1    0    0  501    0  0.00000000000E+00  0.00000000000E+00  0.21831052824E+04  0.21831052824E+04  0.00000000000E+00 0. -1.
         -2   -1    0    0    0  501 -0.00000000000E+00 -0.00000000000E+00 -0.85315136847E+03  0.85315136847E+03  0.00000000000E+00 0.  1.
         23    2    1    2    0    0 -0.18286117489E+03 -0.61376674688E+03  0.17513535227E+04  0.18665423589E+04  0.81199674024E+02 0.  0.
        254    2    1    2    0    0  0.18286117489E+03  0.61376674688E+03 -0.42139960879E+03  0.11697142920E+04  0.88346254347E+03 0.  0.
         23    2    4    4    0    0  0.28567836941E+03  0.48221473071E+03  0.13290773890E+03  0.58326667762E+03  0.91609895205E+02 0.  0.
         23    2    4    4    0    0 -0.10281719452E+03  0.13155201617E+03 -0.55430734770E+03  0.58644761436E+03  0.93738253842E+02 0.  0.
          2    1    3    3  502    0 -0.12627043873E+03 -0.49740713537E+03  0.13218618251E+04  0.14179833450E+04  0.00000000000E+00 0. -1.
         -2    1    3    3    0  502 -0.56590736163E+02 -0.11635961151E+03  0.42949169761E+03  0.44855901388E+03  0.00000000000E+00 0.  1.
         11    1    5    5    0    0  0.15817123584E+03  0.34921255188E+03  0.98759936160E+02  0.39588012230E+03  0.00000000000E+00 0.  1.
        -11    1    5    5    0    0  0.12750713357E+03  0.13300217883E+03  0.34147802744E+02  0.18738655532E+03  0.00000000000E+00 0. -1.
          1    1    6    6  503    0 -0.89604192995E+02  0.14623509639E+03 -0.48793995228E+03  0.51720306636E+03  0.00000000000E+00 0. -1.
         -1    1    6    6    0  503 -0.13213001521E+02 -0.14683080219E+02 -0.66367395416E+02  0.69244548004E+02  0.00000000000E+00 0.  1.
<mgrwt>
<rscale>  0 0.27294829E+04</rscale>
<asrwt>0</asrwt>
<pdfrwt beam="1">  1        2 0.33586235E+00 0.27294829E+04</pdfrwt>
<pdfrwt beam="2">  1       -2 0.13125406E+00 0.27294829E+04</pdfrwt>
<totfact> 0.19577830E+00</totfact>
</mgrwt>
</event>
<event>
12    2  0.3561489E-008  0.2691594E+04  0.7818608E-02  0.8337738E-01
         -2   -1    0    0    0  501 -0.00000000000E+00  0.00000000000E+00  0.14230232518E+04  0.14230232518E+04  0.00000000000E+00 0. -1.
          2   -1    0    0  501    0  0.00000000000E+00 -0.00000000000E+00 -0.12727614394E+04  0.12727614394E+04  0.00000000000E+00 0.  1.
         23    2    1    2    0    0  0.43193988950E+02 -0.69103927732E+03  0.10384817678E+04  0.12515648576E+04  0.92570013048E+02 0.  0.
        254    2    1    2    0    0 -0.43193988950E+02  0.69103927732E+03 -0.88821995542E+03  0.14442198335E+04  0.90412125012E+03 0.  0.
         23    2    4    4    0    0  0.74695774243E+02  0.74681930132E+03 -0.26511793341E+03  0.80121033342E+03  0.91279528113E+02 0.  0.
         23    2    4    4    0    0 -0.11788976319E+03 -0.55780023995E+02 -0.62310202200E+03  0.64300950012E+03  0.90529995474E+02 0.  0.
          3    1    3    3  502    0  0.11928799436E+02 -0.62800381706E+03  0.92851664885E+03  0.11210148338E+04  0.00000000000E+00 0. -1.
         -3    1    3    3    0  502  0.31265189513E+02 -0.63035460267E+02  0.10996511893E+03  0.13055002377E+03  0.00000000000E+00 0.  1.
         11    1    5    5    0    0  0.12101820527E+02  0.15985651116E+02 -0.18697670406E+02  0.27415287346E+02  0.00000000000E+00 0.  1.
        -11    1    5    5    0    0  0.62593953715E+02  0.73083365020E+03 -0.24642026301E+03  0.77379504607E+03  0.00000000000E+00 0. -1.
          1    1    6    6  503    0 -0.31239143638E+02 -0.48914857881E+02 -0.38871469455E+03  0.39302374123E+03  0.00000000000E+00 0. -1.
         -1    1    6    6    0  503 -0.86650619554E+02 -0.68651661140E+01 -0.23438732746E+03  0.24998575889E+03  0.00000000000E+00 0.  1.
<mgrwt>
<rscale>  0 0.26915937E+04</rscale>
<asrwt>0</asrwt>
<pdfrwt beam="1">  1        2 0.19580945E+00 0.26915937E+04</pdfrwt>
<pdfrwt beam="2">  1       -2 0.21892665E+00 0.26915937E+04</pdfrwt>
<totfact> 0.15115969E+00</totfact>
</mgrwt>
</event>
<event>
12    2  0.3561489E-008  0.3195293E+04  0.7818608E-02  0.8190061E-01
         -2   -1    0    0    0  501 -0.00000000000E+00  0.00000000000E+00  0.95935154178E+03  0.95935154178E+03  0.00000000000E+00 0.  1.
          2   -1    0    0  501    0  0.00000000000E+00 -0.00000000000E+00 -0.26606251879E+04  0.26606251879E+04  0.00000000000E+00 0. -1.
         23    2    1    2    0    0 -0.14603721759E+04  0.12756306918E+03 -0.89451085562E+03  0.17197621028E+04  0.92047762196E+02 0.  0.
        254    2    1    2    0    0  0.14603721759E+04 -0.12756306918E+03 -0.80676279048E+03  0.19002146269E+04  0.90054994281E+03 0.  0.
         23    2    4    4    0    0  0.50175578794E+03 -0.24879783570E+03  0.95133237243E+02  0.57531769047E+03  0.90999331658E+02 0.  0.
         23    2    4    4    0    0  0.95861638795E+03  0.12123476652E+03 -0.90189602772E+03  0.13248969364E+04  0.91061514932E+02 0.  0.
          4    1    3    3  502    0 -0.71887421575E+02  0.33363690005E+01 -0.22238166485E+02  0.75322432166E+02  0.00000000000E+00 0. -1.
         -4    1    3    3    0  502 -0.13884847543E+04  0.12422670018E+03 -0.87227268914E+03  0.16444396706E+04  0.00000000000E+00 0.  1.
         11    1    5    5    0    0  0.19098235952E+03 -0.71320494982E+02  0.73765753220E+02  0.21680004844E+03  0.00000000000E+00 0. -1.
        -11    1    5    5    0    0  0.31077342841E+03 -0.17747734072E+03  0.21367484023E+02  0.35851764204E+03  0.00000000000E+00 0.  1.
          1    1    6    6  503    0  0.66173269247E+03  0.11969209706E+03 -0.59519172803E+03  0.89803649564E+03  0.00000000000E+00 0.  1.
         -1    1    6    6    0  503  0.29688369548E+03  0.15426694655E+01 -0.30670429969E+03  0.42686044080E+03  0.00000000000E+00 0. -1.
<mgrwt>
<rscale>  0 0.31952933E+04</rscale>
<asrwt>0</asrwt>
<pdfrwt beam="1">  1        2 0.40932695E+00 0.31952933E+04</pdfrwt>
<pdfrwt beam="2">  1       -2 0.14759254E+00 0.31952933E+04</pdfrwt>
<totfact> 0.73805706E-01</totfact>
</mgrwt>
</event>
<event>
12    2  0.3561489E-008  0.2018932E+04  0.7818608E-02  0.8597820E-01
          2   -1    0    0  501    0  0.00000000000E+00  0.00000000000E+00  0.44060519036E+04  0.44060519036E+04  0.00000000000E+00 0. -1.
         -2   -1    0    0    0  501 -0.00000000000E+00 -0.00000000000E+00 -0.23127764428E+03  0.23127764428E+03  0.00000000000E+00 0.  1.
         23    2    1    2    0    0  0.27318644710E+03 -0.94114007014E+02 -0.47690427111E+02  0.30744735389E+03  0.93601374915E+02 0.  0.
        254    2    1    2    0    0 -0.27318644710E+03  0.94114007014E+02  0.42224646864E+04  0.43298821940E+04  0.91388374778E+03 0.  0.
         23    2    4    4    0    0 -0.13839454929E+03  0.93318298063E+02  0.12178802468E+03  0.22598397946E+03  0.91515463125E+02 0.  0.
         23    2    4    4    0    0 -0.13479189780E+03  0.79570895046E+00  0.41006766617E+04  0.41038982145E+04  0.90895445802E+02 0.  0.
          3    1    3    3  502    0  0.23811054174E+02 -0.79686332343E+00  0.21770202672E+02  0.32272945581E+02  0.00000000000E+00 0. -1.
         -3    1    3    3    0  502  0.24937539292E+03 -0.93317143690E+02 -0.69460629783E+02  0.27517440831E+03  0.00000000000E+00 0.  1.
         11    1    5    5    0    0 -0.37486274167E+01 -0.15729026471E+02  0.46050089541E+01  0.16812512861E+02  0.00000000000E+00 0.  1.
        -11    1    5    5    0    0 -0.13464592188E+03  0.10904732453E+03  0.11718301572E+03  0.20917146660E+03  0.00000000000E+00 0. -1.
          4    1    6    6  503    0 -0.14347721364E+03 -0.13861872999E+02  0.38068199999E+04  0.38095480538E+04  0.00000000000E+00 0. -1.
         -4    1    6    6    0  503  0.86853158407E+01  0.14657581950E+02  0.29385666183E+03  0.29435016073E+03  0.00000000000E+00 0.  1.
<mgrwt>
<rscale>  0 0.20189317E+04</rscale>
<asrwt>0</asrwt>
<pdfrwt beam="1">  1        2 0.67785408E+00 0.20189317E+04</pdfrwt>
<pdfrwt beam="2">  1       -2 0.35581179E-01 0.20189317E+04</pdfrwt>
<totfact> 0.10586660E+00</totfact>
</mgrwt>
</event>
<event>
12    2  0.3561489E-008  0.1471299E+04  0.7818608E-02  0.8903766E-01
         -1   -1    0    0    0  501 -0.00000000000E+00  0.00000000000E+00  0.30254972453E+03  0.30254972453E+03  0.00000000000E+00 0.  1.
          1   -1    0    0  501    0  0.00000000000E+00 -0.00000000000E+00 -0.17887310427E+04  0.17887310427E+04  0.00000000000E+00 0. -1.
         23    2    1    2    0    0  0.25186453124E+03 -0.19830832011E+03 -0.93390752189E+03  0.99233173101E+03  0.98879082767E+02 0.  0.
        254    2    1    2    0    0 -0.25186453124E+03  0.19830832011E+03 -0.55227379629E+03  0.10989490362E+04  0.89438286335E+03 0.  0.
         23    2    4    4    0    0 -0.83064157297E+02  0.53888105008E+03 -0.39252041600E+03  0.67805932227E+03  0.91650025481E+02 0.  0.
         23    2    4    4    0    0 -0.16880037395E+03 -0.34057272997E+03 -0.15975338029E+03  0.42088971397E+03  0.84520164247E+02 0.  0.
          2    1    3    3  502    0 -0.57530479723E+01  0.25917155510E+01 -0.42085353039E+02  0.42555745686E+02  0.00000000000E+00 0.  1.
         -2    1    3    3    0  502  0.25761757922E+03 -0.20090003566E+03 -0.89182216885E+03  0.94977598532E+03  0.00000000000E+00 0. -1.
         11    1    5    5    0    0 -0.51869972938E+02  0.49984523361E+03 -0.34941730888E+03  0.61206879303E+03  0.00000000000E+00 0.  1.
        -11    1    5    5    0    0 -0.31194184359E+02  0.39035816465E+02 -0.43103107119E+02  0.65990529231E+02  0.00000000000E+00 0. -1.
          4    1    6    6  503    0 -0.12512197653E+03 -0.26166371988E+03 -0.15885594056E+03  0.33069415048E+03  0.00000000000E+00 0.  1.
         -4    1    6    6    0  503 -0.43678397418E+02 -0.78909010091E+02 -0.89743973377E+00  0.90195563486E+02  0.00000000000E+00 0. -1.
<mgrwt>
<rscale>  0 0.14712989E+04</rscale>
<asrwt>0</asrwt>
<pdfrwt beam="1">  1        1 0.27518939E+00 0.14712989E+04</pdfrwt>
<pdfrwt beam="2">  1       -1 0.46546112E-01 0.14712989E+04</pdfrwt>
<totfact> 0.18484859E+01</totfact>
</mgrwt>
</event>
<event>
12    2  0.3561489E-008  0.3682972E+04  0.7818608E-02  0.8071746E-01
          2   -1    0    0  501    0  0.00000000000E+00  0.00000000000E+00  0.32415507348E+04  0.32415507348E+04  0.00000000000E+00 0. -1.
         -2   -1    0    0    0  501 -0.00000000000E+00 -0.00000000000E+00 -0.10461258150E+04  0.10461258150E+04  0.00000000000E+00 0.  1.
         23    2    1    2    0    0  0.14023596730E+04  0.72439424209E+03  0.18532757993E+04  0.24359872310E+04  0.89682388417E+02 0.  0.
        254    2    1    2    0    0 -0.14023596730E+04 -0.72439424209E+03  0.34214912037E+03  0.18516893188E+04  0.90571940603E+03 0.  0.
         23    2    4    4    0    0 -0.45356371491E+03 -0.26177043035E+03  0.55810140552E+03  0.77057381947E+03  0.89794380213E+02 0.  0.
         23    2    4    4    0    0 -0.94879595805E+03 -0.46262381174E+03 -0.21595228515E+03  0.10811154993E+04  0.89111010642E+02 0.  0.
          3    1    3    3  502    0  0.12952854847E+04  0.69433763408E+03  0.17162451199E+04  0.22595058195E+04  0.00000000000E+00 0. -1.
         -3    1    3    3    0  502  0.10707418823E+03  0.30056608004E+02  0.13703067948E+03  0.17648141146E+03  0.00000000000E+00 0.  1.
         11    1    5    5    0    0 -0.57519695039E+02 -0.15572309377E+02  0.10287214038E+03  0.11888519422E+03  0.00000000000E+00 0.  1.
        -11    1    5    5    0    0 -0.39604401987E+03 -0.24619812097E+03  0.45522926514E+03  0.65168862525E+03  0.00000000000E+00 0. -1.
          2    1    6    6  503    0 -0.93668957291E+03 -0.44475735735E+03 -0.21748543658E+03  0.10594792957E+04  0.00000000000E+00 0. -1.
         -2    1    6    6    0  503 -0.12106385143E+02 -0.17866454385E+02  0.15331514305E+01  0.21636203614E+02  0.00000000000E+00 0.  1.
<mgrwt>
<rscale>  0 0.36829716E+04</rscale>
<asrwt>0</asrwt>
<pdfrwt beam="1">  1        2 0.49870011E+00 0.36829716E+04</pdfrwt>
<pdfrwt beam="2">  1       -2 0.16094243E+00 0.36829716E+04</pdfrwt>
<totfact> 0.24411439E-01</totfact>
</mgrwt>
</event>
<event>
12    2  0.3561489E-008  0.1849502E+04  0.7818608E-02  0.8680409E-01
          2   -1    0    0  501    0  0.00000000000E+00  0.00000000000E+00  0.17432370725E+04  0.17432370725E+04  0.00000000000E+00 0.  1.
         -2   -1    0    0    0  501 -0.00000000000E+00 -0.00000000000E+00 -0.49056124681E+03  0.49056124681E+03  0.00000000000E+00 0. -1.
         23    2    1    2    0    0 -0.13590047615E+03  0.67682636699E+03  0.28785565408E+03  0.75354991008E+03  0.91726326257E+02 0.  0.
        254    2    1    2    0    0  0.13590047615E+03 -0.67682636699E+03  0.96482017166E+03  0.14802484093E+04  0.88526522525E+03 0.  0.
         23    2    4    4    0    0  0.71801142756E+02 -0.87782768886E+03  0.83637193013E+03  0.12179883695E+04  0.90778892134E+02 0.  0.
         23    2    4    4    0    0  0.64099333392E+02  0.20100132187E+03  0.12844824153E+03  0.26226003979E+03  0.88153966350E+02 0.  0.
          1    1    3    3  502    0 -0.76554912670E+02  0.38406463992E+03  0.21214086878E+03  0.44538752845E+03  0.00000000000E+00 0. -1.
         -1    1    3    3    0  502 -0.59345563477E+02  0.29276172707E+03  0.75714785304E+02  0.30816238164E+03  0.00000000000E+00 0.  1.
         11    1    5    5    0    0  0.50592297321E+02 -0.78494803921E+03  0.70919650435E+03  0.10590857787E+04  0.00000000000E+00 0. -1.
        -11    1    5    5    0    0  0.21208845435E+02 -0.92879649649E+02  0.12717542577E+03  0.15890259080E+03  0.00000000000E+00 0.  1.
          2    1    6    6  503    0  0.66250160380E+02  0.20172667411E+03  0.10171915706E+03  0.23543475043E+03  0.00000000000E+00 0. -1.
         -2    1    6    6    0  503 -0.21508269881E+01 -0.72535223729E+00  0.26729084471E+02  0.26825289360E+02  0.00000000000E+00 0.  1.
<mgrwt>
<rscale>  0 0.18495022E+04</rscale>
<asrwt>0</asrwt>
<pdfrwt beam="1">  1        2 0.26819032E+00 0.18495022E+04</pdfrwt>
<pdfrwt beam="2">  1       -2 0.75470962E-01 0.18495022E+04</pdfrwt>
<totfact> 0.13738537E+01</totfact>
</mgrwt>
</event>
<event>
12    2  0.3561489E-008  0.1481258E+04  0.7818608E-02  0.8897013E-01
          2   -1    0    0  501    0  0.00000000000E+00  0.00000000000E+00  0.14743271037E+04  0.14743271037E+04  0.00000000000E+00 0. -1.
         -2   -1    0    0    0  501 -0.00000000000E+00 -0.00000000000E+00 -0.37205548036E+03  0.37205548036E+03  0.00000000000E+00 0.  1.
         23    2    1    2    0    0  0.34600137922E+03 -0.24468703129E+03  0.55049819555E+03  0.70063154552E+03  0.90816306716E+02 0.  0.
        254    2    1    2    0    0 -0.34600137922E+03  0.24468703129E+03  0.55177342783E+03  0.11457510386E+04  0.91033116450E+03 0.  0.
         23    2    4    4    0    0  0.17169033334E+03  0.13297571578E+03 -0.13657016615E+03  0.27240443286E+03  0.91611425115E+02 0.  0.
         23    2    4    4    0    0 -0.51769171255E+03  0.11171131551E+03  0.68834359397E+03  0.87334660572E+03  0.91832799748E+02 0.  0.
          1    1    3    3  502    0  0.32030154099E+03 -0.24760411200E+03  0.49554040166E+03  0.63989152449E+03  0.00000000000E+00 0. -1.
         -1    1    3    3    0  502  0.25699838229E+02  0.29170807053E+01  0.54957793895E+02  0.60740021030E+02  0.00000000000E+00 0.  1.
         11    1    5    5    0    0  0.41510137994E+02  0.43068006192E+02 -0.88934955624E+02  0.10717915397E+03  0.00000000000E+00 0.  1.
        -11    1    5    5    0    0  0.13018019534E+03  0.89907709593E+02 -0.47635210522E+02  0.16522527889E+03  0.00000000000E+00 0. -1.
          3    1    6    6  503    0 -0.38576084855E+02  0.12959046512E+02  0.20668064933E+02  0.45642306223E+02  0.00000000000E+00 0. -1.
         -3    1    6    6    0  503 -0.47911562770E+03  0.98752268994E+02  0.66767552904E+03  0.82770429950E+03  0.00000000000E+00 0.  1.
<mgrwt>
<rscale>  0 0.14812582E+04</rscale>
<asrwt>0</asrwt>
<pdfrwt beam="1">  1        2 0.22681955E+00 0.14812582E+04</pdfrwt>
<pdfrwt beam="2">  1       -2 0.57239305E-01 0.14812582E+04</pdfrwt>
<totfact> 0.36318420E+01</totfact>
</mgrwt>
</event>
<event>
12    2  0.3561489E-008  0.1586139E+04  0.7818608E-02  0.8829109E-01
         -1   -1    0    0    0  501 -0.00000000000E+00  0.00000000000E+00  0.28066916494E+03  0.28066916494E+03  0.00000000000E+00 0.  1.
          1   -1    0    0  501    0  0.00000000000E+00 -0.00000000000E+00 -0.22409278160E+04  0.22409278160E+04  0.00000000000E+00 0. -1.
         23    2    1    2    0    0  0.27137433062E+03  0.21832171345E+03 -0.13155734910E+04  0.13639006355E+04  0.90459579313E+02 0.  0.
        254    2    1    2    0    0 -0.27137433062E+03 -0.21832171345E+03 -0.64468516012E+03  0.11576963455E+04  0.89628872288E+03 0.  0.
         23    2    4    4    0    0  0.27416471402E+03  0.24352239257E+02 -0.22517056963E+02  0.29112278174E+03  0.92120216140E+02 0.  0.
         23    2    4    4    0    0 -0.54553904464E+03 -0.24267395270E+03 -0.62216810316E+03  0.86657356374E+03  0.85750196724E+02 0.  0.
          1    1    3    3  502    0  0.22531949838E+03  0.16100462494E+03 -0.11475685808E+04  0.11805104884E+04  0.00000000000E+00 0. -1.
         -1    1    3    3    0  502  0.46054832241E+02  0.57317088506E+02 -0.16800491011E+03  0.18339014703E+03  0.00000000000E+00 0.  1.
         11    1    5    5    0    0  0.92356904752E+02  0.34047030679E+01 -0.51548824166E+02  0.10582377394E+03  0.00000000000E+00 0.  1.
        -11    1    5    5    0    0  0.18180780927E+03  0.20947536189E+02  0.29031767203E+02  0.18529900779E+03  0.00000000000E+00 0. -1.
          3    1    6    6  503    0 -0.31337364836E+03 -0.11362380268E+03 -0.39676198822E+03  0.51820216838E+03  0.00000000000E+00 0. -1.
         -3    1    6    6    0  503 -0.23216539627E+03 -0.12905015002E+03 -0.22540611494E+03  0.34837139535E+03  0.00000000000E+00 0.  1.
<mgrwt>
<rscale>  0 0.15861391E+04</rscale>
<asrwt>0</asrwt>
<pdfrwt beam="1">  1        1 0.34475812E+00 0.15861391E+04</pdfrwt>
<pdfrwt beam="2">  1       -1 0.43179872E-01 0.15861391E+04</pdfrwt>
<totfact> 0.10390261E+01</totfact>
</mgrwt>
</event>
<event>
12    2  0.3561489E-008  0.3142806E+04  0.7818608E-02  0.8204087E-01
         -1   -1    0    0    0  501 -0.00000000000E+00  0.00000000000E+00  0.98051327973E+03  0.98051327973E+03  0.00000000000E+00 0.  1.
          1   -1    0    0  501    0  0.00000000000E+00 -0.00000000000E+00 -0.25183819106E+04  0.25183819106E+04  0.00000000000E+00 0. -1.
         23    2    1    2    0    0  0.54730372852E+03 -0.79693765939E+03 -0.18980645830E+04  0.21320523380E+04  0.91361952797E+02 0.  0.
        254    2    1    2    0    0 -0.54730372852E+03  0.79693765939E+03  0.36019595216E+03  0.13668428523E+04  0.89658644578E+03 0.  0.
         23    2    4    4    0    0  0.34147493072E+02 -0.13930363378E+03  0.17583057982E+03  0.24584938334E+03  0.94625434312E+02 0.  0.
         23    2    4    4    0    0 -0.58145122160E+03  0.93624129318E+03  0.18436537234E+03  0.11209934690E+04  0.89456608620E+02 0.  0.
          4    1    3    3  502    0  0.38213561099E+03 -0.54665729472E+03 -0.12141928359E+04  0.13853252563E+04  0.00000000000E+00 0. -1.
         -4    1    3    3    0  502  0.16516811754E+03 -0.25028036467E+03 -0.68387174715E+03  0.74672708169E+03  0.00000000000E+00 0.  1.
         11    1    5    5    0    0 -0.30178623420E+02 -0.64669628297E+02  0.56005406035E+02  0.90716677853E+02  0.00000000000E+00 0. -1.
        -11    1    5    5    0    0  0.64326116492E+02 -0.74634005486E+02  0.11982517379E+03  0.15513270549E+03  0.00000000000E+00 0.  1.
          4    1    6    6  503    0 -0.22178084969E+03  0.38043795247E+03  0.11639486153E+03  0.45548605331E+03  0.00000000000E+00 0. -1.
         -4    1    6    6    0  503 -0.35967037190E+03  0.55580334071E+03  0.67970510804E+02  0.66550741566E+03  0.00000000000E+00 0.  1.
<mgrwt>
<rscale>  0 0.31428057E+04</rscale>
<asrwt>0</asrwt>
<pdfrwt beam="1">  1        1 0.38744337E+00 0.31428057E+04</pdfrwt>
<pdfrwt beam="2">  1       -1 0.15084820E+00 0.31428057E+04</pdfrwt>
<totfact> 0.37990188E-01</totfact>
</mgrwt>
</event>
<event>
12    2  0.3561489E-008  0.1791151E+04  0.7818608E-02  0.8711019E-01
          2   -1    0    0  501    0  0.00000000000E+00  0.00000000000E+00  0.15602615806E+04  0.15602615806E+04  0.00000000000E+00 0. -1.
         -2   -1    0    0    0  501 -0.00000000000E+00 -0.00000000000E+00 -0.51405199814E+03  0.51405199814E+03  0.00000000000E+00 0.  1.
         23    2    1    2    0    0 -0.60924285101E+02  0.48685203094E+03  0.92303906698E+03  0.10492287736E+04  0.90239856599E+02 0.  0.
        254    2    1    2    0    0  0.60924285101E+02 -0.48685203094E+03  0.12317051545E+03  0.10250848051E+04  0.89156671829E+03 0.  0.
         23    2    4    4    0    0 -0.39619332595E+02 -0.20624784977E+03  0.49148022626E+03  0.54266150769E+03  0.93919284874E+02 0.  0.
         23    2    4    4    0    0  0.10054361770E+03 -0.28060418117E+03 -0.36830971081E+03  0.48242329738E+03  0.90732955549E+02 0.  0.
          1    1    3    3  502    0 -0.36941103984E+02  0.42368711149E+03  0.73183624291E+03  0.84643942491E+03  0.00000000000E+00 0. -1.
         -1    1    3    3    0  502 -0.23983181117E+02  0.63164919444E+02  0.19120282407E+03  0.20278934873E+03  0.00000000000E+00 0.  1.
         11    1    5    5    0    0  0.11672200888E+01  0.94121817784E+01  0.33298374865E+02  0.34622728622E+02  0.00000000000E+00 0. -1.
        -11    1    5    5    0    0 -0.40786552684E+02 -0.21566003154E+03  0.45818185140E+03  0.50803877907E+03  0.00000000000E+00 0.  1.
          1    1    6    6  503    0  0.32125460974E+02 -0.88191530020E+02 -0.56072914815E+02  0.10933418032E+03  0.00000000000E+00 0. -1.
         -1    1    6    6    0  503  0.68418156722E+02 -0.19241265115E+03 -0.31223679600E+03  0.37308911706E+03  0.00000000000E+00 0.  1.
<mgrwt>
<rscale>  0 0.17911511E+04</rscale>
<asrwt>0</asrwt>
<pdfrwt beam="1">  1        2 0.24004024E+00 0.17911511E+04</pdfrwt>
<pdfrwt beam="2">  1       -2 0.79084923E-01 0.17911511E+04</pdfrwt>
<totfact> 0.15731322E+01</totfact>
</mgrwt>
</event>
<event>
12    2  0.3561489E-008  0.1325272E+04  0.7818608E-02  0.9009761E-01
          2   -1    0    0  501    0  0.00000000000E+00  0.00000000000E+00  0.11780984015E+03  0.11780984015E+03  0.00000000000E+00 0. -1.
         -2   -1    0    0    0  501 -0.00000000000E+00 -0.00000000000E+00 -0.37270761101E+04  0.37270761101E+04  0.00000000000E+00 0.  1.
         23    2    1    2    0    0 -0.19338786916E+03  0.29148568581E+03 -0.96225956830E+03  0.10278580754E+04  0.90476369471E+02 0.  0.
        254    2    1    2    0    0  0.19338786916E+03 -0.29148568581E+03 -0.26470067016E+04  0.28170278748E+04  0.89813072326E+03 0.  0.
         23    2    4    4    0    0  0.15090652305E+03  0.10803722351E+03 -0.86875289557E+02  0.22398234337E+03  0.90420981199E+02 0.  0.
         23    2    4    4    0    0  0.42481346107E+02 -0.39952290932E+03 -0.25601314121E+04  0.25930455315E+04  0.90493432167E+02 0.  0.
          1    1    3    3  502    0 -0.89229301642E+02  0.10494245536E+03 -0.49972416474E+03  0.51836186977E+03  0.00000000000E+00 0. -1.
         -1    1    3    3    0  502 -0.10415856752E+03  0.18654323045E+03 -0.46253540356E+03  0.50949620564E+03  0.00000000000E+00 0.  1.
         11    1    5    5    0    0  0.24337784641E+02  0.13444895208E+02 -0.56651784592E+02  0.63107191871E+02  0.00000000000E+00 0. -1.
        -11    1    5    5    0    0  0.12656873841E+03  0.94592328297E+02 -0.30223504965E+02  0.16087515150E+03  0.00000000000E+00 0.  1.
          3    1    6    6  503    0  0.30669163337E+02 -0.51490276815E+02 -0.51538833650E+03  0.51886123731E+03  0.00000000000E+00 0. -1.
         -3    1    6    6    0  503  0.11812182770E+02 -0.34803263250E+03 -0.20447430756E+04  0.20741842941E+04  0.00000000000E+00 0.  1.
<mgrwt>
<rscale>  0 0.13252717E+04</rscale>
<asrwt>0</asrwt>
<pdfrwt beam="1">  1        2 0.18124593E-01 0.13252717E+04</pdfrwt>
<pdfrwt beam="2">  1       -2 0.57339626E+00 0.13252717E+04</pdfrwt>
<totfact> 0.20339710E-01</totfact>
</mgrwt>
</event>
<event>
12    2  0.3561489E-008  0.2081724E+04  0.7818608E-02  0.8569337E-01
         -1   -1    0    0    0  501 -0.00000000000E+00  0.00000000000E+00  0.14072349757E+04  0.14072349757E+04  0.00000000000E+00 0.  1.
          1   -1    0    0  501    0  0.00000000000E+00 -0.00000000000E+00 -0.76987419796E+03  0.76987419796E+03  0.00000000000E+00 0. -1.
         23    2    1    2    0    0  0.40452775312E+03 -0.25297881473E+03  0.98206124517E+03  0.10954199030E+04  0.88653769629E+02 0.  0.
        254    2    1    2    0    0 -0.40452775312E+03  0.25297881473E+03 -0.34470046739E+03  0.10816892707E+04  0.90751985233E+03 0.  0.
         23    2    4    4    0    0 -0.58741043782E+03 -0.36838633101E+02 -0.11549938098E+02  0.59600847113E+03  0.93191143537E+02 0.  0.
         23    2    4    4    0    0  0.18288268470E+03  0.28981744783E+03 -0.33315052929E+03  0.48568079957E+03  0.86350069344E+02 0.  0.
          4    1    3    3  502    0  0.64262497475E+02 -0.56519813298E+02  0.11373472525E+03  0.14233673316E+03  0.00000000000E+00 0. -1.
         -4    1    3    3    0  502  0.34026525565E+03 -0.19645900143E+03  0.86832651992E+03  0.95308316985E+03  0.00000000000E+00 0.  1.
         11    1    5    5    0    0 -0.27931398083E+02 -0.22933720424E+02  0.19632493068E+01  0.36193547480E+02  0.00000000000E+00 0. -1.
        -11    1    5    5    0    0 -0.55947903974E+03 -0.13904912677E+02 -0.13513187405E+02  0.55981492365E+03  0.00000000000E+00 0.  1.
          4    1    6    6  503    0  0.32231745197E+02  0.83364169418E+02 -0.43519218206E+02  0.99410223289E+02  0.00000000000E+00 0. -1.
         -4    1    6    6    0  503  0.15065093950E+03  0.20645327841E+03 -0.28963131109E+03  0.38627057628E+03  0.00000000000E+00 0.  1.
<mgrwt>
<rscale>  0 0.20817242E+04</rscale>
<asrwt>0</asrwt>
<pdfrwt beam="1">  1        1 0.11844218E+00 0.20817242E+04</pdfrwt>
<pdfrwt beam="2">  1       -1 0.21649769E+00 0.20817242E+04</pdfrwt>
<totfact> 0.25152347E+00</totfact>
</mgrwt>
</event>
<event>
12    2  0.3561489E-008  0.2344739E+04  0.7818608E-02  0.8460487E-01
         -2   -1    0    0    0  501 -0.00000000000E+00  0.00000000000E+00  0.11583705909E+04  0.11583705909E+04  0.00000000000E+00 0.  1.
          2   -1    0    0  501    0  0.00000000000E+00 -0.00000000000E+00 -0.11865380626E+04  0.11865380626E+04  0.00000000000E+00 0. -1.
         23    2    1    2    0    0  0.87974228967E+03  0.43643192514E+03 -0.10493081327E+03  0.99160591691E+03  0.88614318028E+02 0.  0.
        254    2    1    2    0    0 -0.87974228967E+03 -0.43643192514E+03  0.76763341614E+02  0.13533027366E+04  0.92796355784E+03 0.  0.
         23    2    4    4    0    0 -0.36422683726E+03 -0.22018409408E+03 -0.41599878747E+03  0.60229391591E+03  0.92524297861E+02 0.  0.
         23    2    4    4    0    0 -0.51551545241E+03 -0.21624783105E+03  0.49276212909E+03  0.75100882066E+03  0.93168807759E+02 0.  0.
          4    1    3    3  502    0  0.81820896733E+03  0.39535737038E+03 -0.11841722052E+03  0.91640384255E+03  0.00000000000E+00 0. -1.
         -4    1    3    3    0  502  0.61533322340E+02  0.41074554754E+02  0.13486407246E+02  0.75202074352E+02  0.00000000000E+00 0.  1.
         11    1    5    5    0    0 -0.31523049693E+02 -0.10522778706E+02 -0.74035778069E+02  0.81152498224E+02  0.00000000000E+00 0. -1.
        -11    1    5    5    0    0 -0.33270378757E+03 -0.20966131538E+03 -0.34196300941E+03  0.52114141769E+03  0.00000000000E+00 0.  1.
          1    1    6    6  503    0 -0.33805615903E+03 -0.17348270824E+03  0.28862484292E+03  0.47716089180E+03  0.00000000000E+00 0. -1.
         -1    1    6    6    0  503 -0.17745929338E+03 -0.42765122814E+02  0.20413728616E+03  0.27384792886E+03  0.00000000000E+00 0.  1.
<mgrwt>
<rscale>  0 0.23447395E+04</rscale>
<asrwt>0</asrwt>
<pdfrwt beam="1">  1        2 0.18254432E+00 0.23447395E+04</pdfrwt>
<pdfrwt beam="2">  1       -2 0.17821086E+00 0.23447395E+04</pdfrwt>
<totfact> 0.32521973E+00</totfact>
</mgrwt>
</event>
<event>
12    2  0.3561489E-008  0.1202450E+04  0.7818608E-02  0.9110715E-01
          2   -1    0    0  501    0  0.00000000000E+00  0.00000000000E+00  0.15226047081E+04  0.15226047081E+04  0.00000000000E+00 0. -1.
         -2   -1    0    0    0  501 -0.00000000000E+00 -0.00000000000E+00 -0.23740348775E+03  0.23740348775E+03  0.00000000000E+00 0.  1.
         23    2    1    2    0    0  0.26630857342E+02  0.28524235162E+03  0.40242083025E+03  0.50237498164E+03  0.91464177840E+02 0.  0.
        254    2    1    2    0    0 -0.26630857342E+02 -0.28524235162E+03  0.88278039010E+03  0.12576332142E+04  0.84868585628E+03 0.  0.
         23    2    4    4    0    0  0.14280431004E+03 -0.28744244283E+03  0.98534622969E+03  0.10403006019E+04  0.91114878768E+02 0.  0.
         23    2    4    4    0    0 -0.16943516738E+03  0.22000912102E+01 -0.10256583959E+03  0.21733261228E+03  0.89446053928E+02 0.  0.
          3    1    3    3  502    0 -0.33542398485E+02  0.79199668774E+02  0.12005968055E+03  0.14768888558E+03  0.00000000000E+00 0. -1.
         -3    1    3    3    0  502  0.60173255827E+02  0.20604268285E+03  0.28236114970E+03  0.35468609605E+03  0.00000000000E+00 0.  1.
         11    1    5    5    0    0  0.94920932815E+02 -0.93668612235E+02  0.42771325953E+03  0.44802056290E+03  0.00000000000E+00 0. -1.
        -11    1    5    5    0    0  0.47883377227E+02 -0.19377383060E+03  0.55763297016E+03  0.59228003904E+03  0.00000000000E+00 0.  1.
          3    1    6    6  503    0 -0.13162314291E+03 -0.37421540466E+02 -0.73222023081E+02  0.15519822198E+03  0.00000000000E+00 0. -1.
         -3    1    6    6    0  503 -0.37812024472E+02  0.39621631676E+02 -0.29343816506E+02  0.62134390304E+02  0.00000000000E+00 0.  1.
<mgrwt>
<rscale>  0 0.12024503E+04</rscale>
<asrwt>0</asrwt>
<pdfrwt beam="1">  1        2 0.23424687E+00 0.12024503E+04</pdfrwt>
<pdfrwt beam="2">  1       -2 0.36523614E-01 0.12024503E+04</pdfrwt>
<totfact> 0.85788164E+01</totfact>
</mgrwt>
</event>
<event>
12    2  0.3561489E-008  0.1542387E+04  0.7818608E-02  0.8856745E-01
          1   -1    0    0  501    0  0.00000000000E+00  0.00000000000E+00  0.11162327100E+04  0.11162327100E+04  0.00000000000E+00 0. -1.
         -1   -1    0    0    0  501 -0.00000000000E+00 -0.00000000000E+00 -0.53280947069E+03  0.53280947069E+03  0.00000000000E+00 0.  1.
         23    2    1    2    0    0 -0.34804802942E+03  0.34877042991E+03  0.32003086234E+03  0.59441866065E+03  0.90197271150E+02 0.  0.
        254    2    1    2    0    0  0.34804802942E+03 -0.34877042991E+03  0.26339237699E+03  0.10546235201E+04  0.89447022379E+03 0.  0.
         23    2    4    4    0    0  0.38269589313E+03 -0.36759162721E+03  0.53800604252E+03  0.76239268233E+03  0.10105616886E+03 0.  0.
         23    2    4    4    0    0 -0.34647863714E+02  0.18821197301E+02 -0.27461366552E+03  0.29223083773E+03  0.91823119644E+02 0.  0.
          4    1    3    3  502    0 -0.20793206917E+03  0.22234686596E+03  0.14567235782E+03  0.33748231068E+03  0.00000000000E+00 0. -1.
         -4    1    3    3    0  502 -0.14011596025E+03  0.12642356395E+03  0.17435850452E+03  0.25693634997E+03  0.00000000000E+00 0.  1.
         11    1    5    5    0    0  0.19492373797E+03 -0.11818716815E+03  0.23137425153E+03  0.32480380942E+03  0.00000000000E+00 0. -1.
        -11    1    5    5    0    0  0.18777215516E+03 -0.24940445905E+03  0.30663179099E+03  0.43758887291E+03  0.00000000000E+00 0.  1.
          1    1    6    6  503    0 -0.56521399590E+02  0.47725214616E+01 -0.94242410461E+02  0.10999580675E+03  0.00000000000E+00 0. -1.
         -1    1    6    6    0  503  0.21873535876E+02  0.14048675839E+02 -0.18037125506E+03  0.18223503098E+03  0.00000000000E+00 0.  1.
<mgrwt>
<rscale>  0 0.15423869E+04</rscale>
<asrwt>0</asrwt>
<pdfrwt beam="1">  1        1 0.17172811E+00 0.15423869E+04</pdfrwt>
<pdfrwt beam="2">  1       -1 0.81970688E-01 0.15423869E+04</pdfrwt>
<totfact> 0.17599505E+01</totfact>
</mgrwt>
</event>
<event>
12    2  0.3561489E-008  0.2196700E+04  0.7818608E-02  0.8519803E-01
         -1   -1    0    0    0  501 -0.00000000000E+00  0.00000000000E+00  0.10026799190E+04  0.10026799190E+04  0.00000000000E+00 0.  1.
          1   -1    0    0  501    0  0.00000000000E+00 -0.00000000000E+00 -0.12031487447E+04  0.12031487447E+04  0.00000000000E+00 0. -1.
         23    2    1    2    0    0  0.82817981957E+03  0.14425365083E+03 -0.44335620677E+03  0.95486408250E+03  0.92248363888E+02 0.  0.
        254    2    1    2    0    0 -0.82817981957E+03 -0.14425365083E+03  0.24288738108E+03  0.12509645813E+04  0.89399506399E+03 0.  0.
         23    2    4    4    0    0 -0.54513208894E+03  0.30706927154E+03  0.31069806167E+03  0.70447681259E+03  0.91070094046E+02 0.  0.
         23    2    4    4    0    0 -0.28304773062E+03 -0.45132292237E+03 -0.67810680587E+02  0.54648776870E+03  0.10120372955E+03 0.  0.
          1    1    3    3  502    0  0.14630947647E+03  0.19643341896E+02 -0.40253246114E+02  0.15301191982E+03  0.00000000000E+00 0. -1.
         -1    1    3    3    0  502  0.68187034310E+03  0.12461030893E+03 -0.40310296066E+03  0.80185216267E+03  0.00000000000E+00 0.  1.
         11    1    5    5    0    0 -0.17228136512E+03  0.84262208632E+02  0.14150096884E+03  0.23833487523E+03  0.00000000000E+00 0.  1.
        -11    1    5    5    0    0 -0.37285072383E+03  0.22280706290E+03  0.16919709283E+03  0.46614193736E+03  0.00000000000E+00 0. -1.
          4    1    6    6  503    0 -0.25192401575E+03 -0.40019988364E+03 -0.26245293820E+02  0.47361848784E+03  0.00000000000E+00 0. -1.
         -4    1    6    6    0  503 -0.31123714876E+02 -0.51123038725E+02 -0.41565386767E+02  0.72869280861E+02  0.00000000000E+00 0.  1.
<mgrwt>
<rscale>  0 0.21967003E+04</rscale>
<asrwt>0</asrwt>
<pdfrwt beam="1">  1        1 0.18509981E+00 0.21967003E+04</pdfrwt>
<pdfrwt beam="2">  1       -1 0.15425845E+00 0.21967003E+04</pdfrwt>
<totfact> 0.31346182E+00</totfact>
</mgrwt>
</event>
<event>
12    2  0.3561489E-008  0.1005976E+04  0.7818608E-02  0.9302015E-01
          1   -1    0    0  501    0  0.00000000000E+00  0.00000000000E+00  0.58566269533E+03  0.58566269533E+03  0.00000000000E+00 0. -1.
         -1   -1    0    0    0  501 -0.00000000000E+00 -0.00000000000E+00 -0.43198368352E+03  0.43198368352E+03  0.00000000000E+00 0.  1.
         23    2    1    2    0    0 -0.97110446799E+01 -0.63720860973E+02  0.19766252733E+02  0.11364070156E+03  0.91481428670E+02 0.  0.
        254    2    1    2    0    0  0.97110446799E+01  0.63720860973E+02  0.13391275907E+03  0.90400567729E+03  0.89170566053E+03 0.  0.
         23    2    4    4    0    0  0.26376687827E+03 -0.17316179322E+03 -0.22375537678E+03  0.39710032611E+03  0.89801044843E+02 0.  0.
         23    2    4    4    0    0 -0.25405583359E+03  0.23688265419E+03  0.35766813586E+03  0.50690535118E+03  0.91481042863E+02 0.  0.
          1    1    3    3  502    0 -0.66287499638E+01 -0.12588436303E+02  0.51468762964E+02  0.53398900885E+02  0.00000000000E+00 0. -1.
         -1    1    3    3    0  502 -0.30822947160E+01 -0.51132424670E+02 -0.31702510232E+02  0.60241800673E+02  0.00000000000E+00 0.  1.
         11    1    5    5    0    0  0.35557964713E+02 -0.55390904835E+02 -0.18572963153E+02  0.68392076685E+02  0.00000000000E+00 0.  1.
        -11    1    5    5    0    0  0.22820891356E+03 -0.11777088839E+03 -0.20518241363E+03  0.32870824943E+03  0.00000000000E+00 0. -1.
          3    1    6    6  503    0 -0.12011937214E+03  0.54620948728E+02  0.15088658316E+03  0.20044668264E+03  0.00000000000E+00 0. -1.
         -3    1    6    6    0  503 -0.13393646145E+03  0.18226170547E+03  0.20678155270E+03  0.30645866854E+03  0.00000000000E+00 0.  1.
<mgrwt>
<rscale>  0 0.10059756E+04</rscale>
<asrwt>0</asrwt>
<pdfrwt beam="1">  1        1 0.90101953E-01 0.10059756E+04</pdfrwt>
<pdfrwt beam="2">  1       -1 0.66459028E-01 0.10059756E+04</pdfrwt>
<totfact> 0.81578529E+01</totfact>
</mgrwt>
</event>
<event>
12    2  0.3561489E-008  0.1517524E+04  0.7818608E-02  0.8872883E-01
          2   -1    0    0  501    0  0.00000000000E+00  0.00000000000E+00  0.65164610735E+03  0.65164610735E+03  0.00000000000E+00 0. -1.
         -2   -1    0    0    0  501 -0.00000000000E+00 -0.00000000000E+00 -0.88348545290E+03  0.88348545290E+03  0.00000000000E+00 0.  1.
         23    2    1    2    0    0  0.12232172653E+02 -0.11559807286E+03 -0.57055061118E+03  0.58961965795E+03  0.92794399779E+02 0.  0.
        254    2    1    2    0    0 -0.12232172653E+02  0.11559807286E+03  0.33871126563E+03  0.94551190230E+03  0.87507422281E+03 0.  0.
         23    2    4    4    0    0  0.37372592077E+03  0.90061902777E+02  0.37737226470E+03  0.54625541206E+03  0.90570077011E+02 0.  0.
         23    2    4    4    0    0 -0.38595809343E+03  0.25536170079E+02 -0.38660999071E+02  0.39925649024E+03  0.91078681844E+02 0.  0.
          2    1    3    3  502    0  0.23177998209E+02  0.58763939607E+01 -0.57556056289E+02  0.62325365803E+02  0.00000000000E+00 0. -1.
         -2    1    3    3    0  502 -0.10945825555E+02 -0.12147446682E+03 -0.51299455489E+03  0.52729429215E+03  0.00000000000E+00 0.  1.
         11    1    5    5    0    0  0.85828355072E+01 -0.12873676522E+02  0.17294207343E+02  0.23205305862E+02  0.00000000000E+00 0. -1.
        -11    1    5    5    0    0  0.36514308527E+03  0.10293557930E+03  0.36007805736E+03  0.52305010620E+03  0.00000000000E+00 0.  1.
          2    1    6    6  503    0 -0.17768356957E+03  0.55354657057E+02 -0.49311167281E+01  0.18617170801E+03  0.00000000000E+00 0. -1.
         -2    1    6    6    0  503 -0.20827452386E+03 -0.29818486978E+02 -0.33729882343E+02  0.21308478223E+03  0.00000000000E+00 0.  1.
<mgrwt>
<rscale>  0 0.15175241E+04</rscale>
<asrwt>0</asrwt>
<pdfrwt beam="1">  1        2 0.10025325E+00 0.15175241E+04</pdfrwt>
<pdfrwt beam="2">  1       -2 0.13592084E+00 0.15175241E+04</pdfrwt>
<totfact> 0.16760642E+01</totfact>
</mgrwt>
</event>
<event>
12    2  0.3561489E-008  0.4335748E+04  0.7818608E-02  0.7940041E-01
         -2   -1    0    0    0  501 -0.00000000000E+00  0.00000000000E+00  0.33739140274E+04  0.33739140274E+04  0.00000000000E+00 0.  1.
          2   -1    0    0  501    0  0.00000000000E+00 -0.00000000000E+00 -0.13929453998E+04  0.13929453998E+04  0.00000000000E+00 0. -1.
         23    2    1    2    0    0 -0.12580482427E+03  0.15272707990E+04  0.24851326995E+04  0.29211959533E+04  0.95489875473E+02 0.  0.
        254    2    1    2    0    0  0.12580482427E+03 -0.15272707990E+04 -0.50416407194E+03  0.18456634739E+04  0.89660989288E+03 0.  0.
         23    2    4    4    0    0 -0.38043437930E+03 -0.68416108153E+03 -0.22500623967E+03  0.81966399300E+03  0.91730862314E+02 0.  0.
         23    2    4    4    0    0  0.50623920357E+03 -0.84310971751E+03 -0.27915783227E+03  0.10259994809E+04  0.87371119250E+02 0.  0.
          4    1    3    3  502    0 -0.64297140109E+02  0.52282916534E+03  0.93138730619E+03  0.10700312016E+04  0.00000000000E+00 0. -1.
         -4    1    3    3    0  502 -0.61507684158E+02  0.10044416337E+04  0.15537453933E+04  0.18511647517E+04  0.00000000000E+00 0.  1.
         11    1    5    5    0    0 -0.98069694268E+02 -0.26422668354E+03 -0.91322516412E+02  0.29626543375E+03  0.00000000000E+00 0. -1.
        -11    1    5    5    0    0 -0.28236468503E+03 -0.41993439798E+03 -0.13368372326E+03  0.52339855925E+03  0.00000000000E+00 0.  1.
          1    1    6    6  503    0  0.14286705392E+03 -0.16744523548E+03 -0.61143301019E+02  0.22844562863E+03  0.00000000000E+00 0. -1.
         -1    1    6    6    0  503  0.36337214964E+03 -0.67566448203E+03 -0.21801453125E+03  0.79755385226E+03  0.00000000000E+00 0.  1.
<mgrwt>
<rscale>  0 0.43357482E+04</rscale>
<asrwt>0</asrwt>
<pdfrwt beam="1">  1        2 0.21429929E+00 0.43357482E+04</pdfrwt>
<pdfrwt beam="2">  1       -2 0.51906369E+00 0.43357482E+04</pdfrwt>
<totfact> 0.14241047E-02</totfact>
</mgrwt>
</event>
<event>
12    2  0.3561489E-008  0.1173533E+04  0.7818608E-02  0.9136343E-01
          2   -1    0    0  501    0  0.00000000000E+00  0.00000000000E+00  0.11695289158E+04  0.11695289158E+04  0.00000000000E+00 0. -1.
         -2   -1    0    0    0  501 -0.00000000000E+00 -0.00000000000E+00 -0.29438792551E+03  0.29438792551E+03  0.00000000000E+00 0.  1.
         23    2    1    2    0    0 -0.18422223069E+03  0.78607221452E+02  0.30657759932E+03  0.37713504617E+03  0.90133751161E+02 0.  0.
        254    2    1    2    0    0  0.18422223069E+03 -0.78607221452E+02  0.56856339098E+03  0.10867817951E+04  0.90427507714E+03 0.  0.
         23    2    4    4    0    0 -0.20674362701E+02  0.38284321964E+03  0.35730945245E+03  0.53175354732E+03  0.89974608516E+02 0.  0.
         23    2    4    4    0    0  0.20489659339E+03 -0.46145044109E+03  0.21125393853E+03  0.55502824783E+03  0.92244272309E+02 0.  0.
          3    1    3    3  502    0 -0.17129734124E+03  0.62887149827E+02  0.20896617430E+03  0.27742464694E+03  0.00000000000E+00 0. -1.
         -3    1    3    3    0  502 -0.12924889448E+02  0.15720071625E+02  0.97611425021E+02  0.99710399226E+02  0.00000000000E+00 0.  1.
         11    1    5    5    0    0 -0.33163055905E+02  0.55189236882E+02  0.42134781856E+02  0.76947904368E+02  0.00000000000E+00 0.  1.
        -11    1    5    5    0    0  0.12488693203E+02  0.32765398276E+03  0.31517467059E+03  0.45480564295E+03  0.00000000000E+00 0. -1.
          2    1    6    6  503    0  0.95154498118E+02 -0.29762402629E+03  0.97206840736E+02  0.32723632045E+03  0.00000000000E+00 0. -1.
         -2    1    6    6    0  503  0.10974209527E+03 -0.16382641480E+03  0.11404709779E+03  0.22779192737E+03  0.00000000000E+00 0.  1.
<mgrwt>
<rscale>  0 0.11735335E+04</rscale>
<asrwt>0</asrwt>
<pdfrwt beam="1">  1        2 0.17992752E+00 0.11735335E+04</pdfrwt>
<pdfrwt beam="2">  1       -2 0.45290451E-01 0.11735335E+04</pdfrwt>
<totfact> 0.90239390E+01</totfact>
</mgrwt>
</event>
<event>
12    2  0.3561489E-008  0.1551013E+04  0.7818608E-02  0.8851221E-01
          2   -1    0    0  501    0  0.00000000000E+00  0.00000000000E+00  0.81481897790E+03  0.81481897790E+03  0.00000000000E+00 0. -1.
         -2   -1    0    0    0  501 -0.00000000000E+00 -0.00000000000E+00 -0.73809109593E+03  0.73809109593E+03  0.00000000000E+00 0.  1.
         23    2    1    2    0    0  0.10952009869E+03 -0.51830201445E+02 -0.51514100499E+03  0.53703802090E+03  0.91425155561E+02 0.  0.
        254    2    1    2    0    0 -0.10952009869E+03  0.51830201445E+02  0.59186888696E+03  0.10158720529E+04  0.81670449172E+03 0.  0.
         23    2    4    4    0    0 -0.13741829756E+03 -0.23197552860E+03  0.65277137742E+03  0.71194691307E+03  0.89785864606E+02 0.  0.
         23    2    4    4    0    0  0.27898198873E+02  0.28380573004E+03 -0.60902490459E+02  0.30392513987E+03  0.85658481148E+02 0.  0.
          4    1    3    3  502    0  0.70054519355E+01  0.21584580507E+02 -0.46670293623E+02  0.51894959094E+02  0.00000000000E+00 0. -1.
         -4    1    3    3    0  502  0.10251464675E+03 -0.73414781952E+02 -0.46847071137E+03  0.48514306180E+03  0.00000000000E+00 0.  1.
         11    1    5    5    0    0 -0.34045739173E+02 -0.13484418647E+03  0.26950015779E+03  0.30326952045E+03  0.00000000000E+00 0.  1.
        -11    1    5    5    0    0 -0.10337255839E+03 -0.97131342129E+02  0.38327121962E+03  0.40867739262E+03  0.00000000000E+00 0. -1.
          1    1    6    6  503    0  0.21858172403E+02  0.18795167755E+03 -0.80956720763E+02  0.20580962910E+03  0.00000000000E+00 0. -1.
         -1    1    6    6    0  503  0.60400264699E+01  0.95854052498E+02  0.20054230304E+02  0.98115510767E+02  0.00000000000E+00 0.  1.
<mgrwt>
<rscale>  0 0.15510134E+04</rscale>
<asrwt>0</asrwt>
<pdfrwt beam="1">  1        2 0.12535676E+00 0.15510134E+04</pdfrwt>
<pdfrwt beam="2">  1       -2 0.11355248E+00 0.15510134E+04</pdfrwt>
<totfact> 0.19675040E+01</totfact>
</mgrwt>
</event>
<event>
12    2  0.3561489E-008  0.1448135E+04  0.7818608E-02  0.8919695E-01
          2   -1    0    0  501    0  0.00000000000E+00  0.00000000000E+00  0.17191839328E+04  0.17191839328E+04  0.00000000000E+00 0. -1.
         -2   -1    0    0    0  501 -0.00000000000E+00 -0.00000000000E+00 -0.30495482342E+03  0.30495482342E+03  0.00000000000E+00 0.  1.
         23    2    1    2    0    0 -0.19132940715E+03 -0.15820065940E+03 -0.71219099067E+02  0.27422951123E+03  0.92169811109E+02 0.  0.
        254    2    1    2    0    0  0.19132940715E+03  0.15820065940E+03  0.14854482084E+04  0.17499092450E+04  0.89106206016E+03 0.  0.
         23    2    4    4    0    0  0.21203462269E+03  0.11663453875E+03  0.15846406455E+04  0.16055062320E+04  0.89453835151E+02 0.  0.
         23    2    4    4    0    0 -0.20705215541E+02  0.41566120655E+02 -0.99192437085E+02  0.14440301301E+03  0.94109735178E+02 0.  0.
          1    1    3    3  502    0 -0.25790117831E+02 -0.65206515309E+02 -0.43044421746E+02  0.82279049946E+02  0.00000000000E+00 0. -1.
         -1    1    3    3    0  502 -0.16553928932E+03 -0.92994144094E+02 -0.28174677321E+02  0.19195046128E+03  0.00000000000E+00 0.  1.
         11    1    5    5    0    0  0.12602670048E+03  0.90719941791E+02  0.74092342693E+03  0.75702071414E+03  0.00000000000E+00 0. -1.
        -11    1    5    5    0    0  0.86007922214E+02  0.25914596957E+02  0.84371721857E+03  0.84848551781E+03  0.00000000000E+00 0.  1.
          2    1    6    6  503    0  0.22530219976E+02  0.20688864093E+02  0.37475131499E+01  0.30816939569E+02  0.00000000000E+00 0.  1.
         -2    1    6    6    0  503 -0.43235435517E+02  0.20877256563E+02 -0.10293995023E+03  0.11358607344E+03  0.00000000000E+00 0. -1.
<mgrwt>
<rscale>  0 0.14481346E+04</rscale>
<asrwt>0</asrwt>
<pdfrwt beam="1">  1        2 0.26448983E+00 0.14481346E+04</pdfrwt>
<pdfrwt beam="2">  1       -2 0.46916128E-01 0.14481346E+04</pdfrwt>
<totfact> 0.39964136E+01</totfact>
</mgrwt>
</event>
<event>
12    2  0.3561489E-008  0.1543704E+04  0.7818608E-02  0.8855899E-01
          2   -1    0    0  501    0  0.00000000000E+00  0.00000000000E+00  0.30998560581E+04  0.30998560581E+04  0.00000000000E+00 0. -1.
         -2   -1    0    0    0  501 -0.00000000000E+00 -0.00000000000E+00 -0.19218811591E+03  0.19218811591E+03  0.00000000000E+00 0.  1.
         23    2    1    2    0    0  0.12962758324E+03  0.17810883221E+03 -0.18202837722E+01  0.23852370031E+03  0.91455867673E+02 0.  0.
        254    2    1    2    0    0 -0.12962758324E+03 -0.17810883221E+03  0.29094882260E+04  0.30535204737E+04  0.90018858015E+03 0.  0.
         23    2    4    4    0    0 -0.34984563703E+03  0.21138528441E+03  0.19035295012E+04  0.19488069415E+04  0.85721790806E+02 0.  0.
         23    2    4    4    0    0  0.22021805379E+03 -0.38949411662E+03  0.10059587248E+04  0.11047135322E+04  0.90759980268E+02 0.  0.
          1    1    3    3  502    0  0.43797896979E+02  0.30332583138E+02  0.34953249813E+02  0.63718529896E+02  0.00000000000E+00 0. -1.
         -1    1    3    3    0  502  0.85829686257E+02  0.14777624907E+03 -0.36773533585E+02  0.17480517042E+03  0.00000000000E+00 0.  1.
         11    1    5    5    0    0 -0.11956384913E+03  0.43527888708E+02  0.74206893820E+03  0.75289873167E+03  0.00000000000E+00 0.  1.
        -11    1    5    5    0    0 -0.23028178790E+03  0.16785739570E+03  0.11614605630E+04  0.11959082099E+04  0.00000000000E+00 0. -1.
          2    1    6    6  503    0  0.75487971127E+02 -0.20285923239E+03  0.55364124700E+03  0.59444842697E+03  0.00000000000E+00 0. -1.
         -2    1    6    6    0  503  0.14473008267E+03 -0.18663488422E+03  0.45231747783E+03  0.51026510520E+03  0.00000000000E+00 0.  1.
<mgrwt>
<rscale>  0 0.15437040E+04</rscale>
<asrwt>0</asrwt>
<pdfrwt beam="1">  1        2 0.47690089E+00 0.15437040E+04</pdfrwt>
<pdfrwt beam="2">  1       -2 0.29567405E-01 0.15437040E+04</pdfrwt>
<totfact> 0.15391859E+01</totfact>
</mgrwt>
</event>
<event>
12    2  0.3561489E-008  0.2039364E+04  0.7818608E-02  0.8588435E-01
          2   -1    0    0  501    0  0.00000000000E+00  0.00000000000E+00  0.74575554140E+03  0.74575554140E+03  0.00000000000E+00 0. -1.
         -2   -1    0    0    0  501 -0.00000000000E+00 -0.00000000000E+00 -0.13942255028E+04  0.13942255028E+04  0.00000000000E+00 0.  1.
         23    2    1    2    0    0 -0.54610578179E+03  0.14916148406E+03 -0.87114189153E+03  0.10427969736E+04  0.89758897280E+02 0.  0.
        254    2    1    2    0    0  0.54610578179E+03 -0.14916148406E+03  0.22267193010E+03  0.10971840707E+04  0.91309880256E+03 0.  0.
         23    2    4    4    0    0  0.26791395260E+03 -0.49671939653E+03 -0.37085968868E+02  0.57346229843E+03  0.94739610265E+02 0.  0.
         23    2    4    4    0    0  0.27819182919E+03  0.34755791246E+03  0.25975789897E+03  0.52372177224E+03  0.92860822169E+02 0.  0.
          1    1    3    3  502    0 -0.14786284883E+02  0.21499847710E+02 -0.30209983138E+02  0.39918927258E+02  0.00000000000E+00 0. -1.
         -1    1    3    3    0  502 -0.53131949691E+03  0.12766163635E+03 -0.84093190839E+03  0.10028780463E+04  0.00000000000E+00 0.  1.
         11    1    5    5    0    0  0.33337895163E+02 -0.83445435534E+02  0.27299240473E+02  0.93913814190E+02  0.00000000000E+00 0. -1.
        -11    1    5    5    0    0  0.23457605744E+03 -0.41327396099E+03 -0.64385209340E+02  0.47954848424E+03  0.00000000000E+00 0.  1.
          2    1    6    6  503    0  0.19599599877E+03  0.27262560921E+03  0.23483196260E+03  0.40973797113E+03  0.00000000000E+00 0.  1.
         -2    1    6    6    0  503  0.82195830423E+02  0.74932303260E+02  0.24925936365E+02  0.11398380111E+03  0.00000000000E+00 0. -1.
<mgrwt>
<rscale>  0 0.20393640E+04</rscale>
<asrwt>0</asrwt>
<pdfrwt beam="1">  1        2 0.11473162E+00 0.20393640E+04</pdfrwt>
<pdfrwt beam="2">  1       -2 0.21449623E+00 0.20393640E+04</pdfrwt>
<totfact> 0.37465170E+00</totfact>
</mgrwt>
</event>
<event>
12    2  0.3561489E-008  0.1394694E+04  0.7818608E-02  0.8957669E-01
          1   -1    0    0  501    0  0.00000000000E+00  0.00000000000E+00  0.13478508121E+04  0.13478508121E+04  0.00000000000E+00 0. -1.
         -1   -1    0    0    0  501 -0.00000000000E+00 -0.00000000000E+00 -0.36079106417E+03  0.36079106417E+03  0.00000000000E+00 0.  1.
         23    2    1    2    0    0 -0.61297561983E+02  0.38402081993E+03  0.36611298413E+03  0.54169601337E+03  0.90368537120E+02 0.  0.
        254    2    1    2    0    0  0.61297561983E+02 -0.38402081993E+03  0.62094676382E+03  0.11669458629E+04  0.90827219613E+03 0.  0.
         23    2    4    4    0    0  0.24300776844E+03  0.18774215304E+03  0.41857183762E+03  0.52717252817E+03  0.91698416884E+02 0.  0.
         23    2    4    4    0    0 -0.18171020646E+03 -0.57176297297E+03  0.20237492620E+03  0.63977333476E+03  0.91775883096E+02 0.  0.
          4    1    3    3  502    0 -0.56252319399E+02  0.38520853744E+03  0.34569166365E+03  0.52062718626E+03  0.00000000000E+00 0. -1.
         -4    1    3    3    0  502 -0.50452425839E+01 -0.11877175039E+01  0.20421320484E+02  0.21068827112E+02  0.00000000000E+00 0.  1.
         11    1    5    5    0    0  0.10964303696E+03  0.10643183781E+03  0.27706229200E+03  0.31640613980E+03  0.00000000000E+00 0. -1.
        -11    1    5    5    0    0  0.13336473149E+03  0.81310315227E+02  0.14150954562E+03  0.21076638837E+03  0.00000000000E+00 0.  1.
          3    1    6    6  503    0 -0.52092750968E+02 -0.23114271016E+03  0.37988140286E+02  0.23996605170E+03  0.00000000000E+00 0. -1.
         -3    1    6    6    0  503 -0.12961745549E+03 -0.34062026281E+03  0.16438678591E+03  0.39980728306E+03  0.00000000000E+00 0.  1.
<mgrwt>
<rscale>  0 0.13946936E+04</rscale>
<asrwt>0</asrwt>
<pdfrwt beam="1">  1        1 0.20736166E+00 0.13946936E+04</pdfrwt>
<pdfrwt beam="2">  1       -1 0.55506318E-01 0.13946936E+04</pdfrwt>
<totfact> 0.26770782E+01</totfact>
</mgrwt>
</event>
<event>
12    2  0.3561489E-008  0.2151830E+04  0.7818608E-02  0.8538749E-01
         -1   -1    0    0    0  501 -0.00000000000E+00  0.00000000000E+00  0.74427100856E+03  0.74427100856E+03  0.00000000000E+00 0.  1.
          1   -1    0    0  501    0  0.00000000000E+00 -0.00000000000E+00 -0.15553384127E+04  0.15553384127E+04  0.00000000000E+00 0. -1.
         23    2    1    2    0    0 -0.21393182975E+03 -0.54644171746E+03  0.37400454949E+03  0.70194865949E+03  0.92125670492E+02 0.  0.
        254    2    1    2    0    0  0.21393182975E+03  0.54644171746E+03 -0.11850719536E+04  0.15976607618E+04  0.89652607104E+03 0.  0.
         23    2    4    4    0    0  0.12228652068E+03  0.57797450906E+03 -0.12943967688E+04  0.14263001219E+04  0.99300132587E+02 0.  0.
         23    2    4    4    0    0  0.91645309073E+02 -0.31532791600E+02  0.10932481519E+03  0.17136063987E+03  0.89550957894E+02 0.  0.
          3    1    3    3  502    0 -0.83666453263E+02 -0.12953615091E+03  0.67384070413E+02  0.16828637123E+03  0.00000000000E+00 0. -1.
         -3    1    3    3    0  502 -0.13026537649E+03 -0.41690556655E+03  0.30662047907E+03  0.53366228827E+03  0.00000000000E+00 0.  1.
         11    1    5    5    0    0  0.96215664300E+02  0.34086143244E+03 -0.66932313757E+03  0.75725651709E+03  0.00000000000E+00 0.  1.
        -11    1    5    5    0    0  0.26070856380E+02  0.23711307662E+03 -0.62507363126E+03  0.66904360482E+03  0.00000000000E+00 0. -1.
          2    1    6    6  503    0  0.20423669749E+02  0.28256585494E+02  0.50359713901E+02  0.61250809742E+02  0.00000000000E+00 0. -1.
         -2    1    6    6    0  503  0.71221639325E+02 -0.59789377094E+02  0.58965101289E+02  0.11010983013E+03  0.00000000000E+00 0.  1.
<mgrwt>
<rscale>  0 0.21518302E+04</rscale>
<asrwt>0</asrwt>
<pdfrwt beam="1">  1        1 0.23928283E+00 0.21518302E+04</pdfrwt>
<pdfrwt beam="2">  1       -1 0.11450323E+00 0.21518302E+04</pdfrwt>
<totfact> 0.38032995E+00</totfact>
</mgrwt>
</event>
<event>
12    2  0.3561489E-008  0.2017494E+04  0.7818608E-02  0.8598485E-01
         -1   -1    0    0    0  501 -0.00000000000E+00  0.00000000000E+00  0.63431952928E+03  0.63431952928E+03  0.00000000000E+00 0.  1.
          1   -1    0    0  501    0  0.00000000000E+00 -0.00000000000E+00 -0.16041928734E+04  0.16041928734E+04  0.00000000000E+00 0. -1.
         23    2    1    2    0    0  0.25325975607E+02 -0.75271999356E+02 -0.12681603559E+04  0.12737871189E+04  0.89418438996E+02 0.  0.
        254    2    1    2    0    0 -0.25325975607E+02  0.75271999356E+02  0.29828701174E+03  0.96472528376E+03  0.91400900041E+03 0.  0.
         23    2    4    4    0    0  0.14847889813E+03  0.45334955764E+03  0.21330843513E+03  0.53006868006E+03  0.88884827052E+02 0.  0.
         23    2    4    4    0    0 -0.17380487374E+03 -0.37807755829E+03  0.84978576614E+02  0.43465660370E+03  0.92489082841E+02 0.  0.
          1    1    3    3  502    0  0.40472345898E+02 -0.38937290380E+02 -0.10846054952E+04  0.10860585636E+04  0.00000000000E+00 0. -1.
         -1    1    3    3    0  502 -0.15146370291E+02 -0.36334708976E+02 -0.18355486065E+03  0.18772855530E+03  0.00000000000E+00 0.  1.
         11    1    5    5    0    0  0.46489089909E+02  0.46780584605E+02  0.33358359000E+02  0.73908312738E+02  0.00000000000E+00 0. -1.
        -11    1    5    5    0    0  0.10198980822E+03  0.40656897304E+03  0.17995007613E+03  0.45616036732E+03  0.00000000000E+00 0.  1.
          1    1    6    6  503    0 -0.33074133610E+02 -0.13289683417E+03 -0.76637766702E+01  0.13716486547E+03  0.00000000000E+00 0. -1.
         -1    1    6    6    0  503 -0.14073074013E+03 -0.24518072411E+03  0.92642353284E+02  0.29749173823E+03  0.00000000000E+00 0.  1.
<mgrwt>
<rscale>  0 0.20174944E+04</rscale>
<asrwt>0</asrwt>
<pdfrwt beam="1">  1        1 0.24679890E+00 0.20174944E+04</pdfrwt>
<pdfrwt beam="2">  1       -1 0.97587621E-01 0.20174944E+04</pdfrwt>
<totfact> 0.51734817E+00</totfact>
</mgrwt>
</event>
<event>
12    2  0.3561489E-008  0.2317333E+04  0.7818608E-02  0.8471118E-01
         -1   -1    0    0    0  501 -0.00000000000E+00  0.00000000000E+00  0.69021424060E+03  0.69021424060E+03  0.00000000000E+00 0.  1.
          1   -1    0    0  501    0  0.00000000000E+00 -0.00000000000E+00 -0.19450592273E+04  0.19450592273E+04  0.00000000000E+00 0. -1.
         23    2    1    2    0    0 -0.43499570718E+03  0.61059776318E+03  0.18057761230E+03  0.77635699926E+03  0.89838870035E+02 0.  0.
        254    2    1    2    0    0  0.43499570718E+03 -0.61059776318E+03 -0.14354225990E+04  0.18589164687E+04  0.91273298727E+03 0.  0.
         23    2    4    4    0    0 -0.17106201772E+03 -0.18027277815E+03 -0.90034033179E+03  0.93859617866E+03  0.92680014580E+02 0.  0.
         23    2    4    4    0    0  0.60605772490E+03 -0.43032498502E+03 -0.53508226724E+03  0.92032029001E+03  0.90503286398E+02 0.  0.
          4    1    3    3  502    0 -0.13843876335E+03  0.19357625985E+03  0.14747299471E+02  0.23844190575E+03  0.00000000000E+00 0. -1.
         -4    1    3    3    0  502 -0.29655694384E+03  0.41702150333E+03  0.16583031283E+03  0.53791509351E+03  0.00000000000E+00 0.  1.
         11    1    5    5    0    0 -0.83674803713E+02 -0.14851639903E+03 -0.52871773698E+03  0.55551871162E+03  0.00000000000E+00 0. -1.
        -11    1    5    5    0    0 -0.87387214005E+02 -0.31756379128E+02 -0.37162259481E+03  0.38307746705E+03  0.00000000000E+00 0.  1.
          4    1    6    6  503    0  0.43815841670E+03 -0.26002782158E+03 -0.35614792063E+03  0.62164186433E+03  0.00000000000E+00 0. -1.
         -4    1    6    6    0  503  0.16789930821E+03 -0.17029716345E+03 -0.17893434661E+03  0.29867842569E+03  0.00000000000E+00 0.  1.
<mgrwt>
<rscale>  0 0.23173326E+04</rscale>
<asrwt>0</asrwt>
<pdfrwt beam="1">  1        1 0.29923988E+00 0.23173326E+04</pdfrwt>
<pdfrwt beam="2">  1       -1 0.10618681E+00 0.23173326E+04</pdfrwt>
<totfact> 0.24299755E+00</totfact>
</mgrwt>
</event>
<event>
12    2  0.3561489E-008  0.1322081E+04  0.7818608E-02  0.9012236E-01
         -1   -1    0    0    0  501 -0.00000000000E+00  0.00000000000E+00  0.10180156445E+04  0.10180156445E+04  0.00000000000E+00 0.  1.
          1   -1    0    0  501    0  0.00000000000E+00 -0.00000000000E+00 -0.42924149790E+03  0.42924149790E+03  0.00000000000E+00 0. -1.
         23    2    1    2    0    0  0.43095645147E+02  0.30068919904E+03  0.31278219985E+03  0.44659954126E+03  0.96681004656E+02 0.  0.
        254    2    1    2    0    0 -0.43095645147E+02 -0.30068919904E+03  0.27599194675E+03  0.10006576011E+04  0.91261867776E+03 0.  0.
         23    2    4    4    0    0  0.30704602341E+03  0.53540437551E+02 -0.13196515531E+03  0.35051345182E+03  0.91110036461E+02 0.  0.
         23    2    4    4    0    0 -0.35014166856E+03 -0.35422963659E+03  0.40795710206E+03  0.65014414932E+03  0.90446637676E+02 0.  0.
          3    1    3    3  502    0  0.16992976196E+02  0.52246978509E+01  0.35904331789E+01  0.18136976540E+02  0.00000000000E+00 0. -1.
         -3    1    3    3    0  502  0.26102668952E+02  0.29546450119E+03  0.30919176667E+03  0.42846256472E+03  0.00000000000E+00 0.  1.
         11    1    5    5    0    0  0.25345413609E+03  0.33533253124E+02 -0.67696319587E+02  0.26447357118E+03  0.00000000000E+00 0. -1.
        -11    1    5    5    0    0  0.53591887319E+02  0.20007184427E+02 -0.64268835721E+02  0.86039880637E+02  0.00000000000E+00 0.  1.
          3    1    6    6  503    0 -0.28840577964E+03 -0.28754050674E+03  0.28424978217E+03  0.49664411343E+03  0.00000000000E+00 0. -1.
         -3    1    6    6    0  503 -0.61735888924E+02 -0.66689129851E+02  0.12370731989E+03  0.15350003588E+03  0.00000000000E+00 0.  1.
<mgrwt>
<rscale>  0 0.13220810E+04</rscale>
<asrwt>0</asrwt>
<pdfrwt beam="1">  1        1 0.66037154E-01 0.13220810E+04</pdfrwt>
<pdfrwt beam="2">  1       -1 0.15661779E+00 0.13220810E+04</pdfrwt>
<totfact> 0.16603392E+01</totfact>
</mgrwt>
</event>
<event>
12    2  0.3561489E-008  0.3373368E+04  0.7818608E-02  0.8144474E-01
         -1   -1    0    0    0  501 -0.00000000000E+00  0.00000000000E+00  0.20648385784E+04  0.20648385784E+04  0.00000000000E+00 0.  1.
          1   -1    0    0  501    0  0.00000000000E+00 -0.00000000000E+00 -0.13777842585E+04  0.13777842585E+04  0.00000000000E+00 0. -1.
         23    2    1    2    0    0 -0.11795611215E+04 -0.52956143657E+03 -0.58679740762E+03  0.14229280664E+04  0.92700216997E+02 0.  0.
        254    2    1    2    0    0  0.11795611215E+04  0.52956143657E+03  0.12738517275E+04  0.20196947704E+04  0.88581543657E+03 0.  0.
         23    2    4    4    0    0  0.69117764361E+02  0.69844044143E+02 -0.11813353362E+03  0.17863392475E+03  0.91099349362E+02 0.  0.
         23    2    4    4    0    0  0.11104433571E+04  0.45971739243E+03  0.13919852611E+04  0.18410608457E+04  0.86357049951E+02 0.  0.
          4    1    3    3  502    0 -0.75074006013E+02 -0.10184328022E+02 -0.32103655401E+02  0.82282875534E+02  0.00000000000E+00 0. -1.
         -4    1    3    3    0  502 -0.11044871155E+04 -0.51937710855E+03 -0.55469375222E+03  0.13406451909E+04  0.00000000000E+00 0.  1.
         11    1    5    5    0    0  0.61657447233E+02  0.91884792036E+02 -0.95366242427E+02  0.14607934831E+03  0.00000000000E+00 0. -1.
        -11    1    5    5    0    0  0.74603171288E+01 -0.22040747893E+02 -0.22767291194E+02  0.32554576447E+02  0.00000000000E+00 0.  1.
          1    1    6    6  503    0  0.95885136182E+03  0.41750091799E+03  0.12421783455E+04  0.16237949355E+04  0.00000000000E+00 0. -1.
         -1    1    6    6    0  503  0.15159199529E+03  0.42216474440E+02  0.14980691557E+03  0.21726591013E+03  0.00000000000E+00 0.  1.
<mgrwt>
<rscale>  0 0.33733675E+04</rscale>
<asrwt>0</asrwt>
<pdfrwt beam="1">  1        1 0.21196681E+00 0.33733675E+04</pdfrwt>
<pdfrwt beam="2">  1       -1 0.31766748E+00 0.33733675E+04</pdfrwt>
<totfact> 0.16642689E-01</totfact>
</mgrwt>
</event>
<event>
12    2  0.3561489E-008  0.1735025E+04  0.7818608E-02  0.8741637E-01
         -1   -1    0    0    0  501 -0.00000000000E+00  0.00000000000E+00  0.75965396980E+03  0.75965396980E+03  0.00000000000E+00 0.  1.
          1   -1    0    0  501    0  0.00000000000E+00 -0.00000000000E+00 -0.99068502114E+03  0.99068502114E+03  0.00000000000E+00 0. -1.
         23    2    1    2    0    0 -0.29299721546E+03  0.33513048432E+03 -0.55431379519E+03  0.71673185907E+03  0.90999804879E+02 0.  0.
        254    2    1    2    0    0  0.29299721546E+03 -0.33513048432E+03  0.32328274385E+03  0.10336071319E+04  0.87502694861E+03 0.  0.
         23    2    4    4    0    0  0.71100320243E+01  0.17243223209E+03  0.39390791915E+03  0.43957320587E+03  0.90982016502E+02 0.  0.
         23    2    4    4    0    0  0.28588718343E+03 -0.50756271641E+03 -0.70625175301E+02  0.59403392600E+03  0.92395871693E+02 0.  0.
          4    1    3    3  502    0 -0.22626937975E+03  0.19330971678E+03 -0.35974855946E+03  0.46688917833E+03  0.00000000000E+00 0. -1.
         -4    1    3    3    0  502 -0.66727835711E+02  0.14182076754E+03 -0.19456523573E+03  0.24984268074E+03  0.00000000000E+00 0.  1.
         11    1    5    5    0    0  0.57791160191E+01  0.18367741946E+03  0.37131781053E+03  0.41430388487E+03  0.00000000000E+00 0. -1.
        -11    1    5    5    0    0  0.13309160052E+01 -0.11245187363E+02  0.22590108626E+02  0.25269321004E+02  0.00000000000E+00 0.  1.
          4    1    6    6  503    0  0.24590636509E+03 -0.46607538276E+03 -0.87076539975E+02  0.53411471298E+03  0.00000000000E+00 0. -1.
         -4    1    6    6    0  503  0.39980818348E+02 -0.41487333653E+02  0.16451364674E+02  0.59919213021E+02  0.00000000000E+00 0.  1.
<mgrwt>
<rscale>  0 0.17350249E+04</rscale>
<asrwt>0</asrwt>
<pdfrwt beam="1">  1        1 0.15241308E+00 0.17350249E+04</pdfrwt>
<pdfrwt beam="2">  1       -1 0.11686984E+00 0.17350249E+04</pdfrwt>
<totfact> 0.96414578E+00</totfact>
</mgrwt>
</event>
<event>
12    2  0.3561489E-008  0.1677574E+04  0.7818608E-02  0.8774259E-01
         -1   -1    0    0    0  501 -0.00000000000E+00  0.00000000000E+00  0.51097095091E+03  0.51097095091E+03  0.00000000000E+00 0.  1.
          1   -1    0    0  501    0  0.00000000000E+00 -0.00000000000E+00 -0.13769153313E+04  0.13769153313E+04  0.00000000000E+00 0. -1.
         23    2    1    2    0    0  0.29845986218E+03  0.45946049676E+03 -0.58012427833E+02  0.55886731165E+03  0.93728292612E+02 0.  0.
        254    2    1    2    0    0 -0.29845986218E+03 -0.45946049676E+03 -0.80793195253E+03  0.13290189705E+04  0.90186204415E+03 0.  0.
         23    2    4    4    0    0 -0.47107937633E+03 -0.43210248267E+03 -0.17958570089E+03  0.67050836007E+03  0.93285061120E+02 0.  0.
         23    2    4    4    0    0  0.17261951415E+03 -0.27358014089E+02 -0.62834625163E+03  0.65851061045E+03  0.90946437724E+02 0.  0.
          3    1    3    3  502    0  0.13196717602E+03  0.19187402400E+03 -0.70960879292E+02  0.24344696142E+03  0.00000000000E+00 0. -1.
         -3    1    3    3    0  502  0.16649268616E+03  0.26758647276E+03  0.12948451459E+02  0.31542035023E+03  0.00000000000E+00 0.  1.
         11    1    5    5    0    0 -0.23690551310E+02 -0.28656089890E+02  0.10782369886E+02  0.38712700881E+02  0.00000000000E+00 0.  1.
        -11    1    5    5    0    0 -0.44738882502E+03 -0.40344639278E+03 -0.19036807078E+03  0.63179565919E+03  0.00000000000E+00 0. -1.
          4    1    6    6  503    0  0.30777404647E+02  0.29269310301E+02 -0.17698655197E+03  0.18201148519E+03  0.00000000000E+00 0. -1.
         -4    1    6    6    0  503  0.14184210950E+03 -0.56627324391E+02 -0.45135969967E+03  0.47649912526E+03  0.00000000000E+00 0.  1.
<mgrwt>
<rscale>  0 0.16775741E+04</rscale>
<asrwt>0</asrwt>
<pdfrwt beam="1">  1        1 0.21183313E+00 0.16775741E+04</pdfrwt>
<pdfrwt beam="2">  1       -1 0.78610915E-01 0.16775741E+04</pdfrwt>
<totfact> 0.12312375E+01</totfact>
</mgrwt>
</event>
<event>
12    2  0.3561489E-008  0.2742883E+04  0.7818608E-02  0.8321224E-01
          2   -1    0    0  501    0  0.00000000000E+00  0.00000000000E+00  0.16022769936E+04  0.16022769936E+04  0.00000000000E+00 0. -1.
         -2   -1    0    0    0  501 -0.00000000000E+00 -0.00000000000E+00 -0.11738614217E+04  0.11738614217E+04  0.00000000000E+00 0.  1.
         23    2    1    2    0    0  0.11109799199E+04  0.24601800693E+03  0.66362783992E+03  0.13203632592E+04  0.90310488194E+02 0.  0.
        254    2    1    2    0    0 -0.11109799199E+04 -0.24601800693E+03 -0.23521226802E+03  0.14557751561E+04  0.87701496680E+03 0.  0.
         23    2    4    4    0    0 -0.90786269595E+03 -0.10453488438E+03 -0.52958427687E+03  0.10603446550E+04  0.93429462082E+02 0.  0.
         23    2    4    4    0    0 -0.20311722394E+03 -0.14148312255E+03  0.29437200885E+03  0.39543050109E+03  0.91849447321E+02 0.  0.
          3    1    3    3  502    0  0.84864347945E+03  0.21833154434E+03  0.53721601148E+03  0.10278450571E+04  0.00000000000E+00 0. -1.
         -3    1    3    3    0  502  0.26233644044E+03  0.27686462589E+02  0.12641182844E+03  0.29251820211E+03  0.00000000000E+00 0.  1.
         11    1    5    5    0    0 -0.23240485336E+02 -0.16310788294E+02 -0.74936414294E+01  0.29365228337E+02  0.00000000000E+00 0. -1.
        -11    1    5    5    0    0 -0.88462221061E+03 -0.88224096086E+02 -0.52209063544E+03  0.10309794267E+04  0.00000000000E+00 0.  1.
          1    1    6    6  503    0 -0.13150398738E+02 -0.20698466807E+02  0.83321792513E+02  0.86855515788E+02  0.00000000000E+00 0. -1.
         -1    1    6    6    0  503 -0.18996682521E+03 -0.12078465574E+03  0.21105021633E+03  0.30857498530E+03  0.00000000000E+00 0.  1.
<mgrwt>
<rscale>  0 0.27428825E+04</rscale>
<asrwt>0</asrwt>
<pdfrwt beam="1">  1        2 0.24650415E+00 0.27428825E+04</pdfrwt>
<pdfrwt beam="2">  1       -2 0.18059406E+00 0.27428825E+04</pdfrwt>
<totfact> 0.17463229E+00</totfact>
</mgrwt>
</event>
<event>
12    2  0.3561489E-008  0.1765617E+04  0.7818608E-02  0.8724801E-01
         -2   -1    0    0    0  501 -0.00000000000E+00  0.00000000000E+00  0.41805790089E+03  0.41805790089E+03  0.00000000000E+00 0.  1.
          2   -1    0    0  501    0  0.00000000000E+00 -0.00000000000E+00 -0.18642173777E+04  0.18642173777E+04  0.00000000000E+00 0. -1.
         23    2    1    2    0    0 -0.63155622766E+02 -0.74199976994E+01  0.30257418672E+03  0.32238181034E+03  0.91297339049E+02 0.  0.
        254    2    1    2    0    0  0.63155622766E+02  0.74199976994E+01 -0.17487336635E+04  0.19598934683E+04  0.88264901963E+03 0.  0.
         23    2    4    4    0    0 -0.32367977602E+03 -0.17011516017E+03 -0.12108060689E+04  0.12680374879E+04  0.90332546564E+02 0.  0.
         23    2    4    4    0    0  0.38683539878E+03  0.17753515787E+03 -0.53792759463E+03  0.69185598040E+03  0.90212208276E+02 0.  0.
          1    1    3    3  502    0 -0.43462111385E+02  0.40151870544E+02  0.14495737748E+03  0.15656873609E+03  0.00000000000E+00 0. -1.
         -1    1    3    3    0  502 -0.19693511381E+02 -0.47571868244E+02  0.15761680924E+03  0.16581307425E+03  0.00000000000E+00 0.  1.
         11    1    5    5    0    0 -0.21324278993E+03 -0.14413425231E+03 -0.93574376637E+03  0.97049655664E+03  0.00000000000E+00 0.  1.
        -11    1    5    5    0    0 -0.11043698609E+03 -0.25980907857E+02 -0.27506230254E+03  0.29754093122E+03  0.00000000000E+00 0. -1.
          2    1    6    6  503    0  0.21798010102E+03  0.10136114718E+03 -0.37343972874E+03  0.44412457442E+03  0.00000000000E+00 0. -1.
         -2    1    6    6    0  503  0.16885529776E+03  0.76174010687E+02 -0.16448786589E+03  0.24773140598E+03  0.00000000000E+00 0.  1.
<mgrwt>
<rscale>  0 0.17656170E+04</rscale>
<asrwt>0</asrwt>
<pdfrwt beam="1">  1        2 0.28680267E+00 0.17656170E+04</pdfrwt>
<pdfrwt beam="2">  1       -2 0.64316600E-01 0.17656170E+04</pdfrwt>
<totfact> 0.16803969E+01</totfact>
</mgrwt>
</event>
<event>
12    2  0.3561489E-008  0.2645789E+04  0.7818608E-02  0.8352812E-01
         -2   -1    0    0    0  501 -0.00000000000E+00  0.00000000000E+00  0.20264048552E+04  0.20264048552E+04  0.00000000000E+00 0.  1.
          2   -1    0    0  501    0  0.00000000000E+00 -0.00000000000E+00 -0.86362279599E+03  0.86362279599E+03  0.00000000000E+00 0. -1.
         23    2    1    2    0    0  0.77585872011E+03 -0.68087727106E+03  0.11237925176E+04  0.15288501781E+04  0.94459687796E+02 0.  0.
        254    2    1    2    0    0 -0.77585872011E+03  0.68087727106E+03  0.38989541627E+02  0.13611774731E+04  0.88641599556E+03 0.  0.
         23    2    4    4    0    0 -0.92306715033E+03  0.70911278078E+03  0.10699128221E+03  0.11724151903E+04  0.90644051356E+02 0.  0.
         23    2    4    4    0    0  0.14720843023E+03 -0.28235509719E+02 -0.68001740584E+02  0.18876228285E+03  0.92408856520E+02 0.  0.
          3    1    3    3  502    0  0.16329167273E+03 -0.15824284884E+03  0.30526239977E+03  0.38064432520E+03  0.00000000000E+00 0. -1.
         -3    1    3    3    0  502  0.61256704737E+03 -0.52263442222E+03  0.81853011785E+03  0.11482058529E+04  0.00000000000E+00 0.  1.
         11    1    5    5    0    0 -0.69407158647E+03  0.52372125677E+03  0.40872694667E+02  0.87045384662E+03  0.00000000000E+00 0. -1.
        -11    1    5    5    0    0 -0.22899556387E+03  0.18539152402E+03  0.66118587544E+02  0.30196134366E+03  0.00000000000E+00 0.  1.
          1    1    6    6  503    0  0.30871321412E+02  0.26119735372E+02  0.54908588334E+01  0.40809662978E+02  0.00000000000E+00 0. -1.
         -1    1    6    6    0  503  0.11633710882E+03 -0.54355245091E+02 -0.73492599417E+02  0.14795261987E+03  0.00000000000E+00 0.  1.
<mgrwt>
<rscale>  0 0.26457887E+04</rscale>
<asrwt>0</asrwt>
<pdfrwt beam="1">  1        2 0.13286505E+00 0.26457887E+04</pdfrwt>
<pdfrwt beam="2">  1       -2 0.31175459E+00 0.26457887E+04</pdfrwt>
<totfact> 0.73668359E-01</totfact>
</mgrwt>
</event>
<event>
12    2  0.3561489E-008  0.1363085E+04  0.7818608E-02  0.8980982E-01
          3   -1    0    0  501    0  0.00000000000E+00  0.00000000000E+00  0.31413929322E+03  0.31413929322E+03  0.00000000000E+00 0. -1.
         -3   -1    0    0    0  501 -0.00000000000E+00 -0.00000000000E+00 -0.14786431894E+04  0.14786431894E+04  0.00000000000E+00 0.  1.
         23    2    1    2    0    0 -0.27414250140E+02  0.51258546533E+02  0.16087862101E+03  0.19538207248E+03  0.94409977480E+02 0.  0.
        254    2    1    2    0    0  0.27414250140E+02 -0.51258546533E+02 -0.13253825172E+04  0.15974004102E+04  0.88975854800E+03 0.  0.
         23    2    4    4    0    0 -0.39844804932E+03 -0.14597003860E+03 -0.78178295678E+03  0.89399059846E+03  0.89255243296E+02 0.  0.
         23    2    4    4    0    0  0.42586229946E+03  0.94711492063E+02 -0.54359956043E+03  0.70340981169E+03  0.94635702858E+02 0.  0.
          3    1    3    3  502    0  0.15817048111E+02  0.63882184042E+02  0.93577880383E+02  0.11440250061E+03  0.00000000000E+00 0. -1.
         -3    1    3    3    0  502 -0.43231298251E+02 -0.12623637509E+02  0.67300740622E+02  0.80979571873E+02  0.00000000000E+00 0.  1.
         11    1    5    5    0    0 -0.26904446223E+03 -0.12715999157E+03 -0.60365446966E+03  0.67301805686E+03  0.00000000000E+00 0. -1.
        -11    1    5    5    0    0 -0.12940358709E+03 -0.18810047025E+02 -0.17812848712E+03  0.22097254161E+03  0.00000000000E+00 0.  1.
          4    1    6    6  503    0  0.13168032870E+03 -0.12798104175E+02 -0.14145401395E+03  0.19368205518E+03  0.00000000000E+00 0.  1.
         -4    1    6    6    0  503  0.29418197076E+03  0.10750959624E+03 -0.40214554648E+03  0.50972775651E+03  0.00000000000E+00 0. -1.
<mgrwt>
<rscale>  0 0.13630846E+04</rscale>
<asrwt>0</asrwt>
<pdfrwt beam="1">  1        3 0.48329122E-01 0.13630846E+04</pdfrwt>
<pdfrwt beam="2">  1       -3 0.22748357E+00 0.13630846E+04</pdfrwt>
<totfact> 0.10808581E+00</totfact>
</mgrwt>
</event>
<event>
12    2  0.3561489E-008  0.2762890E+04  0.7818608E-02  0.8314883E-01
         -1   -1    0    0    0  501 -0.00000000000E+00  0.00000000000E+00  0.84924375203E+03  0.84924375203E+03  0.00000000000E+00 0.  1.
          1   -1    0    0  501    0  0.00000000000E+00 -0.00000000000E+00 -0.22471649543E+04  0.22471649543E+04  0.00000000000E+00 0. -1.
         23    2    1    2    0    0  0.38261153696E+03  0.61347071170E+03  0.49052978136E+03  0.87855654089E+03  0.92218364821E+02 0.  0.
        254    2    1    2    0    0 -0.38261153696E+03 -0.61347071170E+03 -0.18884509837E+04  0.22178521655E+04  0.91097925763E+03 0.  0.
         23    2    4    4    0    0 -0.66044823196E+03 -0.39720962792E+03 -0.14788583990E+04  0.16701319972E+04  0.91385820940E+02 0.  0.
         23    2    4    4    0    0  0.27783669500E+03 -0.21626108378E+03 -0.40959258468E+03  0.54772016825E+03  0.90935206830E+02 0.  0.
          1    1    3    3  502    0  0.67562739796E+02  0.13088755634E+03  0.59394660576E+02  0.15882065960E+03  0.00000000000E+00 0. -1.
         -1    1    3    3    0  502  0.31504879717E+03  0.48258315537E+03  0.43113512078E+03  0.71973588129E+03  0.00000000000E+00 0.  1.
         11    1    5    5    0    0 -0.10129078622E+03 -0.31120316413E+02 -0.16581053337E+03  0.19677761673E+03  0.00000000000E+00 0.  1.
        -11    1    5    5    0    0 -0.55915744574E+03 -0.36608931151E+03 -0.13130478656E+04  0.14733543805E+04  0.00000000000E+00 0. -1.
          4    1    6    6  503    0  0.91595932047E+01 -0.11561326849E+02 -0.59292654897E+02  0.61099765556E+02  0.00000000000E+00 0.  1.
         -4    1    6    6    0  503  0.26867710179E+03 -0.20469975693E+03 -0.35029992978E+03  0.48662040270E+03  0.00000000000E+00 0. -1.
<mgrwt>
<rscale>  0 0.27628904E+04</rscale>
<asrwt>0</asrwt>
<pdfrwt beam="1">  1        1 0.34571768E+00 0.27628904E+04</pdfrwt>
<pdfrwt beam="2">  1       -1 0.13065289E+00 0.27628904E+04</pdfrwt>
<totfact> 0.87945057E-01</totfact>
</mgrwt>
</event>
<event>
12    2  0.3561489E-008  0.1211718E+04  0.7818608E-02  0.9102661E-01
         -1   -1    0    0    0  501 -0.00000000000E+00  0.00000000000E+00  0.51781283892E+03  0.51781283892E+03  0.00000000000E+00 0.  1.
          1   -1    0    0  501    0  0.00000000000E+00 -0.00000000000E+00 -0.70887570771E+03  0.70887570771E+03  0.00000000000E+00 0. -1.
         23    2    1    2    0    0 -0.76633848775E+01 -0.19595457730E+03  0.13964955147E+03  0.25761327243E+03  0.91682479634E+02 0.  0.
        254    2    1    2    0    0  0.76633848775E+01  0.19595457730E+03 -0.33071242026E+03  0.96907527421E+03  0.88953878967E+03 0.  0.
         23    2    4    4    0    0 -0.38841446037E+03  0.26694310313E+03 -0.27506728022E+03  0.55247006115E+03  0.86236572788E+02 0.  0.
         23    2    4    4    0    0  0.39607784525E+03 -0.70988525827E+02 -0.55645140049E+02  0.41660521306E+03  0.92447237088E+02 0.  0.
          3    1    3    3  502    0  0.44660587129E+01  0.93118848611E+01  0.10855077929E+02  0.14982976905E+02  0.00000000000E+00 0. -1.
         -3    1    3    3    0  502 -0.12129443590E+02 -0.20526646216E+03  0.12879447354E+03  0.24263029552E+03  0.00000000000E+00 0.  1.
         11    1    5    5    0    0 -0.35406913206E+03  0.26837376931E+03 -0.24878535294E+03  0.50919896128E+03  0.00000000000E+00 0.  1.
        -11    1    5    5    0    0 -0.34345328305E+02 -0.14306661798E+01 -0.26281927280E+02  0.43271099866E+02  0.00000000000E+00 0. -1.
          4    1    6    6  503    0  0.90646471953E+02 -0.37038500701E+02 -0.48346070399E+02  0.10920611675E+03  0.00000000000E+00 0. -1.
         -4    1    6    6    0  503  0.30543137329E+03 -0.33950025125E+02 -0.72990696493E+01  0.30739909632E+03  0.00000000000E+00 0.  1.
<mgrwt>
<rscale>  0 0.12117177E+04</rscale>
<asrwt>0</asrwt>
<pdfrwt beam="1">  1        1 0.10905780E+00 0.12117177E+04</pdfrwt>
<pdfrwt beam="2">  1       -1 0.79663514E-01 0.12117177E+04</pdfrwt>
<totfact> 0.41617237E+01</totfact>
</mgrwt>
</event>
<event>
12    2  0.3561489E-008  0.1058911E+04  0.7818608E-02  0.9246192E-01
         -1   -1    0    0    0  501 -0.00000000000E+00  0.00000000000E+00  0.37251123617E+03  0.37251123617E+03  0.00000000000E+00 0.  1.
          1   -1    0    0  501    0  0.00000000000E+00 -0.00000000000E+00 -0.75252248578E+03  0.75252248578E+03  0.00000000000E+00 0. -1.
         23    2    1    2    0    0 -0.28750979860E+01  0.77111287509E+02  0.44298987574E+02  0.12661168072E+03  0.90076081978E+02 0.  0.
        254    2    1    2    0    0  0.28750979860E+01 -0.77111287509E+02 -0.42431023718E+03  0.99842204123E+03  0.90047375208E+03 0.  0.
         23    2    4    4    0    0 -0.37581528864E+03 -0.14191958991E+03 -0.44293873280E+03  0.60460886877E+03  0.89324475980E+02 0.  0.
         23    2    4    4    0    0  0.37869038663E+03  0.64808302404E+02  0.18628495618E+02  0.39381317246E+03  0.84470521282E+02 0.  0.
          4    1    3    3  502    0  0.26100129417E+02  0.27401931325E+02 -0.17915629964E+02  0.41869468506E+02  0.00000000000E+00 0. -1.
         -4    1    3    3    0  502 -0.28975227403E+02  0.49709356184E+02  0.62214617538E+02  0.84742212213E+02  0.00000000000E+00 0.  1.
         11    1    5    5    0    0 -0.21526883156E+03 -0.69140243939E+02 -0.31064191575E+03  0.38421275746E+03  0.00000000000E+00 0. -1.
        -11    1    5    5    0    0 -0.16054645708E+03 -0.72779345975E+02 -0.13229681705E+03  0.22039611131E+03  0.00000000000E+00 0.  1.
          3    1    6    6  503    0  0.18769052885E+03  0.47115173720E+02  0.48962497803E+02  0.19961187441E+03  0.00000000000E+00 0. -1.
         -3    1    6    6    0  503  0.19099985778E+03  0.17693128684E+02 -0.30334002184E+02  0.19420129805E+03  0.00000000000E+00 0.  1.
<mgrwt>
<rscale>  0 0.10589109E+04</rscale>
<asrwt>0</asrwt>
<pdfrwt beam="1">  1        1 0.11577269E+00 0.10589109E+04</pdfrwt>
<pdfrwt beam="2">  1       -1 0.57309421E-01 0.10589109E+04</pdfrwt>
<totfact> 0.75053667E+01</totfact>
</mgrwt>
</event>
<event>
12    2  0.3561489E-008  0.2566451E+04  0.7818608E-02  0.8379687E-01
         -1   -1    0    0    0  501 -0.00000000000E+00  0.00000000000E+00  0.63851028615E+03  0.63851028615E+03  0.00000000000E+00 0.  1.
          1   -1    0    0  501    0  0.00000000000E+00 -0.00000000000E+00 -0.25789204713E+04  0.25789204713E+04  0.00000000000E+00 0. -1.
         23    2    1    2    0    0  0.71573975556E+03  0.79891307176E+03 -0.42131296429E+03  0.11559680621E+04  0.90620377204E+02 0.  0.
        254    2    1    2    0    0 -0.71573975556E+03 -0.79891307176E+03 -0.15190972209E+04  0.20614626954E+04  0.88962159601E+03 0.  0.
         23    2    4    4    0    0 -0.26053121105E+03 -0.75497691219E+01 -0.93241114283E+03  0.97245166954E+03  0.91313741396E+02 0.  0.
         23    2    4    4    0    0 -0.45520854451E+03 -0.79136330264E+03 -0.58668607804E+03  0.10890110258E+04  0.90960235751E+02 0.  0.
          3    1    3    3  502    0  0.21247979422E+03  0.29352839506E+03 -0.16404638518E+03  0.39776600929E+03  0.00000000000E+00 0. -1.
         -3    1    3    3    0  502  0.50325996134E+03  0.50538467670E+03 -0.25726657911E+03  0.75820205279E+03  0.00000000000E+00 0.  1.
         11    1    5    5    0    0 -0.10639131503E+03 -0.66893443062E+01 -0.23258188725E+03  0.25584798909E+03  0.00000000000E+00 0. -1.
        -11    1    5    5    0    0 -0.15413989602E+03 -0.86042481572E+00 -0.69982925558E+03  0.71660368045E+03  0.00000000000E+00 0.  1.
          2    1    6    6  503    0 -0.15254835318E+03 -0.35100712945E+03 -0.22892377915E+03  0.44596311691E+03  0.00000000000E+00 0. -1.
         -2    1    6    6    0  503 -0.30266019133E+03 -0.44035617319E+03 -0.35776229888E+03  0.64304790893E+03  0.00000000000E+00 0.  1.
<mgrwt>
<rscale>  0 0.25664507E+04</rscale>
<asrwt>0</asrwt>
<pdfrwt beam="1">  1        1 0.39675700E+00 0.25664507E+04</pdfrwt>
<pdfrwt beam="2">  1       -1 0.98232350E-01 0.25664507E+04</pdfrwt>
<totfact> 0.10463206E+00</totfact>
</mgrwt>
</event>
<event>
12    2  0.3561489E-008  0.1249367E+04  0.7818608E-02  0.9070710E-01
          1   -1    0    0  501    0  0.00000000000E+00  0.00000000000E+00  0.10574792788E+04  0.10574792788E+04  0.00000000000E+00 0. -1.
         -1   -1    0    0    0  501 -0.00000000000E+00 -0.00000000000E+00 -0.36901845891E+03  0.36901845891E+03  0.00000000000E+00 0.  1.
         23    2    1    2    0    0  0.26194762357E+03  0.80938159429E+02  0.29802541359E+03  0.41517516282E+03  0.91562686354E+02 0.  0.
        254    2    1    2    0    0 -0.26194762357E+03 -0.80938159429E+02  0.39043540627E+03  0.10113225749E+04  0.89172080878E+03 0.  0.
         23    2    4    4    0    0 -0.16078519111E+03 -0.26202809782E+03 -0.20004817159E+03  0.37761842883E+03  0.89809827457E+02 0.  0.
         23    2    4    4    0    0 -0.10116243245E+03  0.18108993839E+03  0.59048357786E+03  0.63370414603E+03  0.99411696779E+02 0.  0.
          2    1    3    3  502    0  0.12931208449E+03  0.47454047611E+02  0.21442335978E+03  0.25485462337E+03  0.00000000000E+00 0. -1.
         -2    1    3    3    0  502  0.13263553908E+03  0.33484111818E+02  0.83602053810E+02  0.16032053946E+03  0.00000000000E+00 0.  1.
         11    1    5    5    0    0 -0.10441354697E+03 -0.19818408662E+03 -0.18628576066E+03  0.29134430766E+03  0.00000000000E+00 0.  1.
        -11    1    5    5    0    0 -0.56371644142E+02 -0.63844011200E+02 -0.13762410929E+02  0.86274121171E+02  0.00000000000E+00 0. -1.
          4    1    6    6  503    0  0.65312719960E+01  0.39040734058E+02  0.45500758126E+02  0.60308833679E+02  0.00000000000E+00 0. -1.
         -4    1    6    6    0  503 -0.10769370445E+03  0.14204920433E+03  0.54498281973E+03  0.57339531235E+03  0.00000000000E+00 0.  1.
<mgrwt>
<rscale>  0 0.12493668E+04</rscale>
<asrwt>0</asrwt>
<pdfrwt beam="1">  1        1 0.16268912E+00 0.12493668E+04</pdfrwt>
<pdfrwt beam="2">  1       -1 0.56772071E-01 0.12493668E+04</pdfrwt>
<totfact> 0.42299743E+01</totfact>
</mgrwt>
</event>
<event>
12    2  0.3561489E-008  0.1610856E+04  0.7818608E-02  0.8813907E-01
         -1   -1    0    0    0  501 -0.00000000000E+00  0.00000000000E+00  0.22893342146E+03  0.22893342146E+03  0.00000000000E+00 0.  1.
          1   -1    0    0  501    0  0.00000000000E+00 -0.00000000000E+00 -0.28336362825E+04  0.28336362825E+04  0.00000000000E+00 0. -1.
         23    2    1    2    0    0 -0.15090476089E+03  0.18610095295E+03 -0.18789448114E+04  0.18963246902E+04  0.90597543666E+02 0.  0.
        254    2    1    2    0    0  0.15090476089E+03 -0.18610095295E+03 -0.72575804961E+03  0.11662450137E+04  0.88090684743E+03 0.  0.
         23    2    4    4    0    0 -0.15437670343E+03 -0.85167875278E+02 -0.79884857166E+03  0.82299648676E+03  0.89880160353E+02 0.  0.
         23    2    4    4    0    0  0.30528146432E+03 -0.10093307768E+03  0.73090522052E+02  0.34324852694E+03  0.95357580744E+02 0.  0.
          3    1    3    3  502    0 -0.26286644486E+02 -0.41724460451E+01 -0.13393037600E+03  0.13654941450E+03  0.00000000000E+00 0.  1.
         -3    1    3    3    0  502 -0.12461811641E+03  0.19027339900E+03 -0.17450144354E+04  0.17597752757E+04  0.00000000000E+00 0. -1.
         11    1    5    5    0    0 -0.97754638695E+02 -0.80507897381E+02 -0.38565574370E+03  0.40591605484E+03  0.00000000000E+00 0. -1.
        -11    1    5    5    0    0 -0.56622064735E+02 -0.46599778964E+01 -0.41319282797E+03  0.41708043192E+03  0.00000000000E+00 0.  1.
          3    1    6    6  503    0  0.10103215980E+03  0.34889032348E+01 -0.42103950787E+01  0.10118002365E+03  0.00000000000E+00 0. -1.
         -3    1    6    6    0  503  0.20424930453E+03 -0.10442198091E+03  0.77300917131E+02  0.24206850329E+03  0.00000000000E+00 0.  1.
<mgrwt>
<rscale>  0 0.16108557E+04</rscale>
<asrwt>0</asrwt>
<pdfrwt beam="1">  1        1 0.43594408E+00 0.16108557E+04</pdfrwt>
<pdfrwt beam="2">  1       -1 0.35220524E-01 0.16108557E+04</pdfrwt>
<totfact> 0.58217669E+00</totfact>
</mgrwt>
</event>
<event>
12    2  0.3561489E-008  0.2003373E+04  0.7818608E-02  0.8605045E-01
         -2   -1    0    0    0  501 -0.00000000000E+00  0.00000000000E+00  0.98296801668E+03  0.98296801668E+03  0.00000000000E+00 0.  1.
          2   -1    0    0  501    0  0.00000000000E+00 -0.00000000000E+00 -0.10207611792E+04  0.10207611792E+04  0.00000000000E+00 0. -1.
         23    2    1    2    0    0  0.42925908816E+03  0.57003574388E+03  0.33561853742E+03  0.79381607973E+03  0.91104619575E+02 0.  0.
        254    2    1    2    0    0 -0.42925908816E+03 -0.57003574388E+03 -0.37341169993E+03  0.12099131161E+04  0.90291158865E+03 0.  0.
         23    2    4    4    0    0 -0.49764406642E+03 -0.21951674972E+03 -0.56897391904E+03  0.79259433055E+03  0.92936709679E+02 0.  0.
         23    2    4    4    0    0  0.68384978263E+02 -0.35051899416E+03  0.19556221912E+03  0.41731878560E+03  0.91489435194E+02 0.  0.
          2    1    3    3  502    0  0.32419524251E+02  0.24085774369E+02  0.40435811752E+02  0.57150721358E+02  0.00000000000E+00 0. -1.
         -2    1    3    3    0  502  0.39683956391E+03  0.54594996951E+03  0.29518272567E+03  0.73666535837E+03  0.00000000000E+00 0.  1.
         11    1    5    5    0    0 -0.16081136204E+03 -0.88660396808E+02 -0.25271100524E+03  0.31238407816E+03  0.00000000000E+00 0.  1.
        -11    1    5    5    0    0 -0.33683270439E+03 -0.13085635291E+03 -0.31626291380E+03  0.48021025238E+03  0.00000000000E+00 0. -1.
          1    1    6    6  503    0  0.46953996463E+02 -0.17112632474E+03  0.47414579866E+02  0.18367645246E+03  0.00000000000E+00 0. -1.
         -1    1    6    6    0  503  0.21430981800E+02 -0.17939266941E+03  0.14814763925E+03  0.23364233314E+03  0.00000000000E+00 0.  1.
<mgrwt>
<rscale>  0 0.20033727E+04</rscale>
<asrwt>0</asrwt>
<pdfrwt beam="1">  1        2 0.15704018E+00 0.20033727E+04</pdfrwt>
<pdfrwt beam="2">  1       -2 0.15122585E+00 0.20033727E+04</pdfrwt>
<totfact> 0.66521784E+00</totfact>
</mgrwt>
</event>
<event>
12    2  0.3561489E-008  0.1790895E+04  0.7818608E-02  0.8711156E-01
          2   -1    0    0  501    0  0.00000000000E+00  0.00000000000E+00  0.11584181265E+04  0.11584181265E+04  0.00000000000E+00 0. -1.
         -2   -1    0    0    0  501 -0.00000000000E+00 -0.00000000000E+00 -0.69217348826E+03  0.69217348826E+03  0.00000000000E+00 0.  1.
         23    2    1    2    0    0  0.50505790079E+02 -0.50965665785E+03  0.61888590952E+03  0.80845561134E+03  0.90994300784E+02 0.  0.
        254    2    1    2    0    0 -0.50505790079E+02  0.50965665785E+03 -0.15264127125E+03  0.10421360035E+04  0.89467723134E+03 0.  0.
         23    2    4    4    0    0 -0.69436506701E+02  0.75513346424E+03 -0.15491414562E+03  0.77944582246E+03  0.92138050512E+02 0.  0.
         23    2    4    4    0    0  0.18930716622E+02 -0.24547680638E+03  0.22728743765E+01  0.26269018100E+03  0.91562714732E+02 0.  0.
          4    1    3    3  502    0 -0.25369692935E+02 -0.10153856086E+03  0.11214796433E+03  0.15339773977E+03  0.00000000000E+00 0.  1.
         -4    1    3    3    0  502  0.75875483014E+02 -0.40811809699E+03  0.50673794519E+03  0.65505787158E+03  0.00000000000E+00 0. -1.
         11    1    5    5    0    0 -0.21156078766E+02  0.46265985864E+02  0.51373167408E+01  0.51132310138E+02  0.00000000000E+00 0.  1.
        -11    1    5    5    0    0 -0.48280427935E+02  0.70886747838E+03 -0.16005146236E+03  0.72831351232E+03  0.00000000000E+00 0. -1.
          1    1    6    6  503    0  0.85153217991E+01 -0.24034231154E+03  0.20190017548E+02  0.24133912701E+03  0.00000000000E+00 0. -1.
         -1    1    6    6    0  503  0.10415394823E+02 -0.51344948497E+01 -0.17917143172E+02  0.21351053982E+02  0.00000000000E+00 0.  1.
<mgrwt>
<rscale>  0 0.17908951E+04</rscale>
<asrwt>0</asrwt>
<pdfrwt beam="1">  1        2 0.17821817E+00 0.17908951E+04</pdfrwt>
<pdfrwt beam="2">  1       -2 0.10648823E+00 0.17908951E+04</pdfrwt>
<totfact> 0.13473005E+01</totfact>
</mgrwt>
</event>
<event>
12    2  0.3561489E-008  0.2401417E+04  0.7818608E-02  0.8438973E-01
         -2   -1    0    0    0  501 -0.00000000000E+00  0.00000000000E+00  0.49108782364E+03  0.49108782364E+03  0.00000000000E+00 0.  1.
          2   -1    0    0  501    0  0.00000000000E+00 -0.00000000000E+00 -0.29357283148E+04  0.29357283148E+04  0.00000000000E+00 0. -1.
         23    2    1    2    0    0 -0.78166208922E+02  0.62155338954E+03  0.11271865024E+03  0.64225904686E+03  0.85747401724E+02 0.  0.
        254    2    1    2    0    0  0.78166208922E+02 -0.62155338954E+03 -0.25573591414E+04  0.27845570915E+04  0.90621953513E+03 0.  0.
         23    2    4    4    0    0 -0.33175549071E+03 -0.15297626909E+03 -0.45841363972E+03  0.59315109620E+03  0.90673663861E+02 0.  0.
         23    2    4    4    0    0  0.40992169964E+03 -0.46857712044E+03 -0.20989455016E+04  0.21914059953E+04  0.95329428245E+02 0.  0.
          1    1    3    3  502    0 -0.85923612096E+02  0.34288196592E+03  0.60065685902E+02  0.35855096750E+03  0.00000000000E+00 0. -1.
         -1    1    3    3    0  502  0.77574031734E+01  0.27867142361E+03  0.52652964342E+02  0.28370807937E+03  0.00000000000E+00 0.  1.
         11    1    5    5    0    0 -0.15012693806E+03 -0.11879658059E+03 -0.22485671437E+03  0.29531553817E+03  0.00000000000E+00 0. -1.
        -11    1    5    5    0    0 -0.18162855265E+03 -0.34179688506E+02 -0.23355692536E+03  0.29783555803E+03  0.00000000000E+00 0.  1.
          1    1    6    6  503    0  0.20024161285E+03 -0.20120376942E+03 -0.11097278584E+04  0.11454586767E+04  0.00000000000E+00 0. -1.
         -1    1    6    6    0  503  0.20968008678E+03 -0.26737335103E+03 -0.98921764324E+03  0.10459473186E+04  0.00000000000E+00 0.  1.
<mgrwt>
<rscale>  0 0.24014166E+04</rscale>
<asrwt>0</asrwt>
<pdfrwt beam="1">  1        2 0.45165051E+00 0.24014166E+04</pdfrwt>
<pdfrwt beam="2">  1       -2 0.75551972E-01 0.24014166E+04</pdfrwt>
<totfact> 0.26981316E+00</totfact>
</mgrwt>
</event>
<event>
12    2  0.3561489E-008  0.5513800E+04  0.7818608E-02  0.7753793E-01
          2   -1    0    0  501    0  0.00000000000E+00  0.00000000000E+00  0.23561493527E+04  0.23561493527E+04  0.00000000000E+00 0.  1.
         -2   -1    0    0    0  501 -0.00000000000E+00 -0.00000000000E+00 -0.32258128624E+04  0.32258128624E+04  0.00000000000E+00 0. -1.
         23    2    1    2    0    0  0.75827267690E+03 -0.16290287364E+04  0.15925622376E+04  0.24025101209E+04  0.84192183669E+02 0.  0.
        254    2    1    2    0    0 -0.75827267690E+03  0.16290287364E+04 -0.24622257473E+04  0.31794520942E+04  0.90423885793E+03 0.  0.
         23    2    4    4    0    0 -0.24667809825E+03  0.29333851239E+03 -0.84761625135E+02  0.40343020438E+03  0.93133397340E+02 0.  0.
         23    2    4    4    0    0 -0.51159457865E+03  0.13356902240E+04 -0.23774641222E+04  0.27760218898E+04  0.90357585385E+02 0.  0.
          1    1    3    3  502    0  0.39917897046E+02 -0.63573160979E+02  0.86370206474E+02  0.11443250355E+03  0.00000000000E+00 0. -1.
         -1    1    3    3    0  502  0.71835477985E+03 -0.15654555754E+04  0.15061920311E+04  0.22880776173E+04  0.00000000000E+00 0.  1.
         11    1    5    5    0    0 -0.24517509133E+03  0.28550955785E+03 -0.64715123705E+02  0.38185675360E+03  0.00000000000E+00 0.  1.
        -11    1    5    5    0    0 -0.15030069176E+01  0.78289545491E+01 -0.20046501430E+02  0.21573450783E+02  0.00000000000E+00 0. -1.
          2    1    6    6  503    0 -0.19814062820E+03  0.63918456425E+03 -0.10880225232E+04  0.12773447564E+04  0.00000000000E+00 0. -1.
         -2    1    6    6    0  503 -0.31345395044E+03  0.69650565975E+03 -0.12894415989E+04  0.14986771334E+04  0.00000000000E+00 0.  1.
<mgrwt>
<rscale>  0 0.55137997E+04</rscale>
<asrwt>0</asrwt>
<pdfrwt beam="1">  1        2 0.36248451E+00 0.55137997E+04</pdfrwt>
<pdfrwt beam="2">  1       -2 0.49627890E+00 0.55137997E+04</pdfrwt>
<totfact> 0.51691699E-03</totfact>
</mgrwt>
</event>
<event>
12    2  0.3561489E-008  0.2306080E+04  0.7818608E-02  0.8475528E-01
         -1   -1    0    0    0  501 -0.00000000000E+00  0.00000000000E+00  0.18327606191E+04  0.18327606191E+04  0.00000000000E+00 0.  1.
          1   -1    0    0  501    0  0.00000000000E+00 -0.00000000000E+00 -0.72540920853E+03  0.72540920853E+03  0.00000000000E+00 0. -1.
         23    2    1    2    0    0  0.81302238099E+03  0.43707253572E+03  0.78299798673E+03  0.12138352339E+04  0.90952374572E+02 0.  0.
        254    2    1    2    0    0 -0.81302238099E+03 -0.43707253572E+03  0.32435342388E+03  0.13443345937E+04  0.92195041237E+03 0.  0.
         23    2    4    4    0    0 -0.41230076527E+03 -0.18178401862E+03 -0.30413326162E+03  0.55136425703E+03  0.92022565915E+02 0.  0.
         23    2    4    4    0    0 -0.40072161571E+03 -0.25528851709E+03  0.62848668550E+03  0.79297033670E+03  0.89757455246E+02 0.  0.
          3    1    3    3  502    0  0.53094150912E+03  0.29920795538E+03  0.56979162789E+03  0.83431815627E+03  0.00000000000E+00 0. -1.
         -3    1    3    3    0  502  0.28208087187E+03  0.13786458033E+03  0.21320635884E+03  0.37951707766E+03  0.00000000000E+00 0.  1.
         11    1    5    5    0    0 -0.56589681077E+02 -0.43439832166E+02 -0.15905741148E+02  0.73091747992E+02  0.00000000000E+00 0.  1.
        -11    1    5    5    0    0 -0.35571108420E+03 -0.13834418646E+03 -0.28822752047E+03  0.47827250904E+03  0.00000000000E+00 0. -1.
          1    1    6    6  503    0 -0.39437363143E+03 -0.22825747663E+03  0.58847229540E+03  0.74426586597E+03  0.00000000000E+00 0. -1.
         -1    1    6    6    0  503 -0.63479842835E+01 -0.27031040469E+02  0.40014390107E+02  0.48704470728E+02  0.00000000000E+00 0.  1.
<mgrwt>
<rscale>  0 0.23060802E+04</rscale>
<asrwt>0</asrwt>
<pdfrwt beam="1">  1        1 0.11160142E+00 0.23060802E+04</pdfrwt>
<pdfrwt beam="2">  1       -1 0.28196317E+00 0.23060802E+04</pdfrwt>
<totfact> 0.10073492E+00</totfact>
</mgrwt>
</event>
<event>
12    2  0.3561489E-008  0.3342785E+04  0.7818608E-02  0.8152093E-01
          2   -1    0    0  501    0  0.00000000000E+00  0.00000000000E+00  0.32604265645E+04  0.32604265645E+04  0.00000000000E+00 0. -1.
         -2   -1    0    0    0  501 -0.00000000000E+00 -0.00000000000E+00 -0.85680601145E+03  0.85680601145E+03  0.00000000000E+00 0.  1.
         23    2    1    2    0    0 -0.14322161039E+04 -0.28751277788E+03  0.47718577978E+03  0.15392581051E+04  0.87764912690E+02 0.  0.
        254    2    1    2    0    0  0.14322161039E+04  0.28751277788E+03  0.19264347733E+04  0.25779744709E+04  0.89492729934E+03 0.  0.
         23    2    4    4    0    0  0.15411907975E+04  0.29183296522E+03  0.17784179840E+04  0.23730622690E+04  0.90655683554E+02 0.  0.
         23    2    4    4    0    0 -0.10897469355E+03 -0.43201873393E+01  0.14801678929E+03  0.20491220189E+03  0.90475923433E+02 0.  0.
          1    1    3    3  502    0 -0.12900241136E+04 -0.27650611635E+03  0.40966111822E+03  0.13814630208E+04  0.00000000000E+00 0. -1.
         -1    1    3    3    0  502 -0.14219199027E+03 -0.11006661539E+02  0.67524661558E+02  0.15779508425E+03  0.00000000000E+00 0.  1.
         11    1    5    5    0    0  0.51483645943E+03  0.13388345827E+03  0.56691846874E+03  0.77741746222E+03  0.00000000000E+00 0. -1.
        -11    1    5    5    0    0  0.10263543380E+04  0.15794950695E+03  0.12114995153E+04  0.15956448068E+04  0.00000000000E+00 0.  1.
          3    1    6    6  503    0 -0.18089156632E+02 -0.57427309705E+01  0.10063192106E+03  0.10240595726E+03  0.00000000000E+00 0. -1.
         -3    1    6    6    0  503 -0.90885536919E+02  0.14225436312E+01  0.47384868227E+02  0.10250624463E+03  0.00000000000E+00 0.  1.
<mgrwt>
<rscale>  0 0.33427851E+04</rscale>
<asrwt>0</asrwt>
<pdfrwt beam="1">  1        2 0.50160408E+00 0.33427851E+04</pdfrwt>
<pdfrwt beam="2">  1       -2 0.13181631E+00 0.33427851E+04</pdfrwt>
<totfact> 0.41250699E-01</totfact>
</mgrwt>
</event>
<event>
12    2  0.3561489E-008  0.2257402E+04  0.7818608E-02  0.8494909E-01
         -2   -1    0    0    0  501 -0.00000000000E+00  0.00000000000E+00  0.54965899881E+03  0.54965899881E+03  0.00000000000E+00 0.  1.
          2   -1    0    0  501    0  0.00000000000E+00 -0.00000000000E+00 -0.23177380514E+04  0.23177380514E+04  0.00000000000E+00 0. -1.
         23    2    1    2    0    0 -0.27723577349E+03  0.90408252403E+03 -0.78124170851E+03  0.12299603520E+04  0.90768805117E+02 0.  0.
        254    2    1    2    0    0  0.27723577349E+03 -0.90408252403E+03 -0.98683734408E+03  0.16374366982E+04  0.90173505677E+03 0.  0.
         23    2    4    4    0    0  0.66930368503E+02 -0.10190322550E+04 -0.91110121931E+03  0.13715459359E+04  0.90146610080E+02 0.  0.
         23    2    4    4    0    0  0.21030540498E+03  0.11494973099E+03 -0.75736124768E+02  0.26589076236E+03  0.86718699790E+02 0.  0.
          4    1    3    3  502    0 -0.62369407271E+02  0.16202900322E+03 -0.18815193452E+03  0.25601658406E+03  0.00000000000E+00 0. -1.
         -4    1    3    3    0  502 -0.21486636621E+03  0.74205352081E+03 -0.59308977399E+03  0.97394376793E+03  0.00000000000E+00 0.  1.
         11    1    5    5    0    0  0.11051734744E+02 -0.68524481649E+02 -0.35333609533E+02  0.77885874128E+02  0.00000000000E+00 0. -1.
        -11    1    5    5    0    0  0.55878633759E+02 -0.95050777338E+03 -0.87576760978E+03  0.12936600617E+04  0.00000000000E+00 0.  1.
          4    1    6    6  503    0  0.18964522471E+02  0.16846237292E+02  0.18223264635E+02  0.31233574843E+02  0.00000000000E+00 0. -1.
         -4    1    6    6    0  503  0.19134088251E+03  0.98103493700E+02 -0.93959389404E+02  0.23465718752E+03  0.00000000000E+00 0.  1.
<mgrwt>
<rscale>  0 0.22574017E+04</rscale>
<asrwt>0</asrwt>
<pdfrwt beam="1">  1        2 0.35657507E+00 0.22574017E+04</pdfrwt>
<pdfrwt beam="2">  1       -2 0.84562926E-01 0.22574017E+04</pdfrwt>
<totfact> 0.49125046E+00</totfact>
</mgrwt>
</event>
<event>
12    2  0.3561489E-008  0.2821993E+04  0.7818608E-02  0.8296473E-01
          2   -1    0    0  501    0  0.00000000000E+00  0.00000000000E+00  0.36360269102E+04  0.36360269102E+04  0.00000000000E+00 0.  1.
         -2   -1    0    0    0  501 -0.00000000000E+00 -0.00000000000E+00 -0.54755106888E+03  0.54755106888E+03  0.00000000000E+00 0. -1.
         23    2    1    2    0    0 -0.65056170585E+03 -0.38090735886E+03  0.28864417935E+04  0.29846577998E+04  0.91186651970E+02 0.  0.
        254    2    1    2    0    0  0.65056170585E+03  0.38090735886E+03  0.20203404779E+03  0.11989201792E+04  0.91009389108E+03 0.  0.
         23    2    4    4    0    0 -0.16132360327E+03  0.30253300071E+03  0.11777384740E+03  0.37380542455E+03  0.91149848037E+02 0.  0.
         23    2    4    4    0    0  0.81188530912E+03  0.78374358146E+02  0.84260200391E+02  0.82511475470E+03  0.91729394815E+02 0.  0.
          4    1    3    3  502    0 -0.83334780511E+02 -0.37856925777E+02  0.25243337872E+03  0.26851525686E+03  0.00000000000E+00 0. -1.
         -4    1    3    3    0  502 -0.56722692534E+03 -0.34305043308E+03  0.26340084148E+04  0.27161425429E+04  0.00000000000E+00 0.  1.
         11    1    5    5    0    0 -0.48349384392E+02  0.43385307201E+02 -0.59125102494E+01  0.65229637662E+02  0.00000000000E+00 0. -1.
        -11    1    5    5    0    0 -0.11297421888E+03  0.25914769351E+03  0.12368635765E+03  0.30857578688E+03  0.00000000000E+00 0.  1.
          4    1    6    6  503    0  0.57916933101E+01  0.94090814143E+01 -0.28214522049E+01  0.11403294130E+02  0.00000000000E+00 0. -1.
         -4    1    6    6    0  503  0.80609361581E+03  0.68965276732E+02  0.87081652596E+02  0.81371146057E+03  0.00000000000E+00 0.  1.
<mgrwt>
<rscale>  0 0.28219925E+04</rscale>
<asrwt>0</asrwt>
<pdfrwt beam="1">  1        2 0.55938874E+00 0.28219925E+04</pdfrwt>
<pdfrwt beam="2">  1       -2 0.84238628E-01 0.28219925E+04</pdfrwt>
<totfact> 0.69453247E-01</totfact>
</mgrwt>
</event>
<event>
12    2  0.3561489E-008  0.1852159E+04  0.7818608E-02  0.8679043E-01
          2   -1    0    0  501    0  0.00000000000E+00  0.00000000000E+00  0.28358615314E+04  0.28358615314E+04  0.00000000000E+00 0.  1.
         -2   -1    0    0    0  501 -0.00000000000E+00 -0.00000000000E+00 -0.30242082949E+03  0.30242082949E+03  0.00000000000E+00 0. -1.
         23    2    1    2    0    0 -0.51772364723E+03  0.32045011922E+03  0.14537664878E+04  0.15791158045E+04  0.97178542081E+02 0.  0.
        254    2    1    2    0    0  0.51772364723E+03 -0.32045011922E+03  0.10796742141E+04  0.15591665564E+04  0.94582127713E+03 0.  0.
         23    2    4    4    0    0 -0.23087848336E+03 -0.15239229125E+03  0.55300452423E+03  0.62506846338E+03  0.91478388675E+02 0.  0.
         23    2    4    4    0    0  0.74860213058E+03 -0.16805782797E+03  0.52666968987E+03  0.93409809304E+03  0.80682722608E+02 0.  0.
          2    1    3    3  502    0 -0.80039170398E+02  0.90141642862E+02  0.33001029117E+03  0.35133826557E+03  0.00000000000E+00 0. -1.
         -2    1    3    3    0  502 -0.43768447683E+03  0.23030847636E+03  0.11237561966E+04  0.12277775389E+04  0.00000000000E+00 0.  1.
         11    1    5    5    0    0 -0.23060081421E+03 -0.12242382834E+03  0.50446506739E+03  0.56802230016E+03  0.00000000000E+00 0.  1.
        -11    1    5    5    0    0 -0.27766914928E+00 -0.29968462904E+02  0.48539456834E+02  0.57046163225E+02  0.00000000000E+00 0. -1.
          3    1    6    6  503    0  0.12065483361E+03 -0.51077243806E+02  0.11369229378E+03  0.17347164429E+03  0.00000000000E+00 0. -1.
         -3    1    6    6    0  503  0.62794729697E+03 -0.11698058417E+03  0.41297739610E+03  0.76062644875E+03  0.00000000000E+00 0.  1.
<mgrwt>
<rscale>  0 0.18521594E+04</rscale>
<asrwt>0</asrwt>
<pdfrwt beam="1">  1        2 0.43628637E+00 0.18521594E+04</pdfrwt>
<pdfrwt beam="2">  1       -2 0.46526283E-01 0.18521594E+04</pdfrwt>
<totfact> 0.90777034E+00</totfact>
</mgrwt>
</event>
<event>
12    2  0.3561489E-008  0.1599357E+04  0.7818608E-02  0.8820943E-01
          1   -1    0    0  501    0  0.00000000000E+00  0.00000000000E+00  0.12352502947E+04  0.12352502947E+04  0.00000000000E+00 0. -1.
         -1   -1    0    0    0  501 -0.00000000000E+00 -0.00000000000E+00 -0.51769721068E+03  0.51769721068E+03  0.00000000000E+00 0.  1.
         23    2    1    2    0    0  0.47770962817E+03 -0.13071052180E+03 -0.25912427800E+02  0.50435167908E+03  0.91692054851E+02 0.  0.
        254    2    1    2    0    0 -0.47770962817E+03  0.13071052180E+03  0.74346551184E+03  0.12485958263E+04  0.87232954832E+03 0.  0.
         23    2    4    4    0    0  0.10482297417E+03  0.34177478603E+03  0.20330959067E+03  0.42198003552E+03  0.94522486446E+02 0.  0.
         23    2    4    4    0    0 -0.58253260234E+03 -0.21106426423E+03  0.54015592117E+03  0.82661579080E+03  0.87366412345E+02 0.  0.
          3    1    3    3  502    0  0.19389424866E+03 -0.59572949885E+02 -0.55415648296E+02  0.21027317969E+03  0.00000000000E+00 0. -1.
         -3    1    3    3    0  502  0.28381537951E+03 -0.71137571918E+02  0.29503220496E+02  0.29407849939E+03  0.00000000000E+00 0.  1.
         11    1    5    5    0    0  0.69368040864E+02  0.92385926207E+02  0.42341303088E+02  0.12304418069E+03  0.00000000000E+00 0.  1.
        -11    1    5    5    0    0  0.35454933309E+02  0.24938885982E+03  0.16096828758E+03  0.29893585484E+03  0.00000000000E+00 0. -1.
          4    1    6    6  503    0 -0.50430594429E+03 -0.15984891617E+03  0.48701502203E+03  0.71906869848E+03  0.00000000000E+00 0. -1.
         -4    1    6    6    0  503 -0.78226658047E+02 -0.51215348060E+02  0.53140899148E+02  0.10754709233E+03  0.00000000000E+00 0.  1.
<mgrwt>
<rscale>  0 0.15993569E+04</rscale>
<asrwt>0</asrwt>
<pdfrwt beam="1">  1        1 0.19003851E+00 0.15993569E+04</pdfrwt>
<pdfrwt beam="2">  1       -1 0.79645725E-01 0.15993569E+04</pdfrwt>
<totfact> 0.15220170E+01</totfact>
</mgrwt>
</event>
<event>
12    2  0.3561489E-008  0.1656527E+04  0.7818608E-02  0.8786554E-01
         -2   -1    0    0    0  501 -0.00000000000E+00  0.00000000000E+00  0.74792851521E+03  0.74792851521E+03  0.00000000000E+00 0.  1.
          2   -1    0    0  501    0  0.00000000000E+00 -0.00000000000E+00 -0.91722753935E+03  0.91722753935E+03  0.00000000000E+00 0. -1.
         23    2    1    2    0    0  0.71969620238E+02  0.12510315626E+03  0.49416360916E+03  0.52270663819E+03  0.90521439717E+02 0.  0.
        254    2    1    2    0    0 -0.71969620238E+02 -0.12510315626E+03 -0.66346263329E+03  0.11424494164E+04  0.91879136763E+03 0.  0.
         23    2    4    4    0    0  0.10859870055E+03 -0.17004419630E+03  0.17279472042E+03  0.28067084908E+03  0.90605759543E+02 0.  0.
         23    2    4    4    0    0 -0.18056832078E+03  0.44941040041E+02 -0.83625735371E+03  0.86177856728E+03  0.93334462189E+02 0.  0.
          3    1    3    3  502    0 -0.50840981399E+01  0.52738570633E+02  0.85436364882E+02  0.10053147433E+03  0.00000000000E+00 0. -1.
         -3    1    3    3    0  502  0.77053718378E+02  0.72364585632E+02  0.40872724428E+03  0.42217516387E+03  0.00000000000E+00 0.  1.
         11    1    5    5    0    0  0.15376414728E+02 -0.25646420342E+02 -0.82647124624E+01  0.31023837259E+02  0.00000000000E+00 0. -1.
        -11    1    5    5    0    0  0.93222285818E+02 -0.14439777596E+03  0.18105943288E+03  0.24964701182E+03  0.00000000000E+00 0.  1.
          3    1    6    6  503    0 -0.49544514589E+01  0.23717293936E+02 -0.19748478627E+03  0.19896556845E+03  0.00000000000E+00 0. -1.
         -3    1    6    6    0  503 -0.17561386933E+03  0.21223746105E+02 -0.63877256745E+03  0.66281299883E+03  0.00000000000E+00 0.  1.
<mgrwt>
<rscale>  0 0.16565272E+04</rscale>
<asrwt>0</asrwt>
<pdfrwt beam="1">  1        2 0.14111193E+00 0.16565272E+04</pdfrwt>
<pdfrwt beam="2">  1       -2 0.11506593E+00 0.16565272E+04</pdfrwt>
<totfact> 0.16050239E+01</totfact>
</mgrwt>
</event>
<event>
12    2  0.3561489E-008  0.1902156E+04  0.7818608E-02  0.8653784E-01
         -2   -1    0    0    0  501 -0.00000000000E+00  0.00000000000E+00  0.66162882301E+03  0.66162882301E+03  0.00000000000E+00 0. -1.
          2   -1    0    0  501    0  0.00000000000E+00 -0.00000000000E+00 -0.13671555362E+04  0.13671555362E+04  0.00000000000E+00 0.  1.
         23    2    1    2    0    0 -0.48219324526E+03 -0.32346955012E+03  0.21620445219E+03  0.62647008210E+03  0.92614917738E+02 0.  0.
        254    2    1    2    0    0  0.48219324526E+03  0.32346955012E+03 -0.92173116537E+03  0.14023142771E+04  0.88303687065E+03 0.  0.
         23    2    4    4    0    0  0.59196953881E+03  0.10306138558E+02 -0.86733040888E+03  0.10540600745E+04  0.90809972504E+02 0.  0.
         23    2    4    4    0    0 -0.10977629356E+03  0.31316341157E+03 -0.54400756494E+02  0.34825420261E+03  0.90550485126E+02 0.  0.
          2    1    3    3  502    0 -0.46764145547E+03 -0.30418360214E+03  0.18657716924E+03  0.58824079659E+03  0.00000000000E+00 0. -1.
         -2    1    3    3    0  502 -0.14551789784E+02 -0.19285947984E+02  0.29627282952E+02  0.38229285511E+02  0.00000000000E+00 0.  1.
         11    1    5    5    0    0  0.48474233430E+02  0.32446141911E+01 -0.12420745780E+03  0.13337080416E+03  0.00000000000E+00 0. -1.
        -11    1    5    5    0    0  0.54349530538E+03  0.70615243666E+01 -0.74312295107E+03  0.92068927034E+03  0.00000000000E+00 0.  1.
          3    1    6    6  503    0 -0.68610631019E+02  0.28253205935E+03 -0.32823989381E+02  0.29259049459E+03  0.00000000000E+00 0. -1.
         -3    1    6    6    0  503 -0.41165662538E+02  0.30631352220E+02 -0.21576767113E+02  0.55663708016E+02  0.00000000000E+00 0.  1.
<mgrwt>
<rscale>  0 0.19021562E+04</rscale>
<asrwt>0</asrwt>
<pdfrwt beam="1">  1        2 0.21033162E+00 0.19021562E+04</pdfrwt>
<pdfrwt beam="2">  1       -2 0.10178905E+00 0.19021562E+04</pdfrwt>
<totfact> 0.11208056E+01</totfact>
</mgrwt>
</event>
<event>
12    2  0.3561489E-008  0.2143976E+04  0.7818608E-02  0.8542115E-01
          1   -1    0    0  501    0  0.00000000000E+00  0.00000000000E+00  0.21274365038E+04  0.21274365038E+04  0.00000000000E+00 0. -1.
         -1   -1    0    0    0  501 -0.00000000000E+00 -0.00000000000E+00 -0.54016085306E+03  0.54016085306E+03  0.00000000000E+00 0.  1.
         23    2    1    2    0    0  0.84889399153E+03  0.14285015860E+03  0.88449995054E+03  0.12377063575E+04  0.92464523755E+02 0.  0.
        254    2    1    2    0    0 -0.84889399153E+03 -0.14285015860E+03  0.70277570018E+03  0.14298909994E+04  0.89981520804E+03 0.  0.
         23    2    4    4    0    0  0.55658261447E+02 -0.29551136166E+03  0.25777661112E+03  0.40629752851E+03  0.90576451118E+02 0.  0.
         23    2    4    4    0    0 -0.90455225298E+03  0.15266120306E+03  0.44499908907E+03  0.10235934708E+04  0.90549340159E+02 0.  0.
          2    1    3    3  502    0  0.75697549380E+03  0.12806947761E+03  0.74347770074E+03  0.10687248387E+04  0.00000000000E+00 0. -1.
         -2    1    3    3    0  502  0.91918497726E+02  0.14780680994E+02  0.14102224979E+03  0.16898151879E+03  0.00000000000E+00 0.  1.
         11    1    5    5    0    0  0.55269179081E+02 -0.19840971874E+03  0.22196248619E+03  0.30280099723E+03  0.00000000000E+00 0. -1.
        -11    1    5    5    0    0  0.38908236576E+00 -0.97101642922E+02  0.35814124924E+02  0.10349653128E+03  0.00000000000E+00 0.  1.
          3    1    6    6  503    0 -0.80430880390E+03  0.12111487510E+03  0.42068334206E+03  0.91572700042E+03  0.00000000000E+00 0. -1.
         -3    1    6    6    0  503 -0.10024344907E+03  0.31546327961E+02  0.24315747002E+02  0.10786647043E+03  0.00000000000E+00 0.  1.
<mgrwt>
<rscale>  0 0.21439757E+04</rscale>
<asrwt>0</asrwt>
<pdfrwt beam="1">  1        1 0.32729792E+00 0.21439757E+04</pdfrwt>
<pdfrwt beam="2">  1       -1 0.83101671E-01 0.21439757E+04</pdfrwt>
<totfact> 0.32151337E+00</totfact>
</mgrwt>
</event>
<event>
12    2  0.3561489E-008  0.2181754E+04  0.7818608E-02  0.8526061E-01
         -1   -1    0    0    0  501 -0.00000000000E+00  0.00000000000E+00  0.12141398779E+04  0.12141398779E+04  0.00000000000E+00 0.  1.
          1   -1    0    0  501    0  0.00000000000E+00 -0.00000000000E+00 -0.98012804717E+03  0.98012804717E+03  0.00000000000E+00 0. -1.
         23    2    1    2    0    0  0.89903763273E+03 -0.69646879576E+01  0.14489206920E+03  0.91547943975E+03  0.93764177317E+02 0.  0.
        254    2    1    2    0    0 -0.89903763273E+03  0.69646879576E+01  0.89119761532E+02  0.12787884853E+04  0.90500855597E+03 0.  0.
         23    2    4    4    0    0 -0.78612443421E+03  0.11177053841E+03 -0.29701885411E+03  0.85316597902E+03  0.95852536398E+02 0.  0.
         23    2    4    4    0    0 -0.11291319852E+03 -0.10480585045E+03  0.38613861564E+03  0.42562250631E+03  0.91202141984E+02 0.  0.
          3    1    3    3  502    0  0.27103279648E+03 -0.43960047397E+02  0.33703847472E+02  0.27663552170E+03  0.00000000000E+00 0. -1.
         -3    1    3    3    0  502  0.62800483625E+03  0.36995359440E+02  0.11118822173E+03  0.63884391805E+03  0.00000000000E+00 0.  1.
         11    1    5    5    0    0 -0.50637160073E+03  0.10964015562E+03 -0.22092137271E+03  0.56324010393E+03  0.00000000000E+00 0. -1.
        -11    1    5    5    0    0 -0.27975283348E+03  0.21303827914E+01 -0.76097481397E+02  0.28992587509E+03  0.00000000000E+00 0.  1.
          1    1    6    6  503    0 -0.66754976739E+02 -0.99501520756E+02  0.33848813760E+03  0.35906962952E+03  0.00000000000E+00 0. -1.
         -1    1    6    6    0  503 -0.46158221777E+02 -0.53043296971E+01  0.47650478044E+02  0.66552876790E+02  0.00000000000E+00 0.  1.
<mgrwt>
<rscale>  0 0.21817539E+04</rscale>
<asrwt>0</asrwt>
<pdfrwt beam="1">  1        1 0.15078893E+00 0.21817539E+04</pdfrwt>
<pdfrwt beam="2">  1       -1 0.18679075E+00 0.21817539E+04</pdfrwt>
<totfact> 0.26662576E+00</totfact>
</mgrwt>
</event>
<event>
12    2  0.3561489E-008  0.1636597E+04  0.7818608E-02  0.8798375E-01
         -2   -1    0    0    0  501 -0.00000000000E+00  0.00000000000E+00  0.79395089857E+03  0.79395089857E+03  0.00000000000E+00 0. -1.
          2   -1    0    0  501    0  0.00000000000E+00 -0.00000000000E+00 -0.84339301501E+03  0.84339301501E+03  0.00000000000E+00 0.  1.
         23    2    1    2    0    0 -0.66048276350E+02  0.19178922865E+02 -0.59038327906E+03  0.60113858213E+03  0.89916477025E+02 0.  0.
        254    2    1    2    0    0  0.66048276350E+02 -0.19178922865E+02  0.54094116263E+03  0.10362053314E+04  0.88112084393E+03 0.  0.
         23    2    4    4    0    0  0.68181478385E+02 -0.23852770002E+03 -0.15068422893E+03  0.30487685173E+03  0.93273684383E+02 0.  0.
         23    2    4    4    0    0 -0.21332020346E+01  0.21934877716E+03  0.69162539156E+03  0.73132847972E+03  0.91527189445E+02 0.  0.
          4    1    3    3  502    0  0.63407679544E-01 -0.38508934686E+01  0.21991746082E+01  0.44350614424E+01  0.00000000000E+00 0. -1.
         -4    1    3    3    0  502 -0.66111684030E+02  0.23029816334E+02 -0.59258245367E+03  0.59670352069E+03  0.00000000000E+00 0.  1.
         11    1    5    5    0    0  0.26220150986E+02 -0.53129312993E+02  0.45997131573E+01  0.59425395059E+02  0.00000000000E+00 0.  1.
        -11    1    5    5    0    0  0.41961327398E+02 -0.18539838703E+03 -0.15528394209E+03  0.24545145667E+03  0.00000000000E+00 0. -1.
          3    1    6    6  503    0  0.22992996473E+01  0.22532283367E+03  0.68582815489E+03  0.72189744715E+03  0.00000000000E+00 0. -1.
         -3    1    6    6    0  503 -0.44325016819E+01 -0.59740565162E+01  0.57972366673E+01  0.94310325731E+01  0.00000000000E+00 0.  1.
<mgrwt>
<rscale>  0 0.16365973E+04</rscale>
<asrwt>0</asrwt>
<pdfrwt beam="1">  1        2 0.12975277E+00 0.16365973E+04</pdfrwt>
<pdfrwt beam="2">  1       -2 0.12214629E+00 0.16365973E+04</pdfrwt>
<totfact> 0.15583381E+01</totfact>
</mgrwt>
</event>
<event>
12    2  0.3561489E-008  0.2040759E+04  0.7818608E-02  0.8587798E-01
         -2   -1    0    0    0  501 -0.00000000000E+00  0.00000000000E+00  0.38187965701E+03  0.38187965701E+03  0.00000000000E+00 0. -1.
          2   -1    0    0  501    0  0.00000000000E+00 -0.00000000000E+00 -0.27264461838E+04  0.27264461838E+04  0.00000000000E+00 0.  1.
         23    2    1    2    0    0  0.10110985095E+02 -0.23175358941E+03  0.25085593053E+03  0.35403096709E+03  0.92721462204E+02 0.  0.
        254    2    1    2    0    0 -0.10110985095E+02  0.23175358941E+03 -0.25954224573E+04  0.27542948737E+04  0.89225027946E+03 0.  0.
         23    2    4    4    0    0 -0.36918561893E+03 -0.73543838263E+02 -0.16401072260E+04  0.16853586732E+04  0.93677250036E+02 0.  0.
         23    2    4    4    0    0  0.35907463384E+03  0.30529742768E+03 -0.95531523131E+03  0.10689362005E+04  0.88635757889E+02 0.  0.
          1    1    3    3  502    0 -0.28017994994E+02 -0.19235808297E+03  0.20554189515E+03  0.28290300597E+03  0.00000000000E+00 0. -1.
         -1    1    3    3    0  502  0.38128980089E+02 -0.39395506448E+02  0.45314035375E+02  0.71127961118E+02  0.00000000000E+00 0.  1.
         11    1    5    5    0    0 -0.24077193707E+03 -0.85109165331E+02 -0.97634050047E+03  0.10091855471E+04  0.00000000000E+00 0.  1.
        -11    1    5    5    0    0 -0.12841368187E+03  0.11565327067E+02 -0.66376672549E+03  0.67617312602E+03  0.00000000000E+00 0. -1.
          3    1    6    6  503    0  0.71867626491E+02  0.98570361598E+02 -0.30667552182E+03  0.33004688698E+03  0.00000000000E+00 0. -1.
         -3    1    6    6    0  503  0.28720700735E+03  0.20672706608E+03 -0.64863970948E+03  0.73888931352E+03  0.00000000000E+00 0.  1.
<mgrwt>
<rscale>  0 0.20407590E+04</rscale>
<asrwt>0</asrwt>
<pdfrwt beam="1">  1        2 0.41945327E+00 0.20407590E+04</pdfrwt>
<pdfrwt beam="2">  1       -2 0.58750715E-01 0.20407590E+04</pdfrwt>
<totfact> 0.64271437E+00</totfact>
</mgrwt>
</event>
<event>
12    2  0.3561489E-008  0.1983436E+04  0.7818608E-02  0.8614404E-01
          2   -1    0    0  501    0  0.00000000000E+00  0.00000000000E+00  0.16554918065E+04  0.16554918065E+04  0.00000000000E+00 0.  1.
         -2   -1    0    0    0  501 -0.00000000000E+00 -0.00000000000E+00 -0.59408597202E+03  0.59408597202E+03  0.00000000000E+00 0. -1.
         23    2    1    2    0    0  0.71768539087E+03  0.31904921110E+03  0.38182219209E+03  0.87831461649E+03  0.93721181161E+02 0.  0.
        254    2    1    2    0    0 -0.71768539087E+03 -0.31904921110E+03  0.67958364241E+03  0.13712631620E+04  0.89535691944E+03 0.  0.
         23    2    4    4    0    0 -0.41777211068E+03  0.23910251015E+03  0.83498269572E+02  0.49671737839E+03  0.89736537425E+02 0.  0.
         23    2    4    4    0    0 -0.29991328019E+03 -0.55815172125E+03  0.59608537284E+03  0.87454578366E+03  0.89617165933E+02 0.  0.
          3    1    3    3  502    0  0.39028983268E+02  0.27230352699E+02  0.48206619238E+02  0.67739440368E+02  0.00000000000E+00 0.  1.
         -3    1    3    3    0  502  0.67865640760E+03  0.29181885840E+03  0.33361557285E+03  0.81057517612E+03  0.00000000000E+00 0. -1.
         11    1    5    5    0    0 -0.40947829025E+03  0.24197646781E+03  0.70200642237E+02  0.48078395494E+03  0.00000000000E+00 0.  1.
        -11    1    5    5    0    0 -0.82938204339E+01 -0.28739576620E+01  0.13297627334E+02  0.15933423447E+02  0.00000000000E+00 0. -1.
          1    1    6    6  503    0 -0.15765429109E+02 -0.39260111158E+02  0.75339559742E+02  0.86405754121E+02  0.00000000000E+00 0. -1.
         -1    1    6    6    0  503 -0.28414785108E+03 -0.51889161010E+03  0.52074581310E+03  0.78814002954E+03  0.00000000000E+00 0.  1.
<mgrwt>
<rscale>  0 0.19834359E+04</rscale>
<asrwt>0</asrwt>
<pdfrwt beam="1">  1        2 0.25469105E+00 0.19834359E+04</pdfrwt>
<pdfrwt beam="2">  1       -2 0.91397842E-01 0.19834359E+04</pdfrwt>
<totfact> 0.98509202E+00</totfact>
</mgrwt>
</event>
<event>
12    2  0.3561489E-008  0.2133614E+04  0.7818608E-02  0.8546579E-01
         -2   -1    0    0    0  501 -0.00000000000E+00  0.00000000000E+00  0.48766658458E+03  0.48766658458E+03  0.00000000000E+00 0.  1.
          2   -1    0    0  501    0  0.00000000000E+00 -0.00000000000E+00 -0.23337188747E+04  0.23337188747E+04  0.00000000000E+00 0. -1.
         23    2    1    2    0    0  0.47654374415E+02 -0.52855259234E+02  0.38630839232E+03  0.40336464235E+03  0.91674657845E+02 0.  0.
        254    2    1    2    0    0 -0.47654374415E+02  0.52855259234E+02 -0.22323606824E+04  0.24180208169E+04  0.92645876150E+03 0.  0.
         23    2    4    4    0    0  0.79364354563E+01 -0.15680616887E+03 -0.21659712490E+04  0.21733569228E+04  0.86009886291E+02 0.  0.
         23    2    4    4    0    0 -0.55590809871E+02  0.20966142810E+03 -0.66389433364E+02  0.24466389411E+03  0.91676669020E+02 0.  0.
          2    1    3    3  502    0  0.26540266590E+01 -0.68303735132E+02  0.21860463700E+03  0.22904242273E+03  0.00000000000E+00 0. -1.
         -2    1    3    3    0  502  0.45000347756E+02  0.15448475898E+02  0.16770375532E+03  0.17432221963E+03  0.00000000000E+00 0.  1.
         11    1    5    5    0    0  0.30200186116E+02 -0.62264391930E+02 -0.52906821133E+03  0.53357481011E+03  0.00000000000E+00 0.  1.
        -11    1    5    5    0    0 -0.22263750660E+02 -0.94541776940E+02 -0.16369030377E+04  0.16397821127E+04  0.00000000000E+00 0. -1.
          3    1    6    6  503    0 -0.15682305480E+02  0.55173680762E+02  0.22968499187E+02  0.61786905643E+02  0.00000000000E+00 0. -1.
         -3    1    6    6    0  503 -0.39908504391E+02  0.15448774734E+03 -0.89357932551E+02  0.18287698847E+03  0.00000000000E+00 0.  1.
<mgrwt>
<rscale>  0 0.21336136E+04</rscale>
<asrwt>0</asrwt>
<pdfrwt beam="1">  1        2 0.35903368E+00 0.21336136E+04</pdfrwt>
<pdfrwt beam="2">  1       -2 0.75025627E-01 0.21336136E+04</pdfrwt>
<totfact> 0.63610072E+00</totfact>
</mgrwt>
</event>
<event>
12    2  0.3561489E-008  0.1880777E+04  0.7818608E-02  0.8664484E-01
          2   -1    0    0  501    0  0.00000000000E+00  0.00000000000E+00  0.31005931364E+04  0.31005931364E+04  0.00000000000E+00 0.  1.
         -2   -1    0    0    0  501 -0.00000000000E+00 -0.00000000000E+00 -0.28521343824E+03  0.28521343824E+03  0.00000000000E+00 0. -1.
         23    2    1    2    0    0 -0.38194954677E+02 -0.26802075158E+03 -0.11638039650E+03  0.31042153039E+03  0.97586638431E+02 0.  0.
        254    2    1    2    0    0  0.38194954677E+02  0.26802075158E+03  0.29317600946E+04  0.30753850442E+04  0.88852796232E+03 0.  0.
         23    2    4    4    0    0 -0.35462096325E+03 -0.21893914405E+02  0.18435320295E+04  0.18796173558E+04  0.90087122050E+02 0.  0.
         23    2    4    4    0    0  0.39281591793E+03  0.28991466598E+03  0.10882280652E+04  0.11957676884E+04  0.85236047838E+02 0.  0.
          4    1    3    3  502    0 -0.51254028135E+02 -0.26429501809E+03 -0.95783080870E+02  0.28575029408E+03  0.00000000000E+00 0. -1.
         -4    1    3    3    0  502  0.13059073458E+02 -0.37257334881E+01 -0.20597315635E+02  0.24671236308E+02  0.00000000000E+00 0.  1.
         11    1    5    5    0    0 -0.37505605788E+02  0.25474407130E+02  0.26502404927E+03  0.26887425049E+03  0.00000000000E+00 0. -1.
        -11    1    5    5    0    0 -0.31711535746E+03 -0.47368321536E+02  0.15785079802E+04  0.16107431053E+04  0.00000000000E+00 0.  1.
          3    1    6    6  503    0  0.32834106106E+03  0.22272505238E+03  0.94523799805E+03  0.10251288574E+04  0.00000000000E+00 0.  1.
         -3    1    6    6    0  503  0.64474856870E+02  0.67189613607E+02  0.14299006712E+03  0.17063883099E+03  0.00000000000E+00 0. -1.
<mgrwt>
<rscale>  0 0.18807773E+04</rscale>
<asrwt>0</asrwt>
<pdfrwt beam="1">  1        2 0.47701430E+00 0.18807773E+04</pdfrwt>
<pdfrwt beam="2">  1       -2 0.43878993E-01 0.18807773E+04</pdfrwt>
<totfact> 0.69730608E+00</totfact>
</mgrwt>
</event>
<event>
12    2  0.3561489E-008  0.1889271E+04  0.7818608E-02  0.8660215E-01
          1   -1    0    0  501    0  0.00000000000E+00  0.00000000000E+00  0.19587461778E+04  0.19587461778E+04  0.00000000000E+00 0. -1.
         -1   -1    0    0    0  501 -0.00000000000E+00 -0.00000000000E+00 -0.45556505293E+03  0.45556505293E+03  0.00000000000E+00 0.  1.
         23    2    1    2    0    0  0.58240970942E+03  0.35293597759E+03  0.29416574075E+03  0.74728597505E+03  0.90210706556E+02 0.  0.
        254    2    1    2    0    0 -0.58240970942E+03 -0.35293597759E+03  0.12090153842E+04  0.16670252557E+04  0.92384529559E+03 0.  0.
         23    2    4    4    0    0 -0.10526142849E+03  0.30137409836E+03  0.36917966378E+03  0.49650253108E+03  0.91185655305E+02 0.  0.
         23    2    4    4    0    0 -0.47714828092E+03 -0.65431007595E+03  0.83983572038E+03  0.11705227246E+04  0.94906555113E+02 0.  0.
          4    1    3    3  502    0  0.45023841877E+03  0.25433049424E+03  0.18352844320E+03  0.54870877841E+03  0.00000000000E+00 0.  1.
         -4    1    3    3    0  502  0.13217129064E+03  0.98605483355E+02  0.11063729755E+03  0.19857719665E+03  0.00000000000E+00 0. -1.
         11    1    5    5    0    0 -0.94666131055E+02  0.22343734331E+03  0.32714788697E+03  0.40732255364E+03  0.00000000000E+00 0. -1.
        -11    1    5    5    0    0 -0.10595297437E+02  0.77936755049E+02  0.42031776815E+02  0.89179977447E+02  0.00000000000E+00 0.  1.
          4    1    6    6  503    0 -0.35408680439E+03 -0.54949395490E+03  0.67494145794E+03  0.93961004846E+03  0.00000000000E+00 0. -1.
         -4    1    6    6    0  503 -0.12306147653E+03 -0.10481612105E+03  0.16489426244E+03  0.23091267618E+03  0.00000000000E+00 0.  1.
<mgrwt>
<rscale>  0 0.18892711E+04</rscale>
<asrwt>0</asrwt>
<pdfrwt beam="1">  1        1 0.30134556E+00 0.18892711E+04</pdfrwt>
<pdfrwt beam="2">  1       -1 0.70086932E-01 0.18892711E+04</pdfrwt>
<totfact> 0.61255402E+00</totfact>
</mgrwt>
</event>
<event>
12    2  0.3561489E-008  0.1071793E+04  0.7818608E-02  0.9233129E-01
         -2   -1    0    0    0  501 -0.00000000000E+00  0.00000000000E+00  0.17279069688E+03  0.17279069688E+03  0.00000000000E+00 0.  1.
          2   -1    0    0  501    0  0.00000000000E+00 -0.00000000000E+00 -0.16620391632E+04  0.16620391632E+04  0.00000000000E+00 0. -1.
         23    2    1    2    0    0 -0.51883866006E+02  0.70101247535E+01 -0.13747710274E+02  0.10516786202E+03  0.90167634232E+02 0.  0.
        254    2    1    2    0    0  0.51883866006E+02 -0.70101247535E+01 -0.14755007560E+04  0.17296619980E+04  0.90104776180E+03 0.  0.
         23    2    4    4    0    0  0.31244924836E+01 -0.90484105704E+01  0.10886714063E+03  0.14203709528E+03  0.90724009722E+02 0.  0.
         23    2    4    4    0    0  0.48759373522E+02  0.20382858169E+01 -0.15843678966E+04  0.15876249027E+04  0.89160354525E+02 0.  0.
          4    1    3    3  502    0  0.95114282416E+00 -0.34081050808E+02 -0.17117494976E+02  0.38150115742E+02  0.00000000000E+00 0. -1.
         -4    1    3    3    0  502 -0.52835008830E+02  0.41091175562E+02  0.33697847019E+01  0.67017746277E+02  0.00000000000E+00 0.  1.
         11    1    5    5    0    0 -0.18701575333E+02 -0.13303475613E+02  0.11633684888E+03  0.11857906135E+03  0.00000000000E+00 0.  1.
        -11    1    5    5    0    0  0.21826067816E+02  0.42550650428E+01 -0.74697082468E+01  0.23458033936E+02  0.00000000000E+00 0. -1.
          4    1    6    6  503    0 -0.13530346091E+02  0.26490722375E+02 -0.28826209825E+03  0.28979279826E+03  0.00000000000E+00 0. -1.
         -4    1    6    6    0  503  0.62289719613E+02 -0.24452436558E+02 -0.12961057984E+04  0.12978321045E+04  0.00000000000E+00 0.  1.
<mgrwt>
<rscale>  0 0.10717927E+04</rscale>
<asrwt>0</asrwt>
<pdfrwt beam="1">  1        2 0.25569833E+00 0.10717927E+04</pdfrwt>
<pdfrwt beam="2">  1       -2 0.26583185E-01 0.10717927E+04</pdfrwt>
<totfact> 0.13131167E+02</totfact>
</mgrwt>
</event>
<event>
12    2  0.3561489E-008  0.1247117E+04  0.7818608E-02  0.9072586E-01
         -1   -1    0    0    0  501 -0.00000000000E+00  0.00000000000E+00  0.14280742320E+03  0.14280742320E+03  0.00000000000E+00 0.  1.
          1   -1    0    0  501    0  0.00000000000E+00 -0.00000000000E+00 -0.27227252580E+04  0.27227252580E+04  0.00000000000E+00 0. -1.
         23    2    1    2    0    0  0.78531353986E+02  0.26687871835E+03 -0.80257854326E+03  0.85456398059E+03  0.93572725493E+02 0.  0.
        254    2    1    2    0    0 -0.78531353986E+02 -0.26687871835E+03 -0.17773392915E+04  0.20109687006E+04  0.89870391883E+03 0.  0.
         23    2    4    4    0    0  0.22420556587E+03 -0.21175890870E+03 -0.15355435562E+03  0.35581549701E+03  0.88970537813E+02 0.  0.
         23    2    4    4    0    0 -0.30273691986E+03 -0.55119809653E+02 -0.16237849359E+04  0.16551532036E+04  0.90370200965E+02 0.  0.
          2    1    3    3  502    0  0.61482450041E+02  0.20887021922E+03 -0.49007505861E+03  0.53626525452E+03  0.00000000000E+00 0.  1.
         -2    1    3    3    0  502  0.17048903945E+02  0.58008499134E+02 -0.31250348465E+03  0.31829872607E+03  0.00000000000E+00 0. -1.
         11    1    5    5    0    0  0.22130171335E+03 -0.21053284197E+03 -0.16274530408E+03  0.34609906079E+03  0.00000000000E+00 0.  1.
        -11    1    5    5    0    0  0.29038525260E+01 -0.12260667328E+01  0.91909484647E+01  0.97164362194E+01  0.00000000000E+00 0. -1.
          3    1    6    6  503    0 -0.51236963993E+02  0.21030722301E+02 -0.21162164459E+03  0.21874925879E+03  0.00000000000E+00 0. -1.
         -3    1    6    6    0  503 -0.25149995587E+03 -0.76150531954E+02 -0.14121632913E+04  0.14364039448E+04  0.00000000000E+00 0.  1.
<mgrwt>
<rscale>  0 0.12471173E+04</rscale>
<asrwt>0</asrwt>
<pdfrwt beam="1">  1        1 0.41888080E+00 0.12471173E+04</pdfrwt>
<pdfrwt beam="2">  1       -1 0.21970373E-01 0.12471173E+04</pdfrwt>
<totfact> 0.16416155E+01</totfact>
</mgrwt>
</event>
<event>
12    2  0.3561489E-008  0.1644130E+04  0.7818608E-02  0.8793887E-01
         -1   -1    0    0    0  501 -0.00000000000E+00  0.00000000000E+00  0.29541641527E+04  0.29541641527E+04  0.00000000000E+00 0.  1.
          1   -1    0    0  501    0  0.00000000000E+00 -0.00000000000E+00 -0.22875871848E+03  0.22875871848E+03  0.00000000000E+00 0. -1.
         23    2    1    2    0    0  0.48268834107E+03  0.21926604610E+03  0.13520652978E+04  0.14551250868E+04  0.90789950796E+02 0.  0.
        254    2    1    2    0    0 -0.48268834107E+03 -0.21926604610E+03  0.13733401364E+04  0.17277977844E+04  0.90451999415E+03 0.  0.
         23    2    4    4    0    0 -0.49396491791E+03 -0.50639955950E+03  0.74821276072E+03  0.10337787320E+04  0.91838321849E+02 0.  0.
         23    2    4    4    0    0  0.11276576837E+02  0.28713351340E+03  0.62512737570E+03  0.69401905242E+03  0.91133932038E+02 0.  0.
          4    1    3    3  502    0  0.10951033715E+03  0.47785083306E+02  0.21212499973E+03  0.24346035333E+03  0.00000000000E+00 0. -1.
         -4    1    3    3    0  502  0.37317800392E+03  0.17148096280E+03  0.11399402980E+04  0.12116647335E+04  0.00000000000E+00 0.  1.
         11    1    5    5    0    0 -0.34874214632E+03 -0.40814501073E+03  0.58890446118E+03  0.79687633846E+03  0.00000000000E+00 0.  1.
        -11    1    5    5    0    0 -0.14522277159E+03 -0.98254548770E+02  0.15930829954E+03  0.23690239350E+03  0.00000000000E+00 0. -1.
          1    1    6    6  503    0 -0.18984262014E+02  0.88018584119E+01  0.55317742001E+02  0.59143279380E+02  0.00000000000E+00 0. -1.
         -1    1    6    6    0  503  0.30260838851E+02  0.27833165498E+03  0.56980963370E+03  0.63487577304E+03  0.00000000000E+00 0.  1.
<mgrwt>
<rscale>  0 0.16441299E+04</rscale>
<asrwt>0</asrwt>
<pdfrwt beam="1">  1        1 0.35193651E-01 0.16441299E+04</pdfrwt>
<pdfrwt beam="2">  1       -1 0.45448677E+00 0.16441299E+04</pdfrwt>
<totfact> 0.36100637E-01</totfact>
</mgrwt>
</event>
<event>
12    2  0.3561489E-008  0.3027401E+04  0.7818608E-02  0.8235949E-01
         -1   -1    0    0    0  501 -0.00000000000E+00  0.00000000000E+00  0.12457021575E+04  0.12457021575E+04  0.00000000000E+00 0.  1.
          1   -1    0    0  501    0  0.00000000000E+00 -0.00000000000E+00 -0.18393560059E+04  0.18393560059E+04  0.00000000000E+00 0. -1.
         23    2    1    2    0    0 -0.50032352242E+03 -0.16396231935E+03  0.10322255968E+04  0.11622033889E+04  0.89553142313E+02 0.  0.
        254    2    1    2    0    0  0.50032352242E+03  0.16396231935E+03 -0.16258794452E+04  0.19228547745E+04  0.88129407370E+03 0.  0.
         23    2    4    4    0    0  0.39118209375E+03  0.78173563662E+01 -0.16607376009E+04  0.17088821017E+04  0.95624877237E+02 0.  0.
         23    2    4    4    0    0  0.10914142867E+03  0.15614496299E+03  0.34858155682E+02  0.21397267279E+03  0.90973143090E+02 0.  0.
          4    1    3    3  502    0 -0.25990760731E+03 -0.47972695009E+02  0.45378100014E+03  0.52513859113E+03  0.00000000000E+00 0.  1.
         -4    1    3    3    0  502 -0.24041591510E+03 -0.11598962434E+03  0.57844459664E+03  0.63706479778E+03  0.00000000000E+00 0. -1.
         11    1    5    5    0    0  0.28556885389E+02 -0.25836029321E+02 -0.14888535265E+03  0.15378505892E+03  0.00000000000E+00 0. -1.
        -11    1    5    5    0    0  0.36262520836E+03  0.33653385687E+02 -0.15118522482E+04  0.15550970428E+04  0.00000000000E+00 0.  1.
          3    1    6    6  503    0 -0.13776281193E+02  0.11320354843E+02 -0.75136423950E+01  0.19349190663E+02  0.00000000000E+00 0. -1.
         -3    1    6    6    0  503  0.12291770986E+03  0.14482460814E+03  0.42371798077E+02  0.19462348212E+03  0.00000000000E+00 0.  1.
<mgrwt>
<rscale>  0 0.30274014E+04</rscale>
<asrwt>0</asrwt>
<pdfrwt beam="1">  1        1 0.28297785E+00 0.30274014E+04</pdfrwt>
<pdfrwt beam="2">  1       -1 0.19164649E+00 0.30274014E+04</pdfrwt>
<totfact> 0.55965658E-01</totfact>
</mgrwt>
</event>
<event>
12    2  0.3561489E-008  0.2328859E+04  0.7818608E-02  0.8466628E-01
          2   -1    0    0  501    0  0.00000000000E+00  0.00000000000E+00  0.53383134642E+04  0.53383134642E+04  0.00000000000E+00 0. -1.
         -2   -1    0    0    0  501 -0.00000000000E+00 -0.00000000000E+00 -0.25399344633E+03  0.25399344633E+03  0.00000000000E+00 0.  1.
         23    2    1    2    0    0  0.98037180165E+03 -0.12298698871E+03  0.22454182318E+04  0.24549059806E+04  0.91682434759E+02 0.  0.
        254    2    1    2    0    0 -0.98037180165E+03  0.12298698871E+03  0.28389017860E+04  0.31374009299E+04  0.89870271809E+03 0.  0.
         23    2    4    4    0    0 -0.11416370783E+04  0.85234741951E+02  0.24071744527E+04  0.26670853238E+04  0.90857574704E+02 0.  0.
         23    2    4    4    0    0  0.16126527661E+03  0.37752246759E+02  0.43172733331E+03  0.47031560613E+03  0.85886887637E+02 0.  0.
          3    1    3    3  502    0  0.20366306934E+03 -0.43543512363E+02  0.55848350575E+03  0.59605243853E+03  0.00000000000E+00 0. -1.
         -3    1    3    3    0  502  0.77670873231E+03 -0.79443476347E+02  0.16869347261E+04  0.18588535420E+04  0.00000000000E+00 0.  1.
         11    1    5    5    0    0 -0.59065773895E+03  0.38990374822E+02  0.13491396534E+04  0.14732870116E+04  0.00000000000E+00 0.  1.
        -11    1    5    5    0    0 -0.55097933930E+03  0.46244367129E+02  0.10580347993E+04  0.11937983122E+04  0.00000000000E+00 0. -1.
          1    1    6    6  503    0  0.42824687475E+02  0.23086513487E+02  0.23687064761E+03  0.24181531106E+03  0.00000000000E+00 0. -1.
         -1    1    6    6    0  503  0.11844058913E+03  0.14665733272E+02  0.19485668569E+03  0.22850029507E+03  0.00000000000E+00 0.  1.
<mgrwt>
<rscale>  0 0.23288595E+04</rscale>
<asrwt>0</asrwt>
<pdfrwt beam="1">  1        2 0.82127891E+00 0.23288595E+04</pdfrwt>
<pdfrwt beam="2">  1       -2 0.39075919E-01 0.23288595E+04</pdfrwt>
<totfact> 0.64787229E-02</totfact>
</mgrwt>
</event>
<event>
12    2  0.3561489E-008  0.1219210E+04  0.7818608E-02  0.9096206E-01
         -1   -1    0    0    0  501 -0.00000000000E+00  0.00000000000E+00  0.57477468928E+03  0.57477468928E+03  0.00000000000E+00 0.  1.
          1   -1    0    0  501    0  0.00000000000E+00 -0.00000000000E+00 -0.64654627119E+03  0.64654627119E+03  0.00000000000E+00 0. -1.
         23    2    1    2    0    0 -0.32891087065E+01  0.24955382703E+03  0.75304170666E+02  0.27658249988E+03  0.92407955807E+02 0.  0.
        254    2    1    2    0    0  0.32891087065E+01 -0.24955382703E+03 -0.14707575258E+03  0.94473846059E+03  0.89922830866E+03 0.  0.
         23    2    4    4    0    0  0.36942355945E+03  0.96231069631E+02 -0.17933120965E+03  0.43183170421E+03  0.92653941978E+02 0.  0.
         23    2    4    4    0    0 -0.36613445074E+03 -0.34578489666E+03  0.32255457070E+02  0.51290675639E+03  0.91713114954E+02 0.  0.
          3    1    3    3  502    0 -0.15137681477E+02  0.13327872242E+02 -0.13131824702E+02  0.24067122782E+02  0.00000000000E+00 0. -1.
         -3    1    3    3    0  502  0.11848572770E+02  0.23622595479E+03  0.88435995368E+02  0.25251537709E+03  0.00000000000E+00 0.  1.
         11    1    5    5    0    0  0.32354925603E+03  0.11276463869E+03 -0.16873344337E+03  0.38193056925E+03  0.00000000000E+00 0.  1.
        -11    1    5    5    0    0  0.45874303418E+02 -0.16533569054E+02 -0.10597766282E+02  0.49901134956E+02  0.00000000000E+00 0. -1.
          2    1    6    6  503    0 -0.15082486489E+03 -0.17677864205E+03  0.53201687529E+02  0.23838885820E+03  0.00000000000E+00 0. -1.
         -2    1    6    6    0  503 -0.21530958585E+03 -0.16900625461E+03 -0.20946230458E+02  0.27451789819E+03  0.00000000000E+00 0.  1.
<mgrwt>
<rscale>  0 0.12192103E+04</rscale>
<asrwt>0</asrwt>
<pdfrwt beam="1">  1        1 0.99468657E-01 0.12192103E+04</pdfrwt>
<pdfrwt beam="2">  1       -1 0.88426875E-01 0.12192103E+04</pdfrwt>
<totfact> 0.38123605E+01</totfact>
</mgrwt>
</event>
<event>
12    2  0.3561489E-008  0.2487269E+04  0.7818608E-02  0.8407535E-01
          2   -1    0    0  501    0  0.00000000000E+00  0.00000000000E+00  0.15865824558E+04  0.15865824558E+04  0.00000000000E+00 0. -1.
         -2   -1    0    0    0  501 -0.00000000000E+00 -0.00000000000E+00 -0.97481621316E+03  0.97481621316E+03  0.00000000000E+00 0.  1.
         23    2    1    2    0    0  0.97741126809E+03  0.32195332558E+03  0.59839865593E+03  0.11936769853E+04  0.88300979476E+02 0.  0.
        254    2    1    2    0    0 -0.97741126809E+03 -0.32195332558E+03  0.13367586723E+02  0.13677216837E+04  0.90083138308E+03 0.  0.
         23    2    4    4    0    0 -0.65338667236E+03 -0.61555295668E+03  0.11651677845E+03  0.90906169173E+03  0.83650544683E+02 0.  0.
         23    2    4    4    0    0 -0.32402459574E+03  0.29359963110E+03 -0.10314919172E+03  0.45865999193E+03  0.92393454414E+02 0.  0.
          3    1    3    3  502    0  0.94158641914E+03  0.29289246464E+03  0.56265728567E+03  0.11353211888E+04  0.00000000000E+00 0. -1.
         -3    1    3    3    0  502  0.35824848952E+02  0.29060860936E+02  0.35741370260E+02  0.58355796531E+02  0.00000000000E+00 0.  1.
         11    1    5    5    0    0 -0.31829291114E+03 -0.30737352279E+03  0.15629006916E+02  0.44275628246E+03  0.00000000000E+00 0. -1.
        -11    1    5    5    0    0 -0.33509376121E+03 -0.30817943389E+03  0.10088777153E+03  0.46630540928E+03  0.00000000000E+00 0.  1.
          1    1    6    6  503    0 -0.53975828678E+02  0.42463096091E+02  0.17100052611E+02  0.70773698578E+02  0.00000000000E+00 0. -1.
         -1    1    6    6    0  503 -0.27004876706E+03  0.25113653501E+03 -0.12024924434E+03  0.38788629335E+03  0.00000000000E+00 0.  1.
<mgrwt>
<rscale>  0 0.24872686E+04</rscale>
<asrwt>0</asrwt>
<pdfrwt beam="1">  1        2 0.24408961E+00 0.24872686E+04</pdfrwt>
<pdfrwt beam="2">  1       -2 0.14997173E+00 0.24872686E+04</pdfrwt>
<totfact> 0.30372870E+00</totfact>
</mgrwt>
</event>
<event>
12    2  0.3561489E-008  0.1152697E+04  0.7818608E-02  0.9155299E-01
         -1   -1    0    0    0  501 -0.00000000000E+00  0.00000000000E+00  0.72077559174E+03  0.72077559174E+03  0.00000000000E+00 0.  1.
          1   -1    0    0  501    0  0.00000000000E+00 -0.00000000000E+00 -0.46086166302E+03  0.46086166302E+03  0.00000000000E+00 0. -1.
         23    2    1    2    0    0  0.16110147781E+03  0.50035906865E+02 -0.57273412694E+02  0.20051997831E+03  0.92036621900E+02 0.  0.
        254    2    1    2    0    0 -0.16110147781E+03 -0.50035906865E+02  0.31718734141E+03  0.98111727645E+03  0.91297646326E+03 0.  0.
         23    2    4    4    0    0 -0.69089919991E+01 -0.46622034438E+03  0.17984906538E+03  0.50770057653E+03  0.89470919317E+02 0.  0.
         23    2    4    4    0    0 -0.15419248581E+03  0.41618443751E+03  0.13733827603E+03  0.47341669992E+03  0.90976705765E+02 0.  0.
          1    1    3    3  502    0  0.12106313184E+03  0.34807847733E+02 -0.82715702409E+02  0.15069756329E+03  0.00000000000E+00 0. -1.
         -1    1    3    3    0  502  0.40038345972E+02  0.15228059132E+02  0.25442289715E+02  0.49822415026E+02  0.00000000000E+00 0.  1.
         11    1    5    5    0    0  0.43038952947E+01 -0.36349959600E+03  0.17701077242E+03  0.40433067328E+03  0.00000000000E+00 0. -1.
        -11    1    5    5    0    0 -0.11212887294E+02 -0.10272074838E+03  0.28382929607E+01  0.10336990324E+03  0.00000000000E+00 0.  1.
          1    1    6    6  503    0 -0.12655479236E+03  0.38584964298E+03  0.14591265861E+03  0.43149341409E+03  0.00000000000E+00 0. -1.
         -1    1    6    6    0  503 -0.27637693451E+02  0.30334794530E+02 -0.85743825753E+01  0.41923285833E+02  0.00000000000E+00 0.  1.
<mgrwt>
<rscale>  0 0.11526974E+04</rscale>
<asrwt>0</asrwt>
<pdfrwt beam="1">  1        1 0.70901794E-01 0.11526974E+04</pdfrwt>
<pdfrwt beam="2">  1       -1 0.11088855E+00 0.11526974E+04</pdfrwt>
<totfact> 0.36873878E+01</totfact>
</mgrwt>
</event>
<event>
12    2  0.3561489E-008  0.1860869E+04  0.7818608E-02  0.8674583E-01
         -1   -1    0    0    0  501 -0.00000000000E+00  0.00000000000E+00  0.10001705140E+04  0.10001705140E+04  0.00000000000E+00 0.  1.
          1   -1    0    0  501    0  0.00000000000E+00 -0.00000000000E+00 -0.86556055458E+03  0.86556055458E+03  0.00000000000E+00 0. -1.
         23    2    1    2    0    0 -0.28206486145E+03 -0.64544566116E+03 -0.44234580397E+02  0.71141298037E+03  0.89392633680E+02 0.  0.
        254    2    1    2    0    0  0.28206486145E+03  0.64544566116E+03  0.17884453978E+03  0.11543180882E+04  0.89683007962E+03 0.  0.
         23    2    4    4    0    0  0.54241331953E+03  0.38091419134E+03 -0.10731526018E+03  0.67672905182E+03  0.84485585465E+02 0.  0.
         23    2    4    4    0    0 -0.26034845807E+03  0.26453146982E+03  0.28615979996E+03  0.47758903635E+03  0.91900154438E+02 0.  0.
          1    1    3    3  502    0 -0.24188044011E+03 -0.53781043136E+03 -0.69483289475E+02  0.59377953393E+03  0.00000000000E+00 0. -1.
         -1    1    3    3    0  502 -0.40184421339E+02 -0.10763522980E+03  0.25248709078E+02  0.11763344644E+03  0.00000000000E+00 0.  1.
         11    1    5    5    0    0  0.20232088042E+02  0.77578046338E+00  0.56743385340E+01  0.21027062079E+02  0.00000000000E+00 0.  1.
        -11    1    5    5    0    0  0.52218123148E+03  0.38013841088E+03 -0.11298959872E+03  0.65570198974E+03  0.00000000000E+00 0. -1.
          4    1    6    6  503    0 -0.19203935211E+03  0.13586443450E+03  0.15627066658E+03  0.28241596725E+03  0.00000000000E+00 0. -1.
         -4    1    6    6    0  503 -0.68309105959E+02  0.12866703532E+03  0.12988913338E+03  0.19517306910E+03  0.00000000000E+00 0.  1.
<mgrwt>
<rscale>  0 0.18608688E+04</rscale>
<asrwt>0</asrwt>
<pdfrwt beam="1">  1        1 0.13316316E+00 0.18608688E+04</pdfrwt>
<pdfrwt beam="2">  1       -1 0.15387239E+00 0.18608688E+04</pdfrwt>
<totfact> 0.59395484E+00</totfact>
</mgrwt>
</event>
<event>
12    2  0.3561489E-008  0.1446071E+04  0.7818608E-02  0.8921129E-01
          1   -1    0    0  501    0  0.00000000000E+00  0.00000000000E+00  0.63915523625E+03  0.63915523625E+03  0.00000000000E+00 0. -1.
         -1   -1    0    0    0  501 -0.00000000000E+00 -0.00000000000E+00 -0.81792416435E+03  0.81792416435E+03  0.00000000000E+00 0.  1.
         23    2    1    2    0    0 -0.30989326222E+03 -0.68931179794E+02 -0.36120260884E+03  0.48944906919E+03  0.91146723392E+02 0.  0.
        254    2    1    2    0    0  0.30989326222E+03  0.68931179794E+02  0.18243368073E+03  0.96763033141E+03  0.89567911044E+03 0.  0.
         23    2    4    4    0    0  0.32071079399E+03 -0.14600621382E+03  0.47082417894E+03  0.59498340255E+03  0.90313974463E+02 0.  0.
         23    2    4    4    0    0 -0.10817531768E+02  0.21493739361E+03 -0.28839049821E+03  0.37264692885E+03  0.96858411929E+02 0.  0.
          2    1    3    3  502    0 -0.35780095166E+02 -0.26013720650E+02 -0.17108677253E+02  0.47430324788E+02  0.00000000000E+00 0. -1.
         -2    1    3    3    0  502 -0.27411316705E+03 -0.42917459144E+02 -0.34409393158E+03  0.44201874441E+03  0.00000000000E+00 0.  1.
         11    1    5    5    0    0  0.17094968621E+03 -0.91272564625E+02  0.32774190750E+03  0.38074825568E+03  0.00000000000E+00 0.  1.
        -11    1    5    5    0    0  0.14976110777E+03 -0.54733649190E+02  0.14308227144E+03  0.21423514687E+03  0.00000000000E+00 0. -1.
          3    1    6    6  503    0 -0.43727260686E+02  0.47155875499E+02 -0.92127743184E+02  0.11235333099E+03  0.00000000000E+00 0. -1.
         -3    1    6    6    0  503  0.32909728917E+02  0.16778151811E+03 -0.19626275502E+03  0.26029359786E+03  0.00000000000E+00 0.  1.
<mgrwt>
<rscale>  0 0.14460712E+04</rscale>
<asrwt>0</asrwt>
<pdfrwt beam="1">  1        1 0.98331575E-01 0.14460712E+04</pdfrwt>
<pdfrwt beam="2">  1       -1 0.12583449E+00 0.14460712E+04</pdfrwt>
<totfact> 0.16702260E+01</totfact>
</mgrwt>
</event>
<event>
12    2  0.3561489E-008  0.1672890E+04  0.7818608E-02  0.8776979E-01
          2   -1    0    0  501    0  0.00000000000E+00  0.00000000000E+00  0.45487883615E+03  0.45487883615E+03  0.00000000000E+00 0. -1.
         -2   -1    0    0    0  501 -0.00000000000E+00 -0.00000000000E+00 -0.15380806802E+04  0.15380806802E+04  0.00000000000E+00 0.  1.
         23    2    1    2    0    0  0.38508453293E+02 -0.53957837865E+03 -0.71757657834E+02  0.55311355200E+03  0.90320054582E+02 0.  0.
        254    2    1    2    0    0 -0.38508453293E+02  0.53957837865E+03 -0.10114441862E+04  0.14398459643E+04  0.87035012009E+03 0.  0.
         23    2    4    4    0    0 -0.26799395233E+03 -0.10084907028E+03 -0.14169975700E+03  0.33179991392E+03  0.89560416953E+02 0.  0.
         23    2    4    4    0    0  0.22948549904E+03  0.64042744893E+03 -0.86974442918E+03  0.11080460504E+04  0.92194176051E+02 0.  0.
          3    1    3    3  502    0  0.24003715445E+02 -0.68698003991E+02 -0.34511763656E+02  0.80539778607E+02  0.00000000000E+00 0. -1.
         -3    1    3    3    0  502  0.14504737848E+02 -0.47088037466E+03 -0.37245894177E+02  0.47257377339E+03  0.00000000000E+00 0.  1.
         11    1    5    5    0    0 -0.11517968588E+03 -0.74516066859E+02 -0.29286959044E+02  0.14027376886E+03  0.00000000000E+00 0. -1.
        -11    1    5    5    0    0 -0.15281426645E+03 -0.26333003418E+02 -0.11241279795E+03  0.19152614506E+03  0.00000000000E+00 0.  1.
          3    1    6    6  503    0 -0.81802827754E+01  0.12108091088E+02 -0.15430341715E+02  0.21251313878E+02  0.00000000000E+00 0. -1.
         -3    1    6    6    0  503  0.23766578181E+03  0.62831935784E+03 -0.85431408747E+03  0.10867947365E+04  0.00000000000E+00 0.  1.
<mgrwt>
<rscale>  0 0.16728901E+04</rscale>
<asrwt>0</asrwt>
<pdfrwt beam="1">  1        2 0.69981359E-01 0.16728901E+04</pdfrwt>
<pdfrwt beam="2">  1       -2 0.23662780E+00 0.16728901E+04</pdfrwt>
<totfact> 0.50901956E+00</totfact>
</mgrwt>
</event>
<event>
12    2  0.3561489E-008  0.2135439E+04  0.7818608E-02  0.8545791E-01
          2   -1    0    0  501    0  0.00000000000E+00  0.00000000000E+00  0.46700905218E+03  0.46700905218E+03  0.00000000000E+00 0.  1.
         -2   -1    0    0    0  501 -0.00000000000E+00 -0.00000000000E+00 -0.24411185106E+04  0.24411185106E+04  0.00000000000E+00 0. -1.
         23    2    1    2    0    0 -0.44644820154E+03 -0.66116577395E+03 -0.31931526970E+03  0.86424457616E+03  0.92196901555E+02 0.  0.
        254    2    1    2    0    0  0.44644820154E+03  0.66116577395E+03 -0.16547941887E+04  0.20438829866E+04  0.89591164667E+03 0.  0.
         23    2    4    4    0    0 -0.25380465352E+03  0.29099854195E+03 -0.46188026074E+03  0.60899252159E+03  0.91877976317E+02 0.  0.
         23    2    4    4    0    0  0.70025285506E+03  0.37016723199E+03 -0.11929139279E+04  0.14348904650E+04  0.92136672208E+02 0.  0.
          2    1    3    3  502    0 -0.83141205778E+02 -0.14425931436E+03 -0.29339054858E+02  0.16906800412E+03  0.00000000000E+00 0. -1.
         -2    1    3    3    0  502 -0.36330699576E+03 -0.51690645959E+03 -0.28997621484E+03  0.69517657203E+03  0.00000000000E+00 0.  1.
         11    1    5    5    0    0 -0.16052288402E+03  0.22038604382E+03 -0.37320619293E+03  0.46219094219E+03  0.00000000000E+00 0. -1.
        -11    1    5    5    0    0 -0.93281769495E+02  0.70612498133E+02 -0.88674067810E+02  0.14680157940E+03  0.00000000000E+00 0.  1.
          4    1    6    6  503    0  0.48784074790E+03  0.30417520511E+03 -0.85070619551E+03  0.10267483537E+04  0.00000000000E+00 0.  1.
         -4    1    6    6    0  503  0.21241210717E+03  0.65992026885E+02 -0.34220773243E+03  0.40814211131E+03  0.00000000000E+00 0. -1.
<mgrwt>
<rscale>  0 0.21354385E+04</rscale>
<asrwt>0</asrwt>
<pdfrwt beam="1">  1        2 0.71847546E-01 0.21354385E+04</pdfrwt>
<pdfrwt beam="2">  1       -2 0.37555669E+00 0.21354385E+04</pdfrwt>
<totfact> 0.65624766E-01</totfact>
</mgrwt>
</event>
<event>
12    2  0.3561489E-008  0.1173346E+04  0.7818608E-02  0.9136512E-01
          2   -1    0    0  501    0  0.00000000000E+00  0.00000000000E+00  0.44551141294E+03  0.44551141294E+03  0.00000000000E+00 0.  1.
         -2   -1    0    0    0  501 -0.00000000000E+00 -0.00000000000E+00 -0.77256175084E+03  0.77256175084E+03  0.00000000000E+00 0. -1.
         23    2    1    2    0    0 -0.13642548439E+02  0.61378935769E+02  0.18240063460E+03  0.21258807831E+03  0.89276013855E+02 0.  0.
        254    2    1    2    0    0  0.13642548439E+02 -0.61378935769E+02 -0.50945097250E+03  0.10054850855E+04  0.86458456547E+03 0.  0.
         23    2    4    4    0    0 -0.61174118766E+02  0.75590715717E+02  0.21785952494E+03  0.25592441605E+03  0.92619139557E+02 0.  0.
         23    2    4    4    0    0  0.74816667205E+02 -0.13696965149E+03 -0.72731049744E+03  0.74956066943E+03  0.92208558944E+02 0.  0.
          1    1    3    3  502    0  0.32610007744E+02  0.69240311688E+01  0.88685682543E+02  0.94744419893E+02  0.00000000000E+00 0. -1.
         -1    1    3    3    0  502 -0.46252556183E+02  0.54454904600E+02  0.93714952061E+02  0.11784365841E+03  0.00000000000E+00 0.  1.
         11    1    5    5    0    0 -0.10770634221E+02  0.59415621841E+02  0.45466419135E+02  0.75587154657E+02  0.00000000000E+00 0.  1.
        -11    1    5    5    0    0 -0.50403484545E+02  0.16175093876E+02  0.17239310581E+03  0.18033726139E+03  0.00000000000E+00 0. -1.
          3    1    6    6  503    0  0.91063835064E+02 -0.10164186419E+03 -0.63309166073E+03  0.64763318437E+03  0.00000000000E+00 0. -1.
         -3    1    6    6    0  503 -0.16247167859E+02 -0.35327787291E+02 -0.94218836713E+02  0.10192748506E+03  0.00000000000E+00 0.  1.
<mgrwt>
<rscale>  0 0.11733458E+04</rscale>
<asrwt>0</asrwt>
<pdfrwt beam="1">  1        2 0.68540218E-01 0.11733458E+04</pdfrwt>
<pdfrwt beam="2">  1       -2 0.11885565E+00 0.11733458E+04</pdfrwt>
<totfact> 0.37801607E+01</totfact>
</mgrwt>
</event>
<event>
12    2  0.3561489E-008  0.1831649E+04  0.7818608E-02  0.8689648E-01
          1   -1    0    0  501    0  0.00000000000E+00  0.00000000000E+00  0.19324254268E+04  0.19324254268E+04  0.00000000000E+00 0. -1.
         -1   -1    0    0    0  501 -0.00000000000E+00 -0.00000000000E+00 -0.43403205181E+03  0.43403205181E+03  0.00000000000E+00 0.  1.
         23    2    1    2    0    0 -0.18624895795E+03  0.60120638717E+03  0.94493075087E+03  0.11389342792E+04  0.90218479906E+02 0.  0.
        254    2    1    2    0    0  0.18624895795E+03 -0.60120638717E+03  0.55346262408E+03  0.12275231994E+04  0.89685814619E+03 0.  0.
         23    2    4    4    0    0 -0.30555537882E+03 -0.89993552745E+02  0.35538885884E+03  0.48574243619E+03  0.90451889245E+02 0.  0.
         23    2    4    4    0    0  0.49180433677E+03 -0.51121283443E+03  0.19807376523E+03  0.74178076316E+03  0.88291655212E+02 0.  0.
          2    1    3    3  502    0 -0.92243916471E+02  0.42660663700E+03  0.67968649089E+03  0.80775979645E+03  0.00000000000E+00 0. -1.
         -2    1    3    3    0  502 -0.94005041480E+02  0.17459975017E+03  0.26524425997E+03  0.33117448276E+03  0.00000000000E+00 0.  1.
         11    1    5    5    0    0  0.75080154455E+00 -0.73449363628E+01 -0.21966332155E+01  0.77030507344E+01  0.00000000000E+00 0. -1.
        -11    1    5    5    0    0 -0.30630618036E+03 -0.82648616382E+02  0.35758549206E+03  0.47803938546E+03  0.00000000000E+00 0.  1.
          1    1    6    6  503    0  0.24023732802E+03 -0.25130386201E+03  0.14289052303E+03  0.37587937747E+03  0.00000000000E+00 0. -1.
         -1    1    6    6    0  503  0.25156700875E+03 -0.25990897242E+03  0.55183242206E+02  0.36590138570E+03  0.00000000000E+00 0.  1.
<mgrwt>
<rscale>  0 0.18316491E+04</rscale>
<asrwt>0</asrwt>
<pdfrwt beam="1">  1        1 0.29729622E+00 0.18316491E+04</pdfrwt>
<pdfrwt beam="2">  1       -1 0.66774163E-01 0.18316491E+04</pdfrwt>
<totfact> 0.70820615E+00</totfact>
</mgrwt>
</event>
<event>
12    2  0.3561489E-008  0.2074685E+04  0.7818608E-02  0.8572478E-01
          2   -1    0    0  501    0  0.00000000000E+00  0.00000000000E+00  0.24053019966E+04  0.24053019966E+04  0.00000000000E+00 0.  1.
         -2   -1    0    0    0  501 -0.00000000000E+00 -0.00000000000E+00 -0.44737810153E+03  0.44737810153E+03  0.00000000000E+00 0. -1.
         23    2    1    2    0    0  0.37609426428E+03 -0.76444183297E+02  0.18219305985E+04  0.18641279851E+04  0.90837383334E+02 0.  0.
        254    2    1    2    0    0 -0.37609426428E+03  0.76444183297E+02  0.13599329662E+03  0.98855211311E+03  0.90080547002E+03 0.  0.
         23    2    4    4    0    0  0.76728188783E+02 -0.28572703384E+03 -0.13957873293E+03  0.33974980337E+03  0.91763573277E+02 0.  0.
         23    2    4    4    0    0 -0.45282245306E+03  0.36217121713E+03  0.27557202955E+03  0.64880230974E+03  0.93746088619E+02 0.  0.
          2    1    3    3  502    0 -0.38766155766E+01 -0.27896481603E+01  0.76202605055E+01  0.89932561044E+01  0.00000000000E+00 0. -1.
         -2    1    3    3    0  502  0.37997087986E+03 -0.73654535137E+02  0.18143103380E+04  0.18551347290E+04  0.00000000000E+00 0.  1.
         11    1    5    5    0    0  0.24842735464E+02 -0.78239825447E+01 -0.19798930742E+02  0.32716568688E+02  0.00000000000E+00 0.  1.
        -11    1    5    5    0    0  0.51885453319E+02 -0.27790305129E+03 -0.11977980219E+03  0.30703323468E+03  0.00000000000E+00 0. -1.
          3    1    6    6  503    0 -0.99632137144E+02  0.36136664352E+02  0.37637900541E+02  0.11246791907E+03  0.00000000000E+00 0. -1.
         -3    1    6    6    0  503 -0.35319031592E+03  0.32603455278E+03  0.23793412901E+03  0.53633439067E+03  0.00000000000E+00 0.  1.
<mgrwt>
<rscale>  0 0.20746850E+04</rscale>
<asrwt>0</asrwt>
<pdfrwt beam="1">  1        2 0.37004645E+00 0.20746850E+04</pdfrwt>
<pdfrwt beam="2">  1       -2 0.68827402E-01 0.20746850E+04</pdfrwt>
<totfact> 0.70326980E+00</totfact>
</mgrwt>
</event>
<event>
12    2  0.3561489E-008  0.1433120E+04  0.7818608E-02  0.8930188E-01
         -1   -1    0    0    0  501 -0.00000000000E+00  0.00000000000E+00  0.43949282068E+03  0.43949282068E+03  0.00000000000E+00 0.  1.
          1   -1    0    0  501    0  0.00000000000E+00 -0.00000000000E+00 -0.11682967302E+04  0.11682967302E+04  0.00000000000E+00 0. -1.
         23    2    1    2    0    0  0.16060773989E+03  0.19536045765E+03  0.15842311599E+03  0.31132427014E+03  0.88681243637E+02 0.  0.
        254    2    1    2    0    0 -0.16060773989E+03 -0.19536045765E+03 -0.88722702550E+03  0.12964652807E+04  0.91087313871E+03 0.  0.
         23    2    4    4    0    0  0.11032898360E+03 -0.26581046382E+03 -0.94634383324E+03  0.99369919215E+03  0.95098614489E+02 0.  0.
         23    2    4    4    0    0 -0.27093672349E+03  0.70450006168E+02  0.59116807739E+02  0.30276608857E+03  0.99008059926E+02 0.  0.
          4    1    3    3  502    0  0.43055518060E+02  0.14216349718E+02  0.33443088693E+01  0.45465004526E+02  0.00000000000E+00 0. -1.
         -4    1    3    3    0  502  0.11755222183E+03  0.18114410793E+03  0.15507880712E+03  0.26585926562E+03  0.00000000000E+00 0.  1.
         11    1    5    5    0    0  0.15081730900E+02 -0.78128474809E+02 -0.14748843905E+03  0.16758388000E+03  0.00000000000E+00 0.  1.
        -11    1    5    5    0    0  0.95247252696E+02 -0.18768198901E+03 -0.79885539419E+03  0.82611531215E+03  0.00000000000E+00 0. -1.
          1    1    6    6  503    0 -0.27763203927E+03  0.74924178000E+02  0.62073942778E+02  0.29418762049E+03  0.00000000000E+00 0. -1.
         -1    1    6    6    0  503  0.66953157829E+01 -0.44741718319E+01 -0.29571350389E+01  0.85784680831E+01  0.00000000000E+00 0.  1.
<mgrwt>
<rscale>  0 0.14331197E+04</rscale>
<asrwt>0</asrwt>
<pdfrwt beam="1">  1        1 0.17973795E+00 0.14331197E+04</pdfrwt>
<pdfrwt beam="2">  1       -1 0.67614282E-01 0.14331197E+04</pdfrwt>
<totfact> 0.24290602E+01</totfact>
</mgrwt>
</event>
<event>
12    2  0.3561489E-008  0.1553014E+04  0.7818608E-02  0.8849945E-01
         -2   -1    0    0    0  501 -0.00000000000E+00  0.00000000000E+00  0.29512352508E+04  0.29512352508E+04  0.00000000000E+00 0.  1.
          2   -1    0    0  501    0  0.00000000000E+00 -0.00000000000E+00 -0.20430885430E+03  0.20430885430E+03  0.00000000000E+00 0. -1.
         23    2    1    2    0    0 -0.20885027998E+03  0.33299610916E+03  0.16112267628E+04  0.16610151767E+04  0.91732698418E+02 0.  0.
        254    2    1    2    0    0  0.20885027998E+03 -0.33299610916E+03  0.11356996337E+04  0.14945289284E+04  0.88842456722E+03 0.  0.
         23    2    4    4    0    0 -0.16290823340E+03 -0.15189787915E+03  0.10305045113E+04  0.10582171558E+04  0.90950221941E+02 0.  0.
         23    2    4    4    0    0  0.37175851338E+03 -0.18109823001E+03  0.10519512243E+03  0.43631177259E+03  0.91109757616E+02 0.  0.
          3    1    3    3  502    0 -0.35559102235E+02  0.10529968631E+02  0.12656662558E+03  0.13188798543E+03  0.00000000000E+00 0. -1.
         -3    1    3    3    0  502 -0.17329117775E+03  0.32246614053E+03  0.14846601372E+04  0.15291271913E+04  0.00000000000E+00 0.  1.
         11    1    5    5    0    0 -0.44630955460E+02 -0.10217234874E+03  0.43660068129E+03  0.45061210141E+03  0.00000000000E+00 0. -1.
        -11    1    5    5    0    0 -0.11827727794E+03 -0.49725530409E+02  0.59390383001E+03  0.60760505442E+03  0.00000000000E+00 0.  1.
          4    1    6    6  503    0  0.75304352614E+02 -0.79953181447E+02  0.19314502921E+02  0.11151819031E+03  0.00000000000E+00 0. -1.
         -4    1    6    6    0  503  0.29645416077E+03 -0.10114504856E+03  0.85880619512E+02  0.32479358228E+03  0.00000000000E+00 0.  1.
<mgrwt>
<rscale>  0 0.15530145E+04</rscale>
<asrwt>0</asrwt>
<pdfrwt beam="1">  1        2 0.31432134E-01 0.15530145E+04</pdfrwt>
<pdfrwt beam="2">  1       -2 0.45403616E+00 0.15530145E+04</pdfrwt>
<totfact> 0.53449723E-01</totfact>
</mgrwt>
</event>
<event>
12    2  0.3561489E-008  0.3908585E+04  0.7818608E-02  0.8023246E-01
          2   -1    0    0  501    0  0.00000000000E+00  0.00000000000E+00  0.19300087470E+04  0.19300087470E+04  0.00000000000E+00 0.  1.
         -2   -1    0    0    0  501 -0.00000000000E+00 -0.00000000000E+00 -0.19788818050E+04  0.19788818050E+04  0.00000000000E+00 0. -1.
         23    2    1    2    0    0  0.41693883871E+03 -0.13898877559E+04 -0.11769461928E+04  0.18706167421E+04  0.91535161433E+02 0.  0.
        254    2    1    2    0    0 -0.41693883871E+03  0.13898877559E+04  0.11280731348E+04  0.20382738100E+04  0.88112720859E+03 0.  0.
         23    2    4    4    0    0 -0.50794197419E+03  0.13269176271E+04  0.69888611023E+03  0.15859824392E+04  0.90460289643E+02 0.  0.
         23    2    4    4    0    0  0.91003135476E+02  0.62970128764E+02  0.42918702460E+03  0.45229137080E+03  0.90106460526E+02 0.  0.
          3    1    3    3  502    0  0.39617132418E+03 -0.12257772427E+04 -0.10300725821E+04  0.16494032531E+04  0.00000000000E+00 0. -1.
         -3    1    3    3    0  502  0.20767514527E+02 -0.16411051318E+03 -0.14687361070E+03  0.22121348900E+03  0.00000000000E+00 0.  1.
         11    1    5    5    0    0 -0.15779765206E+03  0.35390761288E+03  0.15256253546E+03  0.41644450372E+03  0.00000000000E+00 0. -1.
        -11    1    5    5    0    0 -0.35014432212E+03  0.97301001423E+03  0.54632357477E+03  0.11695379354E+04  0.00000000000E+00 0.  1.
          1    1    6    6  503    0 -0.15767370475E+02  0.54532811667E+01  0.10190685155E+03  0.10326352038E+03  0.00000000000E+00 0. -1.
         -1    1    6    6    0  503  0.10677050595E+03  0.57516847598E+02  0.32728017305E+03  0.34902785042E+03  0.00000000000E+00 0.  1.
<mgrwt>
<rscale>  0 0.39085850E+04</rscale>
<asrwt>0</asrwt>
<pdfrwt beam="1">  1        2 0.29692442E+00 0.39085850E+04</pdfrwt>
<pdfrwt beam="2">  1       -2 0.30444336E+00 0.39085850E+04</pdfrwt>
<totfact> 0.17336044E-01</totfact>
</mgrwt>
</event>
<event>
12    2  0.3561489E-008  0.1862580E+04  0.7818608E-02  0.8673710E-01
          1   -1    0    0  501    0  0.00000000000E+00  0.00000000000E+00  0.13461415325E+04  0.13461415325E+04  0.00000000000E+00 0. -1.
         -1   -1    0    0    0  501 -0.00000000000E+00 -0.00000000000E+00 -0.64428638446E+03  0.64428638446E+03  0.00000000000E+00 0.  1.
         23    2    1    2    0    0 -0.59086864977E+02  0.68269833087E+03  0.48220841890E+02  0.69320043755E+03  0.92915706078E+02 0.  0.
        254    2    1    2    0    0  0.59086864977E+02 -0.68269833087E+03  0.65363430619E+03  0.12972274795E+04  0.88656249562E+03 0.  0.
         23    2    4    4    0    0  0.17968925018E+03 -0.27415998779E+03  0.77390224774E+03  0.84545607940E+03  0.91757111998E+02 0.  0.
         23    2    4    4    0    0 -0.12060238520E+03 -0.40853834309E+03 -0.12026794156E+03  0.45177140005E+03  0.90468265410E+02 0.  0.
          3    1    3    3  502    0 -0.58798458564E+02  0.61042919554E+03  0.14437660052E+02  0.61342441060E+03  0.00000000000E+00 0. -1.
         -3    1    3    3    0  502 -0.28840641291E+00  0.72269135336E+02  0.33783181838E+02  0.79776026948E+02  0.00000000000E+00 0.  1.
         11    1    5    5    0    0  0.34628077161E+02 -0.92193178180E+02  0.14875927610E+03  0.17840405841E+03  0.00000000000E+00 0. -1.
        -11    1    5    5    0    0  0.14506117302E+03 -0.18196680961E+03  0.62514297165E+03  0.66705202100E+03  0.00000000000E+00 0.  1.
          3    1    6    6  503    0 -0.13238774901E+03 -0.32349962148E+03 -0.93164415183E+02  0.36174318161E+03  0.00000000000E+00 0. -1.
         -3    1    6    6    0  503  0.11785363812E+02 -0.85038721609E+02 -0.27103526377E+02  0.90028218438E+02  0.00000000000E+00 0.  1.
<mgrwt>
<rscale>  0 0.18625796E+04</rscale>
<asrwt>0</asrwt>
<pdfrwt beam="1">  1        1 0.20709870E+00 0.18625796E+04</pdfrwt>
<pdfrwt beam="2">  1       -1 0.99120983E-01 0.18625796E+04</pdfrwt>
<totfact> 0.76553719E+00</totfact>
</mgrwt>
</event>
<event>
12    2  0.3561489E-008  0.2248114E+04  0.7818608E-02  0.8498665E-01
          2   -1    0    0  501    0  0.00000000000E+00  0.00000000000E+00  0.23137778839E+04  0.23137778839E+04  0.00000000000E+00 0. -1.
         -2   -1    0    0    0  501 -0.00000000000E+00 -0.00000000000E+00 -0.54607821795E+03  0.54607821795E+03  0.00000000000E+00 0.  1.
         23    2    1    2    0    0  0.36088502989E+03 -0.81610889032E+03  0.11257668272E+04  0.14393777835E+04  0.90475017103E+02 0.  0.
        254    2    1    2    0    0 -0.36088502989E+03  0.81610889032E+03  0.64193283874E+03  0.14204783183E+04  0.89967169444E+03 0.  0.
         23    2    4    4    0    0 -0.62869765950E+02  0.88293586360E+02  0.61168645139E+03  0.62811471079E+03  0.92840778984E+02 0.  0.
         23    2    4    4    0    0 -0.29801526394E+03  0.72781530396E+03  0.30246387354E+02  0.79236360755E+03  0.91635301109E+02 0.  0.
          4    1    3    3  502    0  0.34354934487E+03 -0.72093081104E+03  0.10290697970E+04  0.13025943473E+04  0.00000000000E+00 0. -1.
         -4    1    3    3    0  502  0.17335685020E+02 -0.95178079281E+02  0.96697030192E+02  0.13678343613E+03  0.00000000000E+00 0.  1.
         11    1    5    5    0    0 -0.53880957856E+02  0.97427641887E+02  0.60157536122E+03  0.61179099230E+03  0.00000000000E+00 0.  1.
        -11    1    5    5    0    0 -0.89888080939E+01 -0.91340555272E+01  0.10111090165E+02  0.16323718499E+02  0.00000000000E+00 0. -1.
          4    1    6    6  503    0 -0.14819861583E+03  0.47752946553E+03  0.13326700863E+02  0.50017479059E+03  0.00000000000E+00 0. -1.
         -4    1    6    6    0  503 -0.14981664811E+03  0.25028583842E+03  0.16919686491E+02  0.29218881696E+03  0.00000000000E+00 0.  1.
<mgrwt>
<rscale>  0 0.22481136E+04</rscale>
<asrwt>0</asrwt>
<pdfrwt beam="1">  1        2 0.35596582E+00 0.22481136E+04</pdfrwt>
<pdfrwt beam="2">  1       -2 0.84012035E-01 0.22481136E+04</pdfrwt>
<totfact> 0.50158234E+00</totfact>
</mgrwt>
</event>
<event>
12    2  0.3561489E-008  0.1154446E+04  0.7818608E-02  0.9153692E-01
          1   -1    0    0  501    0  0.00000000000E+00  0.00000000000E+00  0.10532295314E+04  0.10532295314E+04  0.00000000000E+00 0. -1.
         -1   -1    0    0    0  501 -0.00000000000E+00 -0.00000000000E+00 -0.31634718388E+03  0.31634718388E+03  0.00000000000E+00 0.  1.
         23    2    1    2    0    0 -0.82970224660E+02  0.14164193397E+03 -0.16295155970E+02  0.18813888963E+03  0.90466646029E+02 0.  0.
        254    2    1    2    0    0  0.82970224660E+02 -0.14164193397E+03  0.75317750351E+03  0.11814378257E+04  0.89530580724E+03 0.  0.
         23    2    4    4    0    0 -0.15684457451E+03 -0.10975400340E+02 -0.14769393170E+03  0.23544155163E+03  0.94332109103E+02 0.  0.
         23    2    4    4    0    0  0.23981479917E+03 -0.13066653363E+03  0.90087143521E+03  0.94599627403E+03  0.93566697029E+02 0.  0.
          3    1    3    3  502    0 -0.14011121720E+02 -0.59536427767E+01 -0.20062924615E+02  0.25184883130E+02  0.00000000000E+00 0. -1.
         -3    1    3    3    0  502 -0.68959102940E+02  0.14759557675E+03  0.37677686448E+01  0.16295400650E+03  0.00000000000E+00 0.  1.
         11    1    5    5    0    0 -0.46229292072E+01 -0.89765743429E+01  0.11411480349E+02  0.15237199387E+02  0.00000000000E+00 0.  1.
        -11    1    5    5    0    0 -0.15222164531E+03 -0.19988259971E+01 -0.15910541205E+03  0.22020435225E+03  0.00000000000E+00 0. -1.
          3    1    6    6  503    0  0.17750055651E+03 -0.13706561731E+03  0.65757333146E+03  0.69476335343E+03  0.00000000000E+00 0. -1.
         -3    1    6    6    0  503  0.62314242668E+02  0.63990836796E+01  0.24329810374E+03  0.25123292061E+03  0.00000000000E+00 0.  1.
<mgrwt>
<rscale>  0 0.11544457E+04</rscale>
<asrwt>0</asrwt>
<pdfrwt beam="1">  1        1 0.16203531E+00 0.11544457E+04</pdfrwt>
<pdfrwt beam="2">  1       -1 0.48668798E-01 0.11544457E+04</pdfrwt>
<totfact> 0.57705953E+01</totfact>
</mgrwt>
</event>
<event>
12    2  0.3561489E-008  0.2964196E+04  0.7818608E-02  0.8254029E-01
         -2   -1    0    0    0  501 -0.00000000000E+00  0.00000000000E+00  0.10453228058E+04  0.10453228058E+04  0.00000000000E+00 0.  1.
          2   -1    0    0  501    0  0.00000000000E+00 -0.00000000000E+00 -0.21013744905E+04  0.21013744905E+04  0.00000000000E+00 0. -1.
         23    2    1    2    0    0  0.18163970578E+03 -0.11502026114E+04  0.22168331369E+03  0.11887685637E+04  0.89823028178E+02 0.  0.
        254    2    1    2    0    0 -0.18163970578E+03  0.11502026114E+04 -0.12777349984E+04  0.19579287327E+04  0.91919484664E+03 0.  0.
         23    2    4    4    0    0 -0.10268769745E+02  0.31994464833E+03 -0.10107801143E+04  0.10640131946E+04  0.89317486043E+02 0.  0.
         23    2    4    4    0    0 -0.17137093604E+03  0.83025796306E+03 -0.26695488413E+03  0.89391553803E+03  0.95518563788E+02 0.  0.
          3    1    3    3  502    0  0.11263337936E+03 -0.47133227101E+03  0.68540980332E+02  0.48942645395E+03  0.00000000000E+00 0. -1.
         -3    1    3    3    0  502  0.69006326421E+02 -0.67887034038E+03  0.15314233336E+03  0.69934210970E+03  0.00000000000E+00 0.  1.
         11    1    5    5    0    0 -0.12275290545E+02  0.22243976736E+03 -0.82036702721E+03  0.85007775656E+03  0.00000000000E+00 0.  1.
        -11    1    5    5    0    0  0.20065207999E+01  0.97504880978E+02 -0.19041308708E+03  0.21393543809E+03  0.00000000000E+00 0. -1.
          3    1    6    6  503    0 -0.49298532136E+02  0.47280142350E+03 -0.14483612957E+03  0.49693967014E+03  0.00000000000E+00 0. -1.
         -3    1    6    6    0  503 -0.12207240390E+03  0.35745653956E+03 -0.12211875456E+03  0.39697586788E+03  0.00000000000E+00 0.  1.
<mgrwt>
<rscale>  0 0.29641961E+04</rscale>
<asrwt>0</asrwt>
<pdfrwt beam="1">  1        2 0.32328838E+00 0.29641961E+04</pdfrwt>
<pdfrwt beam="2">  1       -2 0.16081889E+00 0.29641961E+04</pdfrwt>
<totfact> 0.12509539E+00</totfact>
</mgrwt>
</event>
<event>
12    2  0.3561489E-008  0.2700697E+04  0.7818608E-02  0.8334779E-01
         -2   -1    0    0    0  501 -0.00000000000E+00  0.00000000000E+00  0.42902883228E+03  0.42902883228E+03  0.00000000000E+00 0.  1.
          2   -1    0    0  501    0  0.00000000000E+00 -0.00000000000E+00 -0.42501590161E+04  0.42501590161E+04  0.00000000000E+00 0. -1.
         23    2    1    2    0    0  0.51335133957E+03 -0.10035654601E+04 -0.99690405966E+03  0.15073640919E+04  0.87496119658E+02 0.  0.
        254    2    1    2    0    0 -0.51335133957E+03  0.10035654601E+04 -0.28242261241E+04  0.31718237565E+04  0.90196425166E+03 0.  0.
         23    2    4    4    0    0 -0.18970635777E+03  0.86268760775E+03 -0.25920741001E+04  0.27399653986E+04  0.91344592029E+02 0.  0.
         23    2    4    4    0    0 -0.32364498180E+03  0.14087785231E+03 -0.23215202404E+03  0.43185835783E+03  0.89523379337E+02 0.  0.
          3    1    3    3  502    0  0.12988309860E+03 -0.32582621570E+03 -0.34170315293E+03  0.48968702951E+03  0.00000000000E+00 0. -1.
         -3    1    3    3    0  502  0.38346824096E+03 -0.67773924436E+03 -0.65520090673E+03  0.10176770624E+04  0.00000000000E+00 0.  1.
         11    1    5    5    0    0 -0.13050340462E+03  0.39095890654E+03 -0.11619236575E+04  0.12328611402E+04  0.00000000000E+00 0. -1.
        -11    1    5    5    0    0 -0.59202953147E+02  0.47172870122E+03 -0.14301504426E+04  0.15071042584E+04  0.00000000000E+00 0.  1.
          3    1    6    6  503    0 -0.10596335591E+03  0.30146417209E+02 -0.28325237101E+02  0.11375130031E+03  0.00000000000E+00 0. -1.
         -3    1    6    6    0  503 -0.21768162589E+03  0.11073143510E+03 -0.20382678693E+03  0.31810705752E+03  0.00000000000E+00 0.  1.
<mgrwt>
<rscale>  0 0.27006968E+04</rscale>
<asrwt>0</asrwt>
<pdfrwt beam="1">  1        2 0.65387061E+00 0.27006968E+04</pdfrwt>
<pdfrwt beam="2">  1       -2 0.66004437E-01 0.27006968E+04</pdfrwt>
<totfact> 0.39019738E-01</totfact>
</mgrwt>
</event>
<event>
12    2  0.3561489E-008  0.1452882E+04  0.7818608E-02  0.8916405E-01
         -1   -1    0    0    0  501 -0.00000000000E+00  0.00000000000E+00  0.37848279287E+03  0.37848279287E+03  0.00000000000E+00 0.  1.
          1   -1    0    0  501    0  0.00000000000E+00 -0.00000000000E+00 -0.13942948572E+04  0.13942948572E+04  0.00000000000E+00 0. -1.
         23    2    1    2    0    0 -0.20132749993E+02  0.20718900167E+03  0.15972439764E+03  0.27806363625E+03  0.92059179706E+02 0.  0.
        254    2    1    2    0    0  0.20132749993E+02 -0.20718900167E+03 -0.11755364620E+04  0.14947140139E+04  0.89941725561E+03 0.  0.
         23    2    4    4    0    0 -0.16533881926E+03  0.24525211656E+03 -0.83571367216E+03  0.89129733988E+03  0.92239256358E+02 0.  0.
         23    2    4    4    0    0  0.18547156925E+03 -0.45244111823E+03 -0.33982278984E+03  0.60341667397E+03  0.97619083534E+02 0.  0.
          2    1    3    3  502    0  0.22199019305E+02  0.60168106571E+02  0.88523274138E+02  0.10931316284E+03  0.00000000000E+00 0. -1.
         -2    1    3    3    0  502 -0.42331769298E+02  0.14702089510E+03  0.71201123500E+02  0.16875047341E+03  0.00000000000E+00 0.  1.
         11    1    5    5    0    0 -0.15629405299E+03  0.16140600150E+03 -0.63550184131E+03  0.67404919600E+03  0.00000000000E+00 0. -1.
        -11    1    5    5    0    0 -0.90447662678E+01  0.83846115059E+02 -0.20021183086E+03  0.21724814389E+03  0.00000000000E+00 0.  1.
          1    1    6    6  503    0  0.17409059868E+03 -0.30929241510E+03 -0.23621007141E+03  0.42633851858E+03  0.00000000000E+00 0. -1.
         -1    1    6    6    0  503  0.11380970573E+02 -0.14314870312E+03 -0.10361271843E+03  0.17707815539E+03  0.00000000000E+00 0.  1.
<mgrwt>
<rscale>  0 0.14528821E+04</rscale>
<asrwt>0</asrwt>
<pdfrwt beam="1">  1        1 0.21450690E+00 0.14528821E+04</pdfrwt>
<pdfrwt beam="2">  1       -1 0.58228122E-01 0.14528821E+04</pdfrwt>
<totfact> 0.22499200E+01</totfact>
</mgrwt>
</event>
<event>
12    2  0.3561489E-008  0.1491435E+04  0.7818608E-02  0.8890169E-01
          2   -1    0    0  501    0  0.00000000000E+00  0.00000000000E+00  0.31117541308E+04  0.31117541308E+04  0.00000000000E+00 0. -1.
         -2   -1    0    0    0  501 -0.00000000000E+00 -0.00000000000E+00 -0.17870764930E+03  0.17870764930E+03  0.00000000000E+00 0.  1.
         23    2    1    2    0    0  0.37706845851E+03 -0.62867409113E+02  0.15799705887E+04  0.16284721400E+04  0.97373076182E+02 0.  0.
        254    2    1    2    0    0 -0.37706845851E+03  0.62867409113E+02  0.13530758927E+04  0.16619896401E+04  0.88615024609E+03 0.  0.
         23    2    4    4    0    0 -0.13970425729E+03  0.31861731556E+03  0.12634616048E+03  0.38334541261E+03  0.99780157470E+02 0.  0.
         23    2    4    4    0    0 -0.23736420122E+03 -0.25574990645E+03  0.12267297323E+04  0.12786442274E+04  0.91189065767E+02 0.  0.
          1    1    3    3  502    0 -0.14109422845E+01 -0.62963125854E+01  0.86904883885E+02  0.87144094197E+02  0.00000000000E+00 0.  1.
         -1    1    3    3    0  502  0.37847940080E+03 -0.56571096528E+02  0.14930657049E+04  0.15413280458E+04  0.00000000000E+00 0. -1.
         11    1    5    5    0    0 -0.10063869581E+03  0.30026010331E+03  0.97183614110E+02  0.33125357596E+03  0.00000000000E+00 0.  1.
        -11    1    5    5    0    0 -0.39065561477E+02  0.18357212246E+02  0.29162546368E+02  0.52091836650E+02  0.00000000000E+00 0. -1.
          1    1    6    6  503    0  0.73180995548E+01 -0.11600838506E+02  0.29829388404E+02  0.32831790200E+02  0.00000000000E+00 0. -1.
         -1    1    6    6    0  503 -0.24468230078E+03 -0.24414906794E+03  0.11969003438E+04  0.12458124372E+04  0.00000000000E+00 0.  1.
<mgrwt>
<rscale>  0 0.14914346E+04</rscale>
<asrwt>0</asrwt>
<pdfrwt beam="1">  1        2 0.47873136E+00 0.14914346E+04</pdfrwt>
<pdfrwt beam="2">  1       -2 0.27493487E-01 0.14914346E+04</pdfrwt>
<totfact> 0.17392504E+01</totfact>
</mgrwt>
</event>
<event>
12    2  0.3561489E-008  0.3429415E+04  0.7818608E-02  0.8130725E-01
          1   -1    0    0  501    0  0.00000000000E+00  0.00000000000E+00  0.22558785276E+04  0.22558785276E+04  0.00000000000E+00 0.  1.
         -1   -1    0    0    0  501 -0.00000000000E+00 -0.00000000000E+00 -0.13033596744E+04  0.13033596744E+04  0.00000000000E+00 0. -1.
         23    2    1    2    0    0  0.10063860331E+04 -0.57894549110E+03  0.15783543552E+04  0.19614720705E+04  0.90440498746E+02 0.  0.
        254    2    1    2    0    0 -0.10063860331E+04  0.57894549110E+03 -0.62583550199E+03  0.15977661314E+04  0.90177369995E+03 0.  0.
         23    2    4    4    0    0 -0.46275773024E+03 -0.19220622949E+03 -0.31156682199E+03  0.59894673920E+03  0.10283657072E+03 0.  0.
         23    2    4    4    0    0 -0.54362830282E+03  0.77115172059E+03 -0.31426867999E+03  0.99881939222E+03  0.93105677825E+02 0.  0.
          1    1    3    3  502    0  0.58547005030E+03 -0.31195948743E+03  0.83459915780E+03  0.10661377283E+04  0.00000000000E+00 0. -1.
         -1    1    3    3    0  502  0.42091598276E+03 -0.26698600368E+03  0.74375519738E+03  0.89533434221E+03  0.00000000000E+00 0.  1.
         11    1    5    5    0    0 -0.24170953778E+03 -0.52686256303E+02 -0.18253245334E+03  0.30743688585E+03  0.00000000000E+00 0. -1.
        -11    1    5    5    0    0 -0.22104819245E+03 -0.13951997318E+03 -0.12903436866E+03  0.29150985335E+03  0.00000000000E+00 0.  1.
          4    1    6    6  503    0 -0.65746095892E+02  0.15446534119E+03 -0.59153824631E+02  0.17799231928E+03  0.00000000000E+00 0. -1.
         -4    1    6    6    0  503 -0.47788220693E+03  0.61668637939E+03 -0.25511485536E+03  0.82082707293E+03  0.00000000000E+00 0.  1.
<mgrwt>
<rscale>  0 0.34294146E+04</rscale>
<asrwt>0</asrwt>
<pdfrwt beam="1">  1        1 0.34705823E+00 0.34294146E+04</pdfrwt>
<pdfrwt beam="2">  1       -1 0.20051687E+00 0.34294146E+04</pdfrwt>
<totfact> 0.24442168E-01</totfact>
</mgrwt>
</event>
<event>
12    2  0.3561489E-008  0.1457706E+04  0.7818608E-02  0.8913075E-01
         -2   -1    0    0    0  501 -0.00000000000E+00  0.00000000000E+00  0.42395931099E+03  0.42395931099E+03  0.00000000000E+00 0.  1.
          2   -1    0    0  501    0  0.00000000000E+00 -0.00000000000E+00 -0.12530134783E+04  0.12530134783E+04  0.00000000000E+00 0. -1.
         23    2    1    2    0    0 -0.10845370185E+03 -0.40864954563E+03 -0.99657435199E+02  0.44394394750E+03  0.91640425267E+02 0.  0.
        254    2    1    2    0    0  0.10845370185E+03  0.40864954563E+03 -0.72939673210E+03  0.12330288418E+04  0.89976878989E+03 0.  0.
         23    2    4    4    0    0 -0.36516934393E+03  0.13692835608E+03 -0.48067400839E+03  0.62567458834E+03  0.91231374582E+02 0.  0.
         23    2    4    4    0    0  0.47362304578E+03  0.27172118955E+03 -0.24872272371E+03  0.60735425343E+03  0.94154137052E+02 0.  0.
          3    1    3    3  502    0  0.80000260259E+01 -0.18990987317E+02  0.97485872663E+01  0.22796775416E+02  0.00000000000E+00 0. -1.
         -3    1    3    3    0  502 -0.11645372788E+03 -0.38965855831E+03 -0.10940602247E+03  0.42114717208E+03  0.00000000000E+00 0.  1.
         11    1    5    5    0    0 -0.34017768999E+03  0.10175986729E+03 -0.44747779834E+03  0.57123752622E+03  0.00000000000E+00 0. -1.
        -11    1    5    5    0    0 -0.24991653937E+02  0.35168488788E+02 -0.33196210054E+02  0.54437062118E+02  0.00000000000E+00 0.  1.
          3    1    6    6  503    0  0.34965714175E+03  0.15191977091E+03 -0.18266968693E+03  0.42273862858E+03  0.00000000000E+00 0. -1.
         -3    1    6    6    0  503  0.12396590403E+03  0.11980141864E+03 -0.66053036777E+02  0.18461562485E+03  0.00000000000E+00 0.  1.
<mgrwt>
<rscale>  0 0.14577060E+04</rscale>
<asrwt>0</asrwt>
<pdfrwt beam="1">  1        2 0.19277130E+00 0.14577060E+04</pdfrwt>
<pdfrwt beam="2">  1       -2 0.65224510E-01 0.14577060E+04</pdfrwt>
<totfact> 0.36998499E+01</totfact>
</mgrwt>
</event>
<event>
12    2  0.3561489E-008  0.1212252E+04  0.7818608E-02  0.9102199E-01
         -4   -1    0    0    0  501 -0.00000000000E+00  0.00000000000E+00  0.16812346305E+03  0.16812346305E+03  0.00000000000E+00 0. -1.
          4   -1    0    0  501    0  0.00000000000E+00 -0.00000000000E+00 -0.21852329592E+04  0.21852329592E+04  0.00000000000E+00 0.  1.
         23    2    1    2    0    0 -0.16067009456E+03  0.12036704626E+02 -0.40739263021E+02  0.18817869057E+03  0.88271005944E+02 0.  0.
        254    2    1    2    0    0  0.16067009456E+03 -0.12036704626E+02 -0.19763702331E+04  0.21651777317E+04  0.86948004568E+03 0.  0.
         23    2    4    4    0    0 -0.26104044634E+03 -0.52455080493E+02 -0.22369059926E+03  0.35968924609E+03  0.91897875169E+02 0.  0.
         23    2    4    4    0    0  0.42171054090E+03  0.40418375867E+02 -0.17526796338E+04  0.18054884856E+04  0.91811476512E+02 0.  0.
          3    1    3    3  502    0 -0.13756265975E+03  0.42797413351E+02 -0.40702245339E+02  0.14970563357E+03  0.00000000000E+00 0. -1.
         -3    1    3    3    0  502 -0.23107434806E+02 -0.30760708725E+02 -0.37017681847E-01  0.38473057000E+02  0.00000000000E+00 0.  1.
         11    1    5    5    0    0 -0.89769166091E+02 -0.62665483440E+02 -0.98856407422E+02  0.14750611948E+03  0.00000000000E+00 0.  1.
        -11    1    5    5    0    0 -0.17127128025E+03  0.10210402946E+02 -0.12483419184E+03  0.21218312662E+03  0.00000000000E+00 0. -1.
          2    1    6    6  503    0  0.83757345560E+02  0.43973524588E+02 -0.33706247062E+03  0.35008580791E+03  0.00000000000E+00 0.  1.
         -2    1    6    6    0  503  0.33795319534E+03 -0.35551487203E+01 -0.14156171632E+04  0.14554026777E+04  0.00000000000E+00 0. -1.
<mgrwt>
<rscale>  0 0.12122523E+04</rscale>
<asrwt>0</asrwt>
<pdfrwt beam="1">  1        4 0.33618967E+00 0.12122523E+04</pdfrwt>
<pdfrwt beam="2">  1       -4 0.25865149E-01 0.12122523E+04</pdfrwt>
<totfact> 0.52210862E-01</totfact>
</mgrwt>
</event>
<event>
12    2  0.3561489E-008  0.1924083E+04  0.7818608E-02  0.8642961E-01
          2   -1    0    0  501    0  0.00000000000E+00  0.00000000000E+00  0.46663011796E+04  0.46663011796E+04  0.00000000000E+00 0. -1.
         -2   -1    0    0    0  501 -0.00000000000E+00 -0.00000000000E+00 -0.19834207009E+03  0.19834207009E+03  0.00000000000E+00 0.  1.
         23    2    1    2    0    0  0.37107525453E+03  0.26194357634E+03  0.32680274204E+04  0.33007125240E+04  0.91589649691E+02 0.  0.
        254    2    1    2    0    0 -0.37107525453E+03 -0.26194357634E+03  0.11999316891E+04  0.15639307256E+04  0.89427734761E+03 0.  0.
         23    2    4    4    0    0  0.24627251485E+03  0.81045440238E+02  0.21605146283E+03  0.34962563271E+03  0.91330901161E+02 0.  0.
         23    2    4    4    0    0 -0.61734776937E+03 -0.34298901658E+03  0.98388022622E+03  0.12143050929E+04  0.88072840675E+02 0.  0.
          3    1    3    3  502    0  0.35851237426E+03  0.26792754691E+03  0.32093345106E+04  0.32403926142E+04  0.00000000000E+00 0. -1.
         -3    1    3    3    0  502  0.12562880266E+02 -0.59839705753E+01  0.58692909794E+02  0.60319909851E+02  0.00000000000E+00 0.  1.
         11    1    5    5    0    0 -0.42552075475E-01  0.20556092230E+02  0.10089077606E+02  0.22898563828E+02  0.00000000000E+00 0. -1.
        -11    1    5    5    0    0  0.24631506692E+03  0.60489348008E+02  0.20596238522E+03  0.32672706889E+03  0.00000000000E+00 0.  1.
          3    1    6    6  503    0 -0.11454475941E+02 -0.19145178306E+02  0.16292374996E+02  0.27625791472E+02  0.00000000000E+00 0. -1.
         -3    1    6    6    0  503 -0.60589329343E+03 -0.32384383827E+03  0.96758785123E+03  0.11866793014E+04  0.00000000000E+00 0.  1.
<mgrwt>
<rscale>  0 0.19240830E+04</rscale>
<asrwt>0</asrwt>
<pdfrwt beam="1">  1        2 0.71789241E+00 0.19240830E+04</pdfrwt>
<pdfrwt beam="2">  1       -2 0.30514168E-01 0.19240830E+04</pdfrwt>
<totfact> 0.79090434E-01</totfact>
</mgrwt>
</event>
<event>
12    2  0.3561489E-008  0.2553694E+04  0.7818608E-02  0.8384103E-01
          1   -1    0    0  501    0  0.00000000000E+00  0.00000000000E+00  0.91869425999E+03  0.91869425999E+03  0.00000000000E+00 0. -1.
         -1   -1    0    0    0  501 -0.00000000000E+00 -0.00000000000E+00 -0.17746253732E+04  0.17746253732E+04  0.00000000000E+00 0.  1.
         23    2    1    2    0    0 -0.68571142713E+03  0.74174885446E+03  0.15291738407E+03  0.10255993526E+04  0.89882041078E+02 0.  0.
        254    2    1    2    0    0  0.68571142713E+03 -0.74174885446E+03 -0.10088484973E+04  0.16677202806E+04  0.86204647176E+03 0.  0.
         23    2    4    4    0    0  0.43001923994E+03 -0.45494777280E+03 -0.10945710144E+04  0.12643292988E+04  0.92459978618E+02 0.  0.
         23    2    4    4    0    0  0.25569218719E+03 -0.28680108166E+03  0.85722517085E+02  0.40339098178E+03  0.87991926981E+02 0.  0.
          4    1    3    3  502    0 -0.56343731910E+03  0.56593359338E+03  0.14242162264E+03  0.81118824157E+03  0.00000000000E+00 0. -1.
         -4    1    3    3    0  502 -0.12227410803E+03  0.17581526108E+03  0.10495761434E+02  0.21441111103E+03  0.00000000000E+00 0.  1.
         11    1    5    5    0    0  0.56492275436E+02 -0.97407173154E+02 -0.24755686270E+03  0.27196311301E+03  0.00000000000E+00 0. -1.
        -11    1    5    5    0    0  0.37352696451E+03 -0.35754059964E+03 -0.84701415170E+03  0.99236618584E+03  0.00000000000E+00 0.  1.
          4    1    6    6  503    0  0.83139464744E+02 -0.44636452932E+02  0.16350021201E+01  0.94378264235E+02  0.00000000000E+00 0. -1.
         -4    1    6    6    0  503  0.17255272245E+03 -0.24216462873E+03  0.84087514965E+02  0.30901271754E+03  0.00000000000E+00 0.  1.
<mgrwt>
<rscale>  0 0.25536939E+04</rscale>
<asrwt>0</asrwt>
<pdfrwt beam="1">  1        1 0.14133758E+00 0.25536939E+04</pdfrwt>
<pdfrwt beam="2">  1       -1 0.27301929E+00 0.25536939E+04</pdfrwt>
<totfact> 0.76725458E-01</totfact>
</mgrwt>
</event>
<event>
12    2  0.3561489E-008  0.1264613E+04  0.7818608E-02  0.9058108E-01
         -2   -1    0    0    0  501 -0.00000000000E+00  0.00000000000E+00  0.10537989689E+04  0.10537989689E+04  0.00000000000E+00 0.  1.
          2   -1    0    0  501    0  0.00000000000E+00 -0.00000000000E+00 -0.37940022777E+03  0.37940022777E+03  0.00000000000E+00 0. -1.
         23    2    1    2    0    0  0.23021350844E+02  0.94602449235E+02 -0.15424992083E+03  0.20942899019E+03  0.10289731707E+03 0.  0.
        254    2    1    2    0    0 -0.23021350844E+02 -0.94602449235E+02  0.82864866194E+03  0.12237702065E+04  0.89525153297E+03 0.  0.
         23    2    4    4    0    0 -0.23014331494E+03  0.11393930565E+03  0.87129451487E+03  0.91290825535E+03  0.91100166078E+02 0.  0.
         23    2    4    4    0    0  0.20712196410E+03 -0.20854175488E+03 -0.42645852931E+02  0.31086195111E+03  0.91800393961E+02 0.  0.
          2    1    3    3  502    0  0.17475863888E+02 -0.43712468551E+01 -0.88878446652E+02  0.90685676360E+02  0.00000000000E+00 0. -1.
         -2    1    3    3    0  502  0.55454869553E+01  0.98973696090E+02 -0.65371474175E+02  0.11874331383E+03  0.00000000000E+00 0.  1.
         11    1    5    5    0    0 -0.17691549828E+03  0.12309804564E+03  0.74500049430E+03  0.77555010081E+03  0.00000000000E+00 0. -1.
        -11    1    5    5    0    0 -0.53227816661E+02 -0.91587399893E+01  0.12629402057E+03  0.13735815454E+03  0.00000000000E+00 0.  1.
          3    1    6    6  503    0  0.17360699273E+03 -0.20416980599E+03 -0.17195240960E+02  0.26855236717E+03  0.00000000000E+00 0. -1.
         -3    1    6    6    0  503  0.33514971368E+02 -0.43719488956E+01 -0.25450611971E+02  0.42309583934E+02  0.00000000000E+00 0.  1.
<mgrwt>
<rscale>  0 0.12646131E+04</rscale>
<asrwt>0</asrwt>
<pdfrwt beam="1">  1        2 0.58369266E-01 0.12646131E+04</pdfrwt>
<pdfrwt beam="2">  1       -2 0.16212292E+00 0.12646131E+04</pdfrwt>
<totfact> 0.20126834E+01</totfact>
</mgrwt>
</event>
<event>
12    2  0.3561489E-008  0.1870402E+04  0.7818608E-02  0.8669731E-01
         -1   -1    0    0    0  501 -0.00000000000E+00  0.00000000000E+00  0.63755739601E+03  0.63755739601E+03  0.00000000000E+00 0.  1.
          1   -1    0    0  501    0  0.00000000000E+00 -0.00000000000E+00 -0.13717996327E+04  0.13717996327E+04  0.00000000000E+00 0. -1.
         23    2    1    2    0    0  0.59396082866E+03  0.18046450891E+03  0.10898159642E+03  0.63747107657E+03  0.95579705780E+02 0.  0.
        254    2    1    2    0    0 -0.59396082866E+03 -0.18046450891E+03 -0.84322383310E+03  0.13718859521E+04  0.88639027971E+03 0.  0.
         23    2    4    4    0    0 -0.33897089696E+03  0.30003428674E+03 -0.14913240145E+03  0.48506407912E+03  0.90137924805E+02 0.  0.
         23    2    4    4    0    0 -0.25498993170E+03 -0.48049879565E+03 -0.69409143166E+03  0.88682187301E+03  0.93761191616E+02 0.  0.
          2    1    3    3  502    0  0.23178729918E+02  0.15226678528E+02  0.25017918245E+02  0.37349718779E+02  0.00000000000E+00 0. -1.
         -2    1    3    3    0  502  0.57078209874E+03  0.16523783038E+03  0.83963678176E+02  0.60012135779E+03  0.00000000000E+00 0.  1.
         11    1    5    5    0    0 -0.96732693943E+02  0.70125720850E+02 -0.41843248806E+00  0.11947805609E+03  0.00000000000E+00 0. -1.
        -11    1    5    5    0    0 -0.24223820302E+03  0.22990856589E+03 -0.14871396896E+03  0.36558602302E+03  0.00000000000E+00 0.  1.
          4    1    6    6  503    0 -0.29688388006E+02 -0.12175928421E+03 -0.19963605410E+03  0.23571439873E+03  0.00000000000E+00 0. -1.
         -4    1    6    6    0  503 -0.22530154369E+03 -0.35873951144E+03 -0.49445537756E+03  0.65110747427E+03  0.00000000000E+00 0.  1.
<mgrwt>
<rscale>  0 0.18704021E+04</rscale>
<asrwt>0</asrwt>
<pdfrwt beam="1">  1        1 0.21104609E+00 0.18704021E+04</pdfrwt>
<pdfrwt beam="2">  1       -1 0.98085755E-01 0.18704021E+04</pdfrwt>
<totfact> 0.75143938E+00</totfact>
</mgrwt>
</event>
<event>
12    2  0.3561489E-008  0.1776075E+04  0.7818608E-02  0.8719127E-01
          1   -1    0    0  501    0  0.00000000000E+00  0.00000000000E+00  0.14006533834E+04  0.14006533834E+04  0.00000000000E+00 0. -1.
         -1   -1    0    0    0  501 -0.00000000000E+00 -0.00000000000E+00 -0.56303038414E+03  0.56303038414E+03  0.00000000000E+00 0.  1.
         23    2    1    2    0    0 -0.17157222781E+03  0.18060402271E+03  0.97769093246E+03  0.10130496406E+04  0.91297166298E+02 0.  0.
        254    2    1    2    0    0  0.17157222781E+03 -0.18060402271E+03 -0.14006793321E+03  0.95063412691E+03  0.90665945920E+03 0.  0.
         23    2    4    4    0    0 -0.45829474820E+02  0.17549706388E+02  0.35368476673E+03  0.36873769520E+03  0.92012176834E+02 0.  0.
         23    2    4    4    0    0  0.21740170263E+03 -0.19815372910E+03 -0.49375269994E+03  0.58189643171E+03  0.91012789604E+02 0.  0.
          1    1    3    3  502    0 -0.13519534677E+03  0.13483598542E+03  0.86797758654E+03  0.88873146422E+03  0.00000000000E+00 0. -1.
         -1    1    3    3    0  502 -0.36376881041E+02  0.45768037291E+02  0.10971334592E+03  0.12431817640E+03  0.00000000000E+00 0.  1.
         11    1    5    5    0    0 -0.44321565784E+02  0.33909232264E+02  0.99967124935E+02  0.11448870378E+03  0.00000000000E+00 0.  1.
        -11    1    5    5    0    0 -0.15079090352E+01 -0.16359525876E+02  0.25371764180E+03  0.25424899142E+03  0.00000000000E+00 0. -1.
          1    1    6    6  503    0  0.13485023933E+03 -0.11929365917E+03 -0.38119778656E+03  0.42157717756E+03  0.00000000000E+00 0. -1.
         -1    1    6    6    0  503  0.82551463305E+02 -0.78860069931E+02 -0.11255491339E+03  0.16031925415E+03  0.00000000000E+00 0.  1.
<mgrwt>
<rscale>  0 0.17760748E+04</rscale>
<asrwt>0</asrwt>
<pdfrwt beam="1">  1        1 0.21548513E+00 0.17760748E+04</pdfrwt>
<pdfrwt beam="2">  1       -1 0.86620059E-01 0.17760748E+04</pdfrwt>
<totfact> 0.95347787E+00</totfact>
</mgrwt>
</event>
<event>
12    2  0.3561489E-008  0.3713041E+04  0.7818608E-02  0.8065078E-01
          2   -1    0    0  501    0  0.00000000000E+00  0.00000000000E+00  0.14984493643E+04  0.14984493643E+04  0.00000000000E+00 0. -1.
         -2   -1    0    0    0  501 -0.00000000000E+00 -0.00000000000E+00 -0.23001565023E+04  0.23001565023E+04  0.00000000000E+00 0.  1.
         23    2    1    2    0    0  0.47654934000E+03 -0.11949773181E+04  0.82223010576E+03  0.15294970863E+04  0.90713428304E+02 0.  0.
        254    2    1    2    0    0 -0.47654934000E+03  0.11949773181E+04 -0.16239372438E+04  0.22691087803E+04  0.92553358702E+03 0.  0.
         23    2    4    4    0    0 -0.52895719500E+03  0.35839904450E+03 -0.33038390810E+03  0.72509589889E+03  0.91460082008E+02 0.  0.
         23    2    4    4    0    0  0.52407855006E+02  0.83657827361E+03 -0.12935533357E+04  0.15440128814E+04  0.89920823420E+02 0.  0.
          1    1    3    3  502    0  0.40016590541E+03 -0.10644371271E+04  0.70319386608E+03  0.13370268370E+04  0.00000000000E+00 0. -1.
         -1    1    3    3    0  502  0.76383434588E+02 -0.13054019098E+03  0.11903623968E+03  0.19247024938E+03  0.00000000000E+00 0.  1.
         11    1    5    5    0    0 -0.14096630972E+03  0.14083302556E+03 -0.80694472466E+02  0.21498148629E+03  0.00000000000E+00 0.  1.
        -11    1    5    5    0    0 -0.38799088529E+03  0.21756601895E+03 -0.24968943563E+03  0.51011441259E+03  0.00000000000E+00 0. -1.
          3    1    6    6  503    0  0.51544757080E+02  0.56742283084E+03 -0.94742379781E+03  0.11055484538E+04  0.00000000000E+00 0. -1.
         -3    1    6    6    0  503  0.86309792545E+00  0.26915544276E+03 -0.34612953788E+03  0.43846442764E+03  0.00000000000E+00 0.  1.
<mgrwt>
<rscale>  0 0.37130408E+04</rscale>
<asrwt>0</asrwt>
<pdfrwt beam="1">  1        2 0.23053067E+00 0.37130408E+04</pdfrwt>
<pdfrwt beam="2">  1       -2 0.35387023E+00 0.37130408E+04</pdfrwt>
<totfact> 0.15099628E-01</totfact>
</mgrwt>
</event>
<event>
12    2  0.3561489E-008  0.1300787E+04  0.7818608E-02  0.9028941E-01
         -2   -1    0    0    0  501 -0.00000000000E+00  0.00000000000E+00  0.34599946499E+03  0.34599946499E+03  0.00000000000E+00 0.  1.
          2   -1    0    0  501    0  0.00000000000E+00 -0.00000000000E+00 -0.12225785893E+04  0.12225785893E+04  0.00000000000E+00 0. -1.
         23    2    1    2    0    0 -0.33052667167E+03  0.24132166657E+02 -0.16971591516E+03  0.38268929783E+03  0.88415862068E+02 0.  0.
        254    2    1    2    0    0  0.33052667167E+03 -0.24132166657E+02 -0.70686320915E+03  0.11858887565E+04  0.89266248050E+03 0.  0.
         23    2    4    4    0    0  0.22998230691E+02  0.80105587348E+02 -0.82123045504E+03  0.83035005673E+03  0.90088471420E+02 0.  0.
         23    2    4    4    0    0  0.30752844098E+03 -0.10423775401E+03  0.11436724589E+03  0.35553869973E+03  0.88818065209E+02 0.  0.
          4    1    3    3  502    0 -0.23308871937E+03 -0.10122963292E+02 -0.15048506719E+03  0.27763029542E+03  0.00000000000E+00 0. -1.
         -4    1    3    3    0  502 -0.97437952292E+02  0.34255129949E+02 -0.19230847967E+02  0.10505900241E+03  0.00000000000E+00 0.  1.
         11    1    5    5    0    0  0.33880460480E+02  0.71622553312E+02 -0.80565606437E+03  0.80954269177E+03  0.00000000000E+00 0. -1.
        -11    1    5    5    0    0 -0.10882229789E+02  0.84830340356E+01 -0.15574390667E+02  0.20807364953E+02  0.00000000000E+00 0.  1.
          4    1    6    6  503    0  0.14869054191E+03 -0.25554960053E+02  0.92418381059E+02  0.17692679388E+03  0.00000000000E+00 0. -1.
         -4    1    6    6    0  503  0.15883789907E+03 -0.78682793953E+02  0.21948864830E+02  0.17861190585E+03  0.00000000000E+00 0.  1.
<mgrwt>
<rscale>  0 0.13007867E+04</rscale>
<asrwt>0</asrwt>
<pdfrwt beam="1">  1        2 0.18808901E+00 0.13007867E+04</pdfrwt>
<pdfrwt beam="2">  1       -2 0.53230687E-01 0.13007867E+04</pdfrwt>
<totfact> 0.59871099E+01</totfact>
</mgrwt>
</event>
<event>
12    2  0.3561489E-008  0.2007491E+04  0.7818608E-02  0.8603126E-01
         -1   -1    0    0    0  501 -0.00000000000E+00  0.00000000000E+00  0.20343804991E+04  0.20343804991E+04  0.00000000000E+00 0.  1.
          1   -1    0    0  501    0  0.00000000000E+00 -0.00000000000E+00 -0.49523918249E+03  0.49523918249E+03  0.00000000000E+00 0. -1.
         23    2    1    2    0    0 -0.39435705456E+03  0.45099502976E+03  0.12763279965E+04  0.14128181498E+04  0.90155235209E+02 0.  0.
        254    2    1    2    0    0  0.39435705456E+03 -0.45099502976E+03  0.26281332014E+03  0.11168015318E+04  0.90513027619E+03 0.  0.
         23    2    4    4    0    0  0.10741862244E+03 -0.67720963085E+03  0.75311510465E+02  0.69588759403E+03  0.91848110174E+02 0.  0.
         23    2    4    4    0    0  0.28693843211E+03  0.22621460110E+03  0.18750180968E+03  0.42091393779E+03  0.92222040837E+02 0.  0.
          2    1    3    3  502    0 -0.18036450724E+03  0.25425303807E+03  0.73511196165E+03  0.79847702472E+03  0.00000000000E+00 0.  1.
         -2    1    3    3    0  502 -0.21399254732E+03  0.19674199169E+03  0.54121603483E+03  0.61434112507E+03  0.00000000000E+00 0. -1.
         11    1    5    5    0    0  0.74562396616E+02 -0.31123875254E+03  0.73788851492E+02  0.32844163359E+03  0.00000000000E+00 0.  1.
        -11    1    5    5    0    0  0.32856225827E+02 -0.36597087831E+03  0.15226589726E+01  0.36744596044E+03  0.00000000000E+00 0. -1.
          1    1    6    6  503    0  0.20813332396E+03  0.10817523114E+03  0.12556642498E+03  0.26606068529E+03  0.00000000000E+00 0. -1.
         -1    1    6    6    0  503  0.78805108156E+02  0.11803936996E+03  0.61935384699E+02  0.15485325250E+03  0.00000000000E+00 0.  1.
<mgrwt>
<rscale>  0 0.20074909E+04</rscale>
<asrwt>0</asrwt>
<pdfrwt beam="1">  1        1 0.76190644E-01 0.20074909E+04</pdfrwt>
<pdfrwt beam="2">  1       -1 0.31298161E+00 0.20074909E+04</pdfrwt>
<totfact> 0.11332807E+00</totfact>
</mgrwt>
</event>
<event>
12    2  0.3561489E-008  0.1193657E+04  0.7818608E-02  0.9118427E-01
          1   -1    0    0  501    0  0.00000000000E+00  0.00000000000E+00  0.22240304188E+04  0.22240304188E+04  0.00000000000E+00 0. -1.
         -1   -1    0    0    0  501 -0.00000000000E+00 -0.00000000000E+00 -0.16016150785E+03  0.16016150785E+03  0.00000000000E+00 0.  1.
         23    2    1    2    0    0  0.27075804137E+02  0.14967155060E+03  0.57832146257E+02  0.18285367405E+03  0.83404057112E+02 0.  0.
        254    2    1    2    0    0 -0.27075804137E+02 -0.14967155060E+03  0.20060367647E+04  0.22013382526E+04  0.89362851836E+03 0.  0.
         23    2    4    4    0    0 -0.35448895098E+03  0.15188058528E+03  0.13253855385E+04  0.13828324769E+04  0.82756902749E+02 0.  0.
         23    2    4    4    0    0  0.32741314685E+03 -0.30155213588E+03  0.68065122613E+03  0.81850577564E+03  0.92371823323E+02 0.  0.
          1    1    3    3  502    0  0.17889596284E+02  0.23250192008E+02 -0.18697205344E+02  0.34787850915E+02  0.00000000000E+00 0. -1.
         -1    1    3    3    0  502  0.91862078535E+01  0.12642135860E+03  0.76529351601E+02  0.14806582314E+03  0.00000000000E+00 0.  1.
         11    1    5    5    0    0 -0.11798287078E+02  0.25753810919E+02  0.73262825709E+02  0.78548710910E+02  0.00000000000E+00 0. -1.
        -11    1    5    5    0    0 -0.34269066391E+03  0.12612677436E+03  0.12521227128E+04  0.13042837660E+04  0.00000000000E+00 0.  1.
          3    1    6    6  503    0  0.57533575247E+02 -0.23955060227E+02  0.14273315179E+03  0.15574565744E+03  0.00000000000E+00 0. -1.
         -3    1    6    6    0  503  0.26987957160E+03 -0.27759707565E+03  0.53791807434E+03  0.66276011821E+03  0.00000000000E+00 0.  1.
<mgrwt>
<rscale>  0 0.11936567E+04</rscale>
<asrwt>0</asrwt>
<pdfrwt beam="1">  1        1 0.34215850E+00 0.11936567E+04</pdfrwt>
<pdfrwt beam="2">  1       -1 0.24640234E-01 0.11936567E+04</pdfrwt>
<totfact> 0.29938610E+01</totfact>
</mgrwt>
</event>
<event>
12    2  0.3561489E-008  0.1393968E+04  0.7818608E-02  0.8958196E-01
          3   -1    0    0  501    0  0.00000000000E+00  0.00000000000E+00  0.13291853058E+04  0.13291853058E+04  0.00000000000E+00 0. -1.
         -3   -1    0    0    0  501 -0.00000000000E+00 -0.00000000000E+00 -0.36547701481E+03  0.36547701481E+03  0.00000000000E+00 0.  1.
         23    2    1    2    0    0 -0.33647520052E+03  0.21462352627E+03  0.22707583065E+03  0.46828423428E+03  0.91912309392E+02 0.  0.
        254    2    1    2    0    0  0.33647520052E+03 -0.21462352627E+03  0.73663246029E+03  0.12263780863E+04  0.89559868824E+03 0.  0.
         23    2    4    4    0    0  0.43441890373E+03 -0.34222408404E+03  0.84223009504E+03  0.10121503556E+04  0.96227344301E+02 0.  0.
         23    2    4    4    0    0 -0.97943703211E+02  0.12760055777E+03 -0.10559763475E+03  0.21422773066E+03  0.94168937430E+02 0.  0.
          1    1    3    3  502    0 -0.80614565875E+02  0.30959119819E+02  0.90196150146E+02  0.12487001575E+03  0.00000000000E+00 0. -1.
         -1    1    3    3    0  502 -0.25586063464E+03  0.18366440645E+03  0.13687968051E+03  0.34341421853E+03  0.00000000000E+00 0.  1.
         11    1    5    5    0    0  0.34442972319E+03 -0.31247505390E+03  0.72598181079E+03  0.86216128602E+03  0.00000000000E+00 0.  1.
        -11    1    5    5    0    0  0.89989180544E+02 -0.29749030142E+02  0.11624828426E+03  0.14998906961E+03  0.00000000000E+00 0. -1.
          1    1    6    6  503    0 -0.23040487977E+02 -0.12675817717E+02 -0.73546237816E+01  0.27306243462E+02  0.00000000000E+00 0. -1.
         -1    1    6    6    0  503 -0.74903215234E+02  0.14027637549E+03 -0.98243010967E+02  0.18692148720E+03  0.00000000000E+00 0.  1.
<mgrwt>
<rscale>  0 0.13939680E+04</rscale>
<asrwt>0</asrwt>
<pdfrwt beam="1">  1        3 0.20449004E+00 0.13939680E+04</pdfrwt>
<pdfrwt beam="2">  1       -3 0.56227234E-01 0.13939680E+04</pdfrwt>
<totfact> 0.10971163E+00</totfact>
</mgrwt>
</event>
<event>
12    2  0.3561489E-008  0.1667270E+04  0.7818608E-02  0.8780255E-01
         -2   -1    0    0    0  501 -0.00000000000E+00  0.00000000000E+00  0.47668471171E+03  0.47668471171E+03  0.00000000000E+00 0.  1.
          2   -1    0    0  501    0  0.00000000000E+00 -0.00000000000E+00 -0.14578762241E+04  0.14578762241E+04  0.00000000000E+00 0. -1.
         23    2    1    2    0    0  0.47857840708E+03 -0.26686912113E+03 -0.96175436273E+02  0.56372886358E+03  0.91017017931E+02 0.  0.
        254    2    1    2    0    0 -0.47857840708E+03  0.26686912113E+03 -0.88501607609E+03  0.13708320722E+04  0.89200375318E+03 0.  0.
         23    2    4    4    0    0  0.12290761161E+03  0.18070266011E+03  0.59217598876E+02  0.24415138129E+03  0.91342435943E+02 0.  0.
         23    2    4    4    0    0 -0.60148601870E+03  0.86166461016E+02 -0.94423367496E+03  0.11266806909E+04  0.92855030232E+02 0.  0.
          2    1    3    3  502    0  0.28010163860E+03 -0.10441006625E+03 -0.55446044781E+02  0.30402738983E+03  0.00000000000E+00 0. -1.
         -2    1    3    3    0  502  0.19847676848E+03 -0.16245905488E+03 -0.40729391492E+02  0.25970147375E+03  0.00000000000E+00 0.  1.
         11    1    5    5    0    0  0.73505878704E+02  0.16364316986E+03  0.23681432758E+02  0.18095030120E+03  0.00000000000E+00 0. -1.
        -11    1    5    5    0    0  0.49401732909E+02  0.17059490249E+02  0.35536166118E+02  0.63201080089E+02  0.00000000000E+00 0.  1.
          1    1    6    6  503    0 -0.34045328904E+03  0.24158853274E+02 -0.59945910375E+03  0.68981396715E+03  0.00000000000E+00 0. -1.
         -1    1    6    6    0  503 -0.26103272966E+03  0.62007607742E+02 -0.34477457121E+03  0.43686672376E+03  0.00000000000E+00 0.  1.
<mgrwt>
<rscale>  0 0.16672700E+04</rscale>
<asrwt>0</asrwt>
<pdfrwt beam="1">  1        2 0.22428865E+00 0.16672700E+04</pdfrwt>
<pdfrwt beam="2">  1       -2 0.73336111E-01 0.16672700E+04</pdfrwt>
<totfact> 0.21469154E+01</totfact>
</mgrwt>
</event>
<event>
12    2  0.3561489E-008  0.1888545E+04  0.7818608E-02  0.8660579E-01
         -2   -1    0    0    0  501 -0.00000000000E+00  0.00000000000E+00  0.15894548943E+04  0.15894548943E+04  0.00000000000E+00 0. -1.
          2   -1    0    0  501    0  0.00000000000E+00 -0.00000000000E+00 -0.56097891530E+03  0.56097891530E+03  0.00000000000E+00 0.  1.
         23    2    1    2    0    0 -0.47218589983E+03  0.52798736028E+03  0.21847927749E+03  0.74686475662E+03  0.91343272227E+02 0.  0.
        254    2    1    2    0    0  0.47218589983E+03 -0.52798736028E+03  0.80999670154E+03  0.14035690530E+04  0.90121099273E+03 0.  0.
         23    2    4    4    0    0 -0.14620781441E+03 -0.53794473333E+02  0.54699642004E+03  0.57616826947E+03  0.92164097388E+02 0.  0.
         23    2    4    4    0    0  0.61839371424E+03 -0.47419288694E+03  0.26300028150E+03  0.82740078353E+03  0.90295230605E+02 0.  0.
          2    1    3    3  502    0 -0.20381154196E+03  0.28815818010E+03  0.85456522473E+02  0.36314886566E+03  0.00000000000E+00 0.  1.
         -2    1    3    3    0  502 -0.26837435787E+03  0.23982918017E+03  0.13302275501E+03  0.38371589096E+03  0.00000000000E+00 0. -1.
         11    1    5    5    0    0 -0.34162553422E+02 -0.43787407441E+02  0.91924903613E+02  0.10739927845E+03  0.00000000000E+00 0. -1.
        -11    1    5    5    0    0 -0.11204526099E+03 -0.10007065892E+02  0.45507151643E+03  0.46876899102E+03  0.00000000000E+00 0.  1.
          2    1    6    6  503    0  0.60221260065E+02 -0.82727444095E+02  0.25514511508E+02  0.10545814557E+03  0.00000000000E+00 0. -1.
         -2    1    6    6    0  503  0.55817245418E+03 -0.39146544285E+03  0.23748576999E+03  0.72194263795E+03  0.00000000000E+00 0.  1.
<mgrwt>
<rscale>  0 0.18885451E+04</rscale>
<asrwt>0</asrwt>
<pdfrwt beam="1">  1        2 0.86304449E-01 0.18885451E+04</pdfrwt>
<pdfrwt beam="2">  1       -2 0.24453152E+00 0.18885451E+04</pdfrwt>
<totfact> 0.34997336E+00</totfact>
</mgrwt>
</event>
<event>
12    2  0.3561489E-008  0.1298347E+04  0.7818608E-02  0.9030877E-01
          2   -1    0    0  501    0  0.00000000000E+00  0.00000000000E+00  0.27803610797E+04  0.27803610797E+04  0.00000000000E+00 0. -1.
         -2   -1    0    0    0  501 -0.00000000000E+00 -0.00000000000E+00 -0.15157254411E+03  0.15157254411E+03  0.00000000000E+00 0.  1.
         23    2    1    2    0    0 -0.26293350899E+02  0.16089389847E+03  0.13294665875E+04  0.13424763151E+04  0.90460282065E+02 0.  0.
        254    2    1    2    0    0  0.26293350899E+02 -0.16089389847E+03  0.12993219482E+04  0.15894573087E+04  0.90086559730E+03 0.  0.
         23    2    4    4    0    0 -0.35715133218E+03  0.56586787054E+02  0.25165506746E+03  0.44939540557E+03  0.88695090138E+02 0.  0.
         23    2    4    4    0    0  0.38344468308E+03 -0.21748068552E+03  0.10476668807E+04  0.11400619032E+04  0.88360491932E+02 0.  0.
          4    1    3    3  502    0 -0.23426153089E+02  0.17267831286E+03  0.12345376577E+04  0.12467757668E+04  0.00000000000E+00 0. -1.
         -4    1    3    3    0  502 -0.28671978099E+01 -0.11784414389E+02  0.94928929785E+02  0.95700548358E+02  0.00000000000E+00 0.  1.
         11    1    5    5    0    0 -0.35884652943E+03  0.46231812259E+02  0.24531830293E+03  0.43713760065E+03  0.00000000000E+00 0. -1.
        -11    1    5    5    0    0  0.16951972435E+01  0.10354974795E+02  0.63367645340E+01  0.12257804920E+02  0.00000000000E+00 0.  1.
          1    1    6    6  503    0  0.36909966718E+03 -0.19062245530E+03  0.93080832053E+03  0.10193015326E+04  0.00000000000E+00 0. -1.
         -1    1    6    6    0  503  0.14345015907E+02 -0.26858230222E+02  0.11685856018E+03  0.12076037057E+03  0.00000000000E+00 0.  1.
<mgrwt>
<rscale>  0 0.12983473E+04</rscale>
<asrwt>0</asrwt>
<pdfrwt beam="1">  1        2 0.42774782E+00 0.12983473E+04</pdfrwt>
<pdfrwt beam="2">  1       -2 0.23318855E-01 0.12983473E+04</pdfrwt>
<totfact> 0.38212487E+01</totfact>
</mgrwt>
</event>
<event>
12    2  0.3561489E-008  0.1434830E+04  0.7818608E-02  0.8928986E-01
          1   -1    0    0  501    0  0.00000000000E+00  0.00000000000E+00  0.53684878643E+03  0.53684878643E+03  0.00000000000E+00 0. -1.
         -1   -1    0    0    0  501 -0.00000000000E+00 -0.00000000000E+00 -0.95871317900E+03  0.95871317900E+03  0.00000000000E+00 0.  1.
         23    2    1    2    0    0  0.41455681496E+03 -0.12893323199E+03 -0.10768514174E+03  0.45679519994E+03  0.92653298924E+02 0.  0.
        254    2    1    2    0    0 -0.41455681496E+03  0.12893323199E+03 -0.31417925083E+03  0.10387667655E+04  0.88985766293E+03 0.  0.
         23    2    4    4    0    0 -0.94768159102E+02  0.35040029126E+02  0.30262270744E+03  0.33173468350E+03  0.90876782272E+02 0.  0.
         23    2    4    4    0    0 -0.31978865585E+03  0.93893202867E+02 -0.61680195827E+03  0.70703208199E+03  0.91482191012E+02 0.  0.
          3    1    3    3  502    0  0.33871554320E+03 -0.13968626008E+03 -0.77706913789E+02  0.37453816216E+03  0.00000000000E+00 0. -1.
         -3    1    3    3    0  502  0.75841271754E+02  0.10753028087E+02 -0.29978227949E+02  0.82257037786E+02  0.00000000000E+00 0.  1.
         11    1    5    5    0    0 -0.31751417920E+01  0.23850688363E+02  0.16044029213E+03  0.16223447291E+03  0.00000000000E+00 0.  1.
        -11    1    5    5    0    0 -0.91593017310E+02  0.11189340763E+02  0.14218241531E+03  0.16950021059E+03  0.00000000000E+00 0. -1.
          2    1    6    6  503    0 -0.20153279502E+03  0.89191698069E+02 -0.46468899771E+03  0.51430194542E+03  0.00000000000E+00 0. -1.
         -2    1    6    6    0  503 -0.11825586083E+03  0.47015047983E+01 -0.15211296056E+03  0.19273013656E+03  0.00000000000E+00 0.  1.
<mgrwt>
<rscale>  0 0.14348296E+04</rscale>
<asrwt>0</asrwt>
<pdfrwt beam="1">  1        1 0.82592122E-01 0.14348296E+04</pdfrwt>
<pdfrwt beam="2">  1       -1 0.14749433E+00 0.14348296E+04</pdfrwt>
<totfact> 0.14250350E+01</totfact>
</mgrwt>
</event>
<event>
12    2  0.3561489E-008  0.2020752E+04  0.7818608E-02  0.8596980E-01
          1   -1    0    0  501    0  0.00000000000E+00  0.00000000000E+00  0.92194786602E+03  0.92194786602E+03  0.00000000000E+00 0. -1.
         -1   -1    0    0    0  501 -0.00000000000E+00 -0.00000000000E+00 -0.11072854624E+04  0.11072854624E+04  0.00000000000E+00 0.  1.
         23    2    1    2    0    0  0.77865532040E+03  0.85367494154E+02 -0.32350675797E+03  0.85066363521E+03  0.73350397295E+02 0.  0.
        254    2    1    2    0    0 -0.77865532040E+03 -0.85367494154E+02  0.13816916163E+03  0.11785696932E+04  0.86968045133E+03 0.  0.
         23    2    4    4    0    0  0.45275547679E+02 -0.19127682771E+03  0.25486400705E+03  0.33475725661E+03  0.92032921955E+02 0.  0.
         23    2    4    4    0    0 -0.82393086807E+03  0.10590933356E+03 -0.11669484542E+03  0.84381243658E+03  0.91229813514E+02 0.  0.
          3    1    3    3  502    0  0.26478135558E+03  0.22454029434E+02 -0.14705916367E+03  0.30370997238E+03  0.00000000000E+00 0. -1.
         -3    1    3    3    0  502  0.51387396481E+03  0.62913464720E+02 -0.17644759430E+03  0.54695366284E+03  0.00000000000E+00 0.  1.
         11    1    5    5    0    0  0.19500907348E+02 -0.22150404559E+02  0.99064237120E+02  0.10336657528E+03  0.00000000000E+00 0. -1.
        -11    1    5    5    0    0  0.25774640331E+02 -0.16912642316E+03  0.15579976993E+03  0.23139068132E+03  0.00000000000E+00 0.  1.
          1    1    6    6  503    0 -0.39520787490E+03  0.32927078557E+02 -0.98070261215E+02  0.40852323437E+03  0.00000000000E+00 0. -1.
         -1    1    6    6    0  503 -0.42872299318E+03  0.72982255003E+02 -0.18624584208E+02  0.43528920221E+03  0.00000000000E+00 0.  1.
<mgrwt>
<rscale>  0 0.20207518E+04</rscale>
<asrwt>0</asrwt>
<pdfrwt beam="1">  1        1 0.14183813E+00 0.20207518E+04</pdfrwt>
<pdfrwt beam="2">  1       -1 0.17035161E+00 0.20207518E+04</pdfrwt>
<totfact> 0.39549340E+00</totfact>
</mgrwt>
</event>
<event>
12    2  0.3561489E-008  0.1415309E+04  0.7818608E-02  0.8942811E-01
          1   -1    0    0  501    0  0.00000000000E+00  0.00000000000E+00  0.97957688194E+03  0.97957688194E+03  0.00000000000E+00 0. -1.
         -1   -1    0    0    0  501 -0.00000000000E+00 -0.00000000000E+00 -0.51121582276E+03  0.51121582276E+03  0.00000000000E+00 0.  1.
         23    2    1    2    0    0 -0.18757407579E+03 -0.98943984412E+01 -0.24873579569E+03  0.32482973852E+03  0.91449056513E+02 0.  0.
        254    2    1    2    0    0  0.18757407579E+03  0.98943984412E+01  0.71709685487E+03  0.11659629662E+04  0.89997766984E+03 0.  0.
         23    2    4    4    0    0  0.14643445481E+01  0.43596139695E+03  0.35907981536E+03  0.57190725860E+03  0.89861642004E+02 0.  0.
         23    2    4    4    0    0  0.18610973125E+03 -0.42606699851E+03  0.35801703951E+03  0.59405570758E+03  0.92498993737E+02 0.  0.
          4    1    3    3  502    0 -0.16329821916E+03 -0.30563268428E+02 -0.23978478466E+03  0.29171418326E+03  0.00000000000E+00 0.  1.
         -4    1    3    3    0  502 -0.24275856632E+02  0.20668869987E+02 -0.89510110292E+01  0.33115555260E+02  0.00000000000E+00 0. -1.
         11    1    5    5    0    0 -0.31192858806E+02  0.16687681888E+03  0.10045725429E+03  0.19726258404E+03  0.00000000000E+00 0. -1.
        -11    1    5    5    0    0  0.32657203354E+02  0.26908457807E+03  0.25862256107E+03  0.37464467456E+03  0.00000000000E+00 0.  1.
          2    1    6    6  503    0  0.73179528283E+02 -0.13393348371E+03  0.17127101746E+03  0.22940615257E+03  0.00000000000E+00 0. -1.
         -2    1    6    6    0  503  0.11293020296E+03 -0.29213351480E+03  0.18674602205E+03  0.36464955501E+03  0.00000000000E+00 0.  1.
<mgrwt>
<rscale>  0 0.14153094E+04</rscale>
<asrwt>0</asrwt>
<pdfrwt beam="1">  1        1 0.15070414E+00 0.14153094E+04</pdfrwt>
<pdfrwt beam="2">  1       -1 0.78648588E-01 0.14153094E+04</pdfrwt>
<totfact> 0.24739203E+01</totfact>
</mgrwt>
</event>
<event>
12    2  0.3561489E-008  0.1423905E+04  0.7818608E-02  0.8936694E-01
         -1   -1    0    0    0  501 -0.00000000000E+00  0.00000000000E+00  0.20389084557E+03  0.20389084557E+03  0.00000000000E+00 0.  1.
          1   -1    0    0  501    0  0.00000000000E+00 -0.00000000000E+00 -0.24860194206E+04  0.24860194206E+04  0.00000000000E+00 0. -1.
         23    2    1    2    0    0 -0.14719954164E+03  0.32813869367E+03 -0.10901877382E+04  0.11515804766E+04  0.91025173375E+02 0.  0.
        254    2    1    2    0    0  0.14719954164E+03 -0.32813869367E+03 -0.11919408368E+04  0.15383297896E+04  0.90354461741E+03 0.  0.
         23    2    4    4    0    0  0.30258124186E+02 -0.53314093332E+03 -0.11640068859E+04  0.12837539579E+04  0.89204175571E+02 0.  0.
         23    2    4    4    0    0  0.11694141746E+03  0.20500223965E+03 -0.27933950866E+02  0.25457583170E+03  0.91254233311E+02 0.  0.
          4    1    3    3  502    0 -0.12138883325E+03  0.24864727778E+03 -0.93793267660E+03  0.97789489386E+03  0.00000000000E+00 0. -1.
         -4    1    3    3    0  502 -0.25810708391E+02  0.79491415889E+02 -0.15225506163E+03  0.17368558276E+03  0.00000000000E+00 0.  1.
         11    1    5    5    0    0  0.46224401919E+02 -0.22442992073E+03 -0.42831137519E+03  0.48575314592E+03  0.00000000000E+00 0.  1.
        -11    1    5    5    0    0 -0.15966277733E+02 -0.30871101259E+03 -0.73569551076E+03  0.79800081194E+03  0.00000000000E+00 0. -1.
          3    1    6    6  503    0  0.12710990437E+03  0.17757409452E+03 -0.67950593190E+01  0.21848491862E+03  0.00000000000E+00 0. -1.
         -3    1    6    6    0  503 -0.10168486910E+02  0.27428145123E+02 -0.21138891547E+02  0.36090913077E+02  0.00000000000E+00 0.  1.
<mgrwt>
<rscale>  0 0.14239053E+04</rscale>
<asrwt>0</asrwt>
<pdfrwt beam="1">  1        1 0.38246455E+00 0.14239053E+04</pdfrwt>
<pdfrwt beam="2">  1       -1 0.31367820E-01 0.14239053E+04</pdfrwt>
<totfact> 0.12758284E+01</totfact>
</mgrwt>
</event>
<event>
12    2  0.3561489E-008  0.3698309E+04  0.7818608E-02  0.8068337E-01
         -4   -1    0    0    0  501 -0.00000000000E+00  0.00000000000E+00  0.19863334816E+04  0.19863334816E+04  0.00000000000E+00 0.  1.
          4   -1    0    0  501    0  0.00000000000E+00 -0.00000000000E+00 -0.17214488871E+04  0.17214488871E+04  0.00000000000E+00 0. -1.
         23    2    1    2    0    0  0.15178828333E+04  0.26643168262E+03 -0.68382231668E+03  0.16884709927E+04  0.91472374424E+02 0.  0.
        254    2    1    2    0    0 -0.15178828333E+04 -0.26643168262E+03  0.94870691119E+03  0.20193113761E+04  0.89589033553E+03 0.  0.
         23    2    4    4    0    0 -0.14664148813E+03 -0.28623554589E+03 -0.21813653809E+02  0.33676866776E+03  0.97482235920E+02 0.  0.
         23    2    4    4    0    0 -0.13712413451E+04  0.19803863274E+02  0.97052056499E+03  0.16825427084E+04  0.91349760308E+02 0.  0.
          4    1    3    3  502    0  0.13425356783E+04  0.23687098648E+03 -0.63601363368E+03  0.15043348211E+04  0.00000000000E+00 0. -1.
         -4    1    3    3    0  502  0.17534715500E+03  0.29560696139E+02 -0.47808682998E+02  0.18413617161E+03  0.00000000000E+00 0.  1.
         11    1    5    5    0    0 -0.13200077592E+03 -0.28333660955E+03 -0.37852569291E+02  0.31485974045E+03  0.00000000000E+00 0. -1.
        -11    1    5    5    0    0 -0.14640712204E+02 -0.28989363360E+01  0.16038915482E+02  0.21908927302E+02  0.00000000000E+00 0.  1.
          3    1    6    6  503    0 -0.12965598634E+04  0.28756867205E+02  0.93828328552E+03  0.16007092055E+04  0.00000000000E+00 0. -1.
         -3    1    6    6    0  503 -0.74681481760E+02 -0.89530039318E+01  0.32237279471E+02  0.81833502827E+02  0.00000000000E+00 0.  1.
<mgrwt>
<rscale>  0 0.36983086E+04</rscale>
<asrwt>0</asrwt>
<pdfrwt beam="1">  1        4 0.26483829E+00 0.36983086E+04</pdfrwt>
<pdfrwt beam="2">  1       -4 0.30558977E+00 0.36983086E+04</pdfrwt>
<totfact> 0.23137281E-03</totfact>
</mgrwt>
</event>
<event>
12    2  0.3561489E-008  0.1400357E+04  0.7818608E-02  0.8953560E-01
          2   -1    0    0  501    0  0.00000000000E+00  0.00000000000E+00  0.14920485136E+04  0.14920485136E+04  0.00000000000E+00 0.  1.
         -2   -1    0    0    0  501 -0.00000000000E+00 -0.00000000000E+00 -0.32857492069E+03  0.32857492069E+03  0.00000000000E+00 0. -1.
         23    2    1    2    0    0  0.17353077055E+03 -0.17126829048E+03 -0.72397878152E+02  0.27084438033E+03  0.93109988429E+02 0.  0.
        254    2    1    2    0    0 -0.17353077055E+03  0.17126829048E+03  0.12358714711E+04  0.15497790540E+04  0.90276855697E+03 0.  0.
         23    2    4    4    0    0 -0.47071200530E+03 -0.11294317972E+03  0.82811461349E+03  0.96348015354E+03  0.90522038202E+02 0.  0.
         23    2    4    4    0    0  0.29718123475E+03  0.28421147021E+03  0.40775685758E+03  0.58629890043E+03  0.91585477314E+02 0.  0.
          3    1    3    3  502    0  0.11170157177E+03 -0.68809884754E+02 -0.41675522548E+00  0.13119533170E+03  0.00000000000E+00 0.  1.
         -3    1    3    3    0  502  0.61829198783E+02 -0.10245840573E+03 -0.71981122927E+02  0.13964904863E+03  0.00000000000E+00 0. -1.
         11    1    5    5    0    0 -0.39060455645E+03 -0.81130104313E+02  0.60913744548E+03  0.72815001259E+03  0.00000000000E+00 0. -1.
        -11    1    5    5    0    0 -0.80107448849E+02 -0.31813075409E+02  0.21897716802E+03  0.23533014095E+03  0.00000000000E+00 0.  1.
          1    1    6    6  503    0  0.46171672674E+02  0.59734368754E+02  0.12755985298E+03  0.14822798069E+03  0.00000000000E+00 0. -1.
         -1    1    6    6    0  503  0.25100956208E+03  0.22447710145E+03  0.28019700460E+03  0.43807091973E+03  0.00000000000E+00 0.  1.
<mgrwt>
<rscale>  0 0.14003567E+04</rscale>
<asrwt>0</asrwt>
<pdfrwt beam="1">  1        2 0.22954592E+00 0.14003567E+04</pdfrwt>
<pdfrwt beam="2">  1       -2 0.50549989E-01 0.14003567E+04</pdfrwt>
<totfact> 0.46184106E+01</totfact>
</mgrwt>
</event>
<event>
12    2  0.3561489E-008  0.1313373E+04  0.7818608E-02  0.9019027E-01
          1   -1    0    0  501    0  0.00000000000E+00  0.00000000000E+00  0.80136669745E+03  0.80136669745E+03  0.00000000000E+00 0. -1.
         -1   -1    0    0    0  501 -0.00000000000E+00 -0.00000000000E+00 -0.53812726501E+03  0.53812726501E+03  0.00000000000E+00 0.  1.
         23    2    1    2    0    0  0.64936550178E+02 -0.22209035921E+03 -0.18564098597E+03  0.31097852206E+03  0.93296207352E+02 0.  0.
        254    2    1    2    0    0 -0.64936550178E+02  0.22209035921E+03  0.44888041841E+03  0.10285154404E+04  0.89599637160E+03 0.  0.
         23    2    4    4    0    0  0.51961952171E+02  0.52732563357E+03  0.10884933672E+03  0.54822344070E+03  0.89041532689E+02 0.  0.
         23    2    4    4    0    0 -0.11689850235E+03 -0.30523527436E+03  0.34003108169E+03  0.48029199970E+03  0.90694188900E+02 0.  0.
          2    1    3    3  502    0  0.13921043341E+01 -0.12408450392E+03 -0.54997531969E+02  0.13573367522E+03  0.00000000000E+00 0. -1.
         -2    1    3    3    0  502  0.63544445844E+02 -0.98005855295E+02 -0.13064345400E+03  0.17524484684E+03  0.00000000000E+00 0.  1.
         11    1    5    5    0    0 -0.54205028227E+01  0.23484332593E+03  0.82627067012E+02  0.24901405942E+03  0.00000000000E+00 0. -1.
        -11    1    5    5    0    0  0.57382454993E+02  0.29248230763E+03  0.26222269710E+02  0.29920938128E+03  0.00000000000E+00 0.  1.
          4    1    6    6  503    0 -0.85223717773E+02 -0.28361588988E+03  0.27151149544E+03  0.40177051561E+03  0.00000000000E+00 0. -1.
         -4    1    6    6    0  503 -0.31674784575E+02 -0.21619384477E+02  0.68519586251E+02  0.78521484086E+02  0.00000000000E+00 0.  1.
<mgrwt>
<rscale>  0 0.13133732E+04</rscale>
<asrwt>0</asrwt>
<pdfrwt beam="1">  1        1 0.12328718E+00 0.13133732E+04</pdfrwt>
<pdfrwt beam="2">  1       -1 0.82788810E-01 0.13133732E+04</pdfrwt>
<totfact> 0.31381315E+01</totfact>
</mgrwt>
</event>
<event>
12    2  0.3561489E-008  0.1742265E+04  0.7818608E-02  0.8737619E-01
         -2   -1    0    0    0  501 -0.00000000000E+00  0.00000000000E+00  0.20522390055E+04  0.20522390055E+04  0.00000000000E+00 0.  1.
          2   -1    0    0  501    0  0.00000000000E+00 -0.00000000000E+00 -0.36977760037E+03  0.36977760037E+03  0.00000000000E+00 0. -1.
         23    2    1    2    0    0 -0.51008090026E+02 -0.49253716624E+03  0.71800455461E+02  0.50887699630E+03  0.92767486669E+02 0.  0.
        254    2    1    2    0    0  0.51008090026E+02  0.49253716624E+03  0.16106609496E+04  0.19131396095E+04  0.90591378481E+03 0.  0.
         23    2    4    4    0    0 -0.40370714174E+03  0.25507598733E+03  0.56618060211E+03  0.74596884210E+03  0.88689478416E+02 0.  0.
         23    2    4    4    0    0  0.45471523176E+03  0.23746117890E+03  0.10444803475E+04  0.11671707674E+04  0.90524308794E+02 0.  0.
          4    1    3    3  502    0 -0.25687120315E+02 -0.34304367340E+02 -0.63975849327E+01  0.43330668835E+02  0.00000000000E+00 0.  1.
         -4    1    3    3    0  502 -0.25320969711E+02 -0.45823279890E+03  0.78198040394E+02  0.46554632746E+03  0.00000000000E+00 0. -1.
         11    1    5    5    0    0 -0.42023359452E+02 -0.15975105497E+01  0.54328890504E+02  0.68703297759E+02  0.00000000000E+00 0.  1.
        -11    1    5    5    0    0 -0.36168378229E+03  0.25667349788E+03  0.51185171160E+03  0.67726554434E+03  0.00000000000E+00 0. -1.
          1    1    6    6  503    0  0.43696605535E+03  0.20897690642E+03  0.10028558847E+04  0.11137013094E+04  0.00000000000E+00 0. -1.
         -1    1    6    6    0  503  0.17749176410E+02  0.28484272482E+02  0.41624462794E+02  0.53469458057E+02  0.00000000000E+00 0.  1.
<mgrwt>
<rscale>  0 0.17422652E+04</rscale>
<asrwt>0</asrwt>
<pdfrwt beam="1">  1        2 0.56888863E-01 0.17422652E+04</pdfrwt>
<pdfrwt beam="2">  1       -2 0.31572907E+00 0.17422652E+04</pdfrwt>
<totfact> 0.21020902E+00</totfact>
</mgrwt>
</event>
<event>
12    2  0.3561489E-008  0.2318802E+04  0.7818608E-02  0.8470544E-01
         -1   -1    0    0    0  501 -0.00000000000E+00  0.00000000000E+00  0.82867994312E+03  0.82867994312E+03  0.00000000000E+00 0.  1.
          1   -1    0    0  501    0  0.00000000000E+00 -0.00000000000E+00 -0.16221107791E+04  0.16221107791E+04  0.00000000000E+00 0. -1.
         23    2    1    2    0    0  0.50351719530E+03  0.40210242307E+03 -0.10627433407E+04  0.12461489681E+04  0.90818048457E+02 0.  0.
        254    2    1    2    0    0 -0.50351719530E+03 -0.40210242307E+03  0.26931250474E+03  0.12046417541E+04  0.98153787797E+03 0.  0.
         23    2    4    4    0    0 -0.30923329046E+03 -0.61018127254E+03  0.47854707966E+03  0.83963183873E+03  0.89598570673E+02 0.  0.
         23    2    4    4    0    0 -0.19428390484E+03  0.20807884947E+03 -0.20923457492E+03  0.36500991536E+03  0.91706530247E+02 0.  0.
          1    1    3    3  502    0  0.25048401551E+03  0.25752559206E+03 -0.57799749007E+03  0.68054593609E+03  0.00000000000E+00 0.  1.
         -1    1    3    3    0  502  0.25303317979E+03  0.14457683101E+03 -0.48474585061E+03  0.56560303201E+03  0.00000000000E+00 0. -1.
         11    1    5    5    0    0 -0.29970751211E+03 -0.58849129379E+03  0.47916794442E+03  0.81593413622E+03  0.00000000000E+00 0. -1.
        -11    1    5    5    0    0 -0.95257783471E+01 -0.21689978748E+02 -0.62086475930E+00  0.23697702510E+02  0.00000000000E+00 0.  1.
          1    1    6    6  503    0 -0.18573627825E+03  0.21653051342E+03 -0.20773040699E+03  0.35289566488E+03  0.00000000000E+00 0. -1.
         -1    1    6    6    0  503 -0.85476265865E+01 -0.84516639421E+01 -0.15041679343E+01  0.12114250486E+02  0.00000000000E+00 0.  1.
<mgrwt>
<rscale>  0 0.23188020E+04</rscale>
<asrwt>0</asrwt>
<pdfrwt beam="1">  1        1 0.24955550E+00 0.23188020E+04</pdfrwt>
<pdfrwt beam="2">  1       -1 0.12748922E+00 0.23188020E+04</pdfrwt>
<totfact> 0.25902021E+00</totfact>
</mgrwt>
</event>
<event>
12    2  0.3561489E-008  0.1272731E+04  0.7818608E-02  0.9051474E-01
          1   -1    0    0  501    0  0.00000000000E+00  0.00000000000E+00  0.48885510215E+03  0.48885510215E+03  0.00000000000E+00 0. -1.
         -1   -1    0    0    0  501 -0.00000000000E+00 -0.00000000000E+00 -0.82838668289E+03  0.82838668289E+03  0.00000000000E+00 0.  1.
         23    2    1    2    0    0 -0.16742618602E+03  0.26081254557E+03 -0.86922589257E+02  0.33557766642E+03  0.94879512988E+02 0.  0.
        254    2    1    2    0    0  0.16742618602E+03 -0.26081254557E+03 -0.25260899149E+03  0.98166411862E+03  0.89654806202E+03 0.  0.
         23    2    4    4    0    0  0.30974258553E+03  0.17801358411E+03 -0.34137958616E+03  0.50195736563E+03  0.88271567629E+02 0.  0.
         23    2    4    4    0    0 -0.14231639950E+03 -0.43882612968E+03  0.88770594671E+02  0.47970675299E+03  0.97036182567E+02 0.  0.
          2    1    3    3  502    0 -0.55099537876E+02  0.11716816406E+03 -0.81810007728E+02  0.15315748466E+03  0.00000000000E+00 0. -1.
         -2    1    3    3    0  502 -0.11232664815E+03  0.14364438151E+03 -0.51125815284E+01  0.18242018176E+03  0.00000000000E+00 0.  1.
         11    1    5    5    0    0  0.11403639420E+03  0.94694382689E+02 -0.18954287838E+03  0.24061967513E+03  0.00000000000E+00 0.  1.
        -11    1    5    5    0    0  0.19570619132E+03  0.83319201416E+02 -0.15183670778E+03  0.26133769050E+03  0.00000000000E+00 0. -1.
          1    1    6    6  503    0 -0.29339056998E+02 -0.29037228836E+02 -0.11724328182E+02  0.42911546177E+02  0.00000000000E+00 0. -1.
         -1    1    6    6    0  503 -0.11297734251E+03 -0.40978890084E+03  0.10049492285E+03  0.43679520681E+03  0.00000000000E+00 0.  1.
<mgrwt>
<rscale>  0 0.12727310E+04</rscale>
<asrwt>0</asrwt>
<pdfrwt beam="1">  1        1 0.75208477E-01 0.12727310E+04</pdfrwt>
<pdfrwt beam="2">  1       -1 0.12744410E+00 0.12727310E+04</pdfrwt>
<totfact> 0.24008173E+01</totfact>
</mgrwt>
</event>
<event>
12    2  0.3561489E-008  0.1480343E+04  0.7818608E-02  0.8897631E-01
         -1   -1    0    0    0  501 -0.00000000000E+00  0.00000000000E+00  0.25645995996E+03  0.25645995996E+03  0.00000000000E+00 0.  1.
          1   -1    0    0  501    0  0.00000000000E+00 -0.00000000000E+00 -0.21362154625E+04  0.21362154625E+04  0.00000000000E+00 0. -1.
         23    2    1    2    0    0 -0.18125059871E+03 -0.28307725280E+03 -0.79800422557E+02  0.35654084644E+03  0.88140553405E+02 0.  0.
        254    2    1    2    0    0  0.18125059871E+03  0.28307725280E+03 -0.17999550800E+04  0.20361345760E+04  0.89051738395E+03 0.  0.
         23    2    4    4    0    0 -0.20383254802E+02 -0.30717100999E+03 -0.60869124473E+03  0.68811398031E+03  0.90699018950E+02 0.  0.
         23    2    4    4    0    0  0.20163385351E+03  0.59024826280E+03 -0.11912638352E+04  0.13480205957E+04  0.94872433542E+02 0.  0.
          1    1    3    3  502    0 -0.42738537601E+02 -0.56813663484E+02 -0.55393564880E+02  0.90126699623E+02  0.00000000000E+00 0. -1.
         -1    1    3    3    0  502 -0.13851206111E+03 -0.22626358932E+03 -0.24406857677E+02  0.26641414682E+03  0.00000000000E+00 0.  1.
         11    1    5    5    0    0  0.12046224362E+02 -0.73005055725E+02 -0.79971581953E+02  0.10895092291E+03  0.00000000000E+00 0. -1.
        -11    1    5    5    0    0 -0.32429479164E+02 -0.23416595427E+03 -0.52871966277E+03  0.57916305740E+03  0.00000000000E+00 0.  1.
          3    1    6    6  503    0  0.31992467253E+02  0.20870051248E+03 -0.34813690382E+03  0.40715933696E+03  0.00000000000E+00 0. -1.
         -3    1    6    6    0  503  0.16964138626E+03  0.38154775032E+03 -0.84312693143E+03  0.94086125874E+03  0.00000000000E+00 0.  1.
<mgrwt>
<rscale>  0 0.14803428E+04</rscale>
<asrwt>0</asrwt>
<pdfrwt beam="1">  1        1 0.32864855E+00 0.14803428E+04</pdfrwt>
<pdfrwt beam="2">  1       -1 0.39455376E-01 0.14803428E+04</pdfrwt>
<totfact> 0.14587429E+01</totfact>
</mgrwt>
</event>
<event>
12    2  0.3561489E-008  0.1626601E+04  0.7818608E-02  0.8804371E-01
         -2   -1    0    0    0  501 -0.00000000000E+00  0.00000000000E+00  0.15098435152E+04  0.15098435152E+04  0.00000000000E+00 0.  1.
          2   -1    0    0  501    0  0.00000000000E+00 -0.00000000000E+00 -0.43809696330E+03  0.43809696330E+03  0.00000000000E+00 0. -1.
         23    2    1    2    0    0  0.32025551332E+03 -0.36838959848E+02 -0.17470460237E+03  0.37663541210E+03  0.86092001832E+02 0.  0.
        254    2    1    2    0    0 -0.32025551332E+03  0.36838959848E+02  0.12464511542E+04  0.15713050664E+04  0.90079877271E+03 0.  0.
         23    2    4    4    0    0  0.28503368887E+02  0.37838232140E+02  0.12043901961E+04  0.12088774475E+04  0.92654005186E+02 0.  0.
         23    2    4    4    0    0 -0.34875888221E+03 -0.99927229201E+00  0.42060958106E+02  0.36242761887E+03  0.89167809540E+02 0.  0.
          2    1    3    3  502    0  0.29248918501E+03 -0.57700579797E+02 -0.14809607014E+03  0.33288395312E+03  0.00000000000E+00 0. -1.
         -2    1    3    3    0  502  0.27766328315E+02  0.20861619949E+02 -0.26608532226E+02  0.43751458972E+02  0.00000000000E+00 0.  1.
         11    1    5    5    0    0 -0.21421495698E+02  0.25939309585E+02  0.17473552443E+03  0.17794446256E+03  0.00000000000E+00 0. -1.
        -11    1    5    5    0    0  0.49924864586E+02  0.11898922555E+02  0.10296546717E+04  0.10309329849E+04  0.00000000000E+00 0.  1.
          2    1    6    6  503    0 -0.28177998654E+03 -0.33961832570E+02  0.19709790822E+02  0.28450279918E+03  0.00000000000E+00 0.  1.
         -2    1    6    6    0  503 -0.66978895673E+02  0.32962560278E+02  0.22351167284E+02  0.77924819696E+02  0.00000000000E+00 0. -1.
<mgrwt>
<rscale>  0 0.16266012E+04</rscale>
<asrwt>0</asrwt>
<pdfrwt beam="1">  1        2 0.67399533E-01 0.16266012E+04</pdfrwt>
<pdfrwt beam="2">  1       -2 0.23228362E+00 0.16266012E+04</pdfrwt>
<totfact> 0.56756067E+00</totfact>
</mgrwt>
</event>
<event>
12    2  0.3561489E-008  0.1293470E+04  0.7818608E-02  0.9034759E-01
          2   -1    0    0  501    0  0.00000000000E+00  0.00000000000E+00  0.29300335587E+04  0.29300335587E+04  0.00000000000E+00 0. -1.
         -2   -1    0    0    0  501 -0.00000000000E+00 -0.00000000000E+00 -0.14275141638E+03  0.14275141638E+03  0.00000000000E+00 0.  1.
         23    2    1    2    0    0 -0.93878949067E+02  0.17998724151E+03  0.12452502047E+03  0.25520308640E+03  0.91724971541E+02 0.  0.
        254    2    1    2    0    0  0.93878949067E+02 -0.17998724151E+03  0.26627571219E+04  0.28175818887E+04  0.89848959105E+03 0.  0.
         23    2    4    4    0    0 -0.38630769212E+03 -0.10987820788E+03  0.14710648957E+04  0.15276570047E+04  0.91635925678E+02 0.  0.
         23    2    4    4    0    0  0.48018664119E+03 -0.70109033628E+02  0.11916922262E+04  0.12899248840E+04  0.91001964985E+02 0.  0.
          3    1    3    3  502    0 -0.76534576791E+02  0.11854534340E+03  0.12902528185E+03  0.19120162981E+03  0.00000000000E+00 0. -1.
         -3    1    3    3    0  502 -0.17344372276E+02  0.61441898114E+02 -0.45002613864E+01  0.64001456593E+02  0.00000000000E+00 0.  1.
         11    1    5    5    0    0 -0.69341479883E+02  0.40848833630E+01  0.16872258984E+03  0.18246161083E+03  0.00000000000E+00 0. -1.
        -11    1    5    5    0    0 -0.31696621224E+03 -0.11396309124E+03  0.13023423059E+04  0.13451953938E+04  0.00000000000E+00 0.  1.
          4    1    6    6  503    0  0.42986441632E+03 -0.61695626613E+02  0.11253341372E+04  0.12062199995E+04  0.00000000000E+00 0. -1.
         -4    1    6    6    0  503  0.50322224867E+02 -0.84134070146E+01  0.66358088965E+02  0.83704884590E+02  0.00000000000E+00 0.  1.
<mgrwt>
<rscale>  0 0.12934704E+04</rscale>
<asrwt>0</asrwt>
<pdfrwt beam="1">  1        2 0.45077435E+00 0.12934704E+04</pdfrwt>
<pdfrwt beam="2">  1       -2 0.21961759E-01 0.12934704E+04</pdfrwt>
<totfact> 0.34550267E+01</totfact>
</mgrwt>
</event>
<event>
12    2  0.3561489E-008  0.1487447E+04  0.7818608E-02  0.8892844E-01
         -2   -1    0    0    0  501 -0.00000000000E+00  0.00000000000E+00  0.35176555029E+03  0.35176555029E+03  0.00000000000E+00 0.  1.
          2   -1    0    0  501    0  0.00000000000E+00 -0.00000000000E+00 -0.15724246181E+04  0.15724246181E+04  0.00000000000E+00 0. -1.
         23    2    1    2    0    0  0.31053260983E+03 -0.39291324260E+03 -0.50202432342E+03  0.71474027438E+03  0.89520503417E+02 0.  0.
        254    2    1    2    0    0 -0.31053260983E+03  0.39291324260E+03 -0.71863474435E+03  0.12094498940E+04  0.83397951550E+03 0.  0.
         23    2    4    4    0    0 -0.25778571800E+03  0.62802149181E+03 -0.64468624168E+03  0.94070147711E+03  0.91839252197E+02 0.  0.
         23    2    4    4    0    0 -0.52746891829E+02 -0.23510824921E+03 -0.73948502676E+02  0.26874841687E+03  0.93269539911E+02 0.  0.
          4    1    3    3  502    0  0.18456789842E+03 -0.25479863368E+03 -0.25514727321E+03  0.40507750355E+03  0.00000000000E+00 0. -1.
         -4    1    3    3    0  502  0.12596471141E+03 -0.13811460891E+03 -0.24687705021E+03  0.30966277083E+03  0.00000000000E+00 0.  1.
         11    1    5    5    0    0 -0.22582342408E+03  0.59824307141E+03 -0.61927143279E+03  0.89016183856E+03  0.00000000000E+00 0. -1.
        -11    1    5    5    0    0 -0.31962293916E+02  0.29778420399E+02 -0.25414808886E+02  0.50539638548E+02  0.00000000000E+00 0.  1.
          1    1    6    6  503    0 -0.75033388942E+02 -0.19826755001E+03 -0.44575388689E+02  0.21662639756E+03  0.00000000000E+00 0. -1.
         -1    1    6    6    0  503  0.22286497113E+02 -0.36840699200E+02 -0.29373113988E+02  0.52122019305E+02  0.00000000000E+00 0.  1.
<mgrwt>
<rscale>  0 0.14874472E+04</rscale>
<asrwt>0</asrwt>
<pdfrwt beam="1">  1        2 0.24191148E+00 0.14874472E+04</pdfrwt>
<pdfrwt beam="2">  1       -2 0.54117777E-01 0.14874472E+04</pdfrwt>
<totfact> 0.35926690E+01</totfact>
</mgrwt>
</event>
<event>
12    2  0.3561489E-008  0.1394378E+04  0.7818608E-02  0.8957898E-01
         -3   -1    0    0    0  501 -0.00000000000E+00  0.00000000000E+00  0.19657955575E+04  0.19657955575E+04  0.00000000000E+00 0.  1.
          3   -1    0    0  501    0  0.00000000000E+00 -0.00000000000E+00 -0.24726496008E+03  0.24726496008E+03  0.00000000000E+00 0. -1.
         23    2    1    2    0    0  0.33652364805E+03  0.20571410209E+03  0.67926203358E+03  0.79076061870E+03  0.91318061334E+02 0.  0.
        254    2    1    2    0    0 -0.33652364805E+03 -0.20571410209E+03  0.10392685638E+04  0.14222998989E+04  0.88729442524E+03 0.  0.
         23    2    4    4    0    0 -0.23755149416E+03  0.33020857676E+03  0.40611666816E+03  0.58217654748E+03  0.92359989936E+02 0.  0.
         23    2    4    4    0    0 -0.98972153895E+02 -0.53592267885E+03  0.63315189567E+03  0.84012335139E+03  0.88979309998E+02 0.  0.
          1    1    3    3  502    0  0.22531625844E+03  0.18301890408E+03  0.46168183345E+03  0.54535626053E+03  0.00000000000E+00 0. -1.
         -1    1    3    3    0  502  0.11120738962E+03  0.22695198013E+02  0.21758020014E+03  0.24540435817E+03  0.00000000000E+00 0.  1.
         11    1    5    5    0    0 -0.27886578176E+02  0.69036024101E+02  0.12226887578E+03  0.14315485269E+03  0.00000000000E+00 0. -1.
        -11    1    5    5    0    0 -0.20966491598E+03  0.26117255266E+03  0.28384779238E+03  0.43902169479E+03  0.00000000000E+00 0.  1.
          3    1    6    6  503    0 -0.35102919756E+02 -0.21917805675E+03  0.19328050653E+03  0.29432735133E+03  0.00000000000E+00 0. -1.
         -3    1    6    6    0  503 -0.63869234140E+02 -0.31674462210E+03  0.43987138914E+03  0.54579600006E+03  0.00000000000E+00 0.  1.
<mgrwt>
<rscale>  0 0.13943778E+04</rscale>
<asrwt>0</asrwt>
<pdfrwt beam="1">  1        3 0.38040764E-01 0.13943778E+04</pdfrwt>
<pdfrwt beam="2">  1       -3 0.30243008E+00 0.13943778E+04</pdfrwt>
<totfact> 0.64871624E-01</totfact>
</mgrwt>
</event>
<event>
12    2  0.3561489E-008  0.1603069E+04  0.7818608E-02  0.8818665E-01
          1   -1    0    0  501    0  0.00000000000E+00  0.00000000000E+00  0.61731125547E+03  0.61731125547E+03  0.00000000000E+00 0. -1.
         -1   -1    0    0    0  501 -0.00000000000E+00 -0.00000000000E+00 -0.10407355169E+04  0.10407355169E+04  0.00000000000E+00 0.  1.
         23    2    1    2    0    0  0.30241165436E+03  0.37561592805E+03  0.10846802090E+03  0.50505758966E+03  0.10381581388E+03 0.  0.
        254    2    1    2    0    0 -0.30241165436E+03 -0.37561592805E+03 -0.53189228235E+03  0.11529891827E+04  0.90218319723E+03 0.  0.
         23    2    4    4    0    0  0.18753289936E+03 -0.39128982036E+03 -0.28721581263E+02  0.44425104483E+03  0.90872161539E+02 0.  0.
         23    2    4    4    0    0 -0.48994455373E+03  0.15673892311E+02 -0.50317070109E+03  0.70873813790E+03  0.94008813701E+02 0.  0.
          4    1    3    3  502    0  0.13719825219E+03  0.23156987558E+03  0.95067799986E+02  0.28545727224E+03  0.00000000000E+00 0. -1.
         -4    1    3    3    0  502  0.16521340217E+03  0.14404605247E+03  0.13400220918E+02  0.21960031742E+03  0.00000000000E+00 0.  1.
         11    1    5    5    0    0 -0.55697694254E+01 -0.36194450464E+02 -0.15679726246E+02  0.39836094073E+02  0.00000000000E+00 0. -1.
        -11    1    5    5    0    0  0.19310266879E+03 -0.35509536990E+03 -0.13041855017E+02  0.40441495076E+03  0.00000000000E+00 0.  1.
          1    1    6    6  503    0  0.39564672562E+01  0.14304675797E+01 -0.89290453805E+01  0.98705482144E+01  0.00000000000E+00 0. -1.
         -1    1    6    6    0  503 -0.49390102098E+03  0.14243424731E+02 -0.49424165571E+03  0.69886758968E+03  0.00000000000E+00 0.  1.
<mgrwt>
<rscale>  0 0.16030692E+04</rscale>
<asrwt>0</asrwt>
<pdfrwt beam="1">  1        1 0.94970963E-01 0.16030692E+04</pdfrwt>
<pdfrwt beam="2">  1       -1 0.16011316E+00 0.16030692E+04</pdfrwt>
<totfact> 0.91939529E+00</totfact>
</mgrwt>
</event>
<event>
12    2  0.3561489E-008  0.2464743E+04  0.7818608E-02  0.8415655E-01
          2   -1    0    0  501    0  0.00000000000E+00  0.00000000000E+00  0.27606546001E+04  0.27606546001E+04  0.00000000000E+00 0. -1.
         -2   -1    0    0    0  501 -0.00000000000E+00 -0.00000000000E+00 -0.55013761568E+03  0.55013761568E+03  0.00000000000E+00 0.  1.
         23    2    1    2    0    0 -0.12211151900E+03  0.30919329062E+03 -0.40217196592E+03  0.52945732428E+03  0.89839045129E+02 0.  0.
        254    2    1    2    0    0  0.12211151900E+03 -0.30919329062E+03  0.26126889504E+04  0.27813348915E+04  0.89396225503E+03 0.  0.
         23    2    4    4    0    0  0.90590649191E+02  0.32629142197E+02  0.23136133893E+04  0.23174138042E+04  0.91260605418E+02 0.  0.
         23    2    4    4    0    0  0.31520869814E+02 -0.34182243282E+03  0.29907556102E+03  0.46392108729E+03  0.89109164601E+02 0.  0.
          2    1    3    3  502    0 -0.73530824075E+02  0.88101089726E+02 -0.10226359812E+03  0.15370890541E+03  0.00000000000E+00 0. -1.
         -2    1    3    3    0  502 -0.48580694929E+02  0.22109220089E+03 -0.29990836779E+03  0.37574841888E+03  0.00000000000E+00 0.  1.
         11    1    5    5    0    0  0.18096372682E+02 -0.17987058649E+02  0.16310654083E+03  0.16509014702E+03  0.00000000000E+00 0.  1.
        -11    1    5    5    0    0  0.72494276508E+02  0.50616200846E+02  0.21505068485E+04  0.21523236572E+04  0.00000000000E+00 0. -1.
          4    1    6    6  503    0  0.43776852503E+02 -0.25624260142E+03  0.17763373064E+03  0.31484984653E+03  0.00000000000E+00 0. -1.
         -4    1    6    6    0  503 -0.12255982690E+02 -0.85579831393E+02  0.12144183039E+03  0.14907124076E+03  0.00000000000E+00 0.  1.
<mgrwt>
<rscale>  0 0.24647433E+04</rscale>
<asrwt>0</asrwt>
<pdfrwt beam="1">  1        2 0.42471608E+00 0.24647433E+04</pdfrwt>
<pdfrwt beam="2">  1       -2 0.84636558E-01 0.24647433E+04</pdfrwt>
<totfact> 0.26580775E+00</totfact>
</mgrwt>
</event>
<event>
12    2  0.3561489E-008  0.1087957E+04  0.7818608E-02  0.9217009E-01
          2   -1    0    0  501    0  0.00000000000E+00  0.00000000000E+00  0.10810431649E+04  0.10810431649E+04  0.00000000000E+00 0. -1.
         -2   -1    0    0    0  501 -0.00000000000E+00 -0.00000000000E+00 -0.27372899837E+03  0.27372899837E+03  0.00000000000E+00 0.  1.
         23    2    1    2    0    0  0.11105844422E+02  0.49461990672E+02 -0.38078231830E+02  0.11099445970E+03  0.91104281150E+02 0.  0.
        254    2    1    2    0    0 -0.11105844422E+02 -0.49461990672E+02  0.84539239832E+03  0.12437777035E+04  0.91089233191E+03 0.  0.
         23    2    4    4    0    0  0.10811352970E+03 -0.25193001697E+03  0.93317699832E+03  0.97707055966E+03  0.93221776387E+02 0.  0.
         23    2    4    4    0    0 -0.11921937412E+03  0.20246802629E+03 -0.87784600008E+02  0.26670714386E+03  0.90664236334E+02 0.  0.
          3    1    3    3  502    0 -0.21502012750E+02  0.95772715529E-01  0.19067825071E+02  0.28738957491E+02  0.00000000000E+00 0. -1.
         -3    1    3    3    0  502  0.32607857172E+02  0.49366217956E+02 -0.57146056902E+02  0.82255502212E+02  0.00000000000E+00 0.  1.
         11    1    5    5    0    0  0.92285283711E+02 -0.25493093508E+03  0.84486326536E+03  0.88729943785E+03  0.00000000000E+00 0. -1.
        -11    1    5    5    0    0  0.15828245988E+02  0.30009181150E+01  0.88313732961E+02  0.89771121805E+02  0.00000000000E+00 0.  1.
          4    1    6    6  503    0 -0.69173762044E+01  0.79800301137E+02 -0.55085133764E+02  0.97212705533E+02  0.00000000000E+00 0. -1.
         -4    1    6    6    0  503 -0.11230199792E+03  0.12266772516E+03 -0.32699466245E+02  0.16949443833E+03  0.00000000000E+00 0.  1.
<mgrwt>
<rscale>  0 0.10879575E+04</rscale>
<asrwt>0</asrwt>
<pdfrwt beam="1">  1        2 0.16631433E+00 0.10879575E+04</pdfrwt>
<pdfrwt beam="2">  1       -2 0.42112154E-01 0.10879575E+04</pdfrwt>
<totfact> 0.11877510E+02</totfact>
</mgrwt>
</event>
<event>
12    2  0.3561489E-008  0.1412072E+04  0.7818608E-02  0.8945126E-01
         -1   -1    0    0    0  501 -0.00000000000E+00  0.00000000000E+00  0.28128690565E+03  0.28128690565E+03  0.00000000000E+00 0.  1.
          1   -1    0    0  501    0  0.00000000000E+00 -0.00000000000E+00 -0.17721660161E+04  0.17721660161E+04  0.00000000000E+00 0. -1.
         23    2    1    2    0    0  0.14894800863E+03  0.25461760715E+03 -0.47828398032E+02  0.31222205705E+03  0.90440157580E+02 0.  0.
        254    2    1    2    0    0 -0.14894800863E+03 -0.25461760715E+03 -0.14430507125E+04  0.17412308647E+04  0.92869474556E+03 0.  0.
         23    2    4    4    0    0 -0.48250541048E+03 -0.39965797951E+02 -0.11136196940E+04  0.12176928951E+04  0.90655544991E+02 0.  0.
         23    2    4    4    0    0  0.33355740185E+03 -0.21465180920E+03 -0.32943101850E+03  0.52353796964E+03  0.90726347815E+02 0.  0.
          4    1    3    3  502    0  0.54645738419E+02  0.24856968893E+02 -0.13089289929E+02  0.61443918664E+02  0.00000000000E+00 0. -1.
         -4    1    3    3    0  502  0.94302270206E+02  0.22976063826E+03 -0.34739108103E+02  0.25077813838E+03  0.00000000000E+00 0.  1.
         11    1    5    5    0    0 -0.26904892726E+03 -0.31785520225E+02 -0.72933720111E+03  0.77802981786E+03  0.00000000000E+00 0. -1.
        -11    1    5    5    0    0 -0.21345648322E+03 -0.81802777263E+01 -0.38428249285E+03  0.43966307723E+03  0.00000000000E+00 0.  1.
          4    1    6    6  503    0  0.18047333117E+03 -0.12177834489E+03 -0.12219590137E+03  0.24966462877E+03  0.00000000000E+00 0. -1.
         -4    1    6    6    0  503  0.15308407068E+03 -0.92873464308E+02 -0.20723511713E+03  0.27387334087E+03  0.00000000000E+00 0.  1.
<mgrwt>
<rscale>  0 0.14120724E+04</rscale>
<asrwt>0</asrwt>
<pdfrwt beam="1">  1        1 0.27264094E+00 0.14120724E+04</pdfrwt>
<pdfrwt beam="2">  1       -1 0.43274907E-01 0.14120724E+04</pdfrwt>
<totfact> 0.21842726E+01</totfact>
</mgrwt>
</event>
<event>
12    2  0.3561489E-008  0.2078522E+04  0.7818608E-02  0.8570764E-01
         -2   -1    0    0    0  501 -0.00000000000E+00  0.00000000000E+00  0.11301628864E+04  0.11301628864E+04  0.00000000000E+00 0.  1.
          2   -1    0    0  501    0  0.00000000000E+00 -0.00000000000E+00 -0.95567085483E+03  0.95567085483E+03  0.00000000000E+00 0. -1.
         23    2    1    2    0    0 -0.62328647423E+03 -0.10594676217E+03 -0.48160863210E+03  0.80015822677E+03  0.92712286065E+02 0.  0.
        254    2    1    2    0    0  0.62328647423E+03  0.10594676217E+03  0.65610066363E+03  0.12856755144E+04  0.90707370273E+03 0.  0.
         23    2    4    4    0    0 -0.18314588152E+03  0.18247087438E+03  0.74790657677E+02  0.28449985809E+03  0.92241492093E+02 0.  0.
         23    2    4    4    0    0  0.80643235576E+03 -0.76524112214E+02  0.58131000596E+03  0.10011756563E+04  0.90787045558E+02 0.  0.
          4    1    3    3  502    0 -0.45952637904E+03 -0.11691240559E+03 -0.37384046062E+03  0.60381263121E+03  0.00000000000E+00 0. -1.
         -4    1    3    3    0  502 -0.16376009519E+03  0.10965643420E+02 -0.10776817148E+03  0.19634559556E+03  0.00000000000E+00 0.  1.
         11    1    5    5    0    0 -0.17286641793E+03  0.16815007887E+03  0.93632579417E+02  0.25869732778E+03  0.00000000000E+00 0.  1.
        -11    1    5    5    0    0 -0.10279463594E+02  0.14320795515E+02 -0.18841921740E+02  0.25802530318E+02  0.00000000000E+00 0. -1.
          3    1    6    6  503    0  0.39867708408E+03 -0.38670569826E+02  0.34322139257E+03  0.52748436438E+03  0.00000000000E+00 0. -1.
         -3    1    6    6    0  503  0.40775527167E+03 -0.37853542388E+02  0.23808861339E+03  0.47369129195E+03  0.00000000000E+00 0.  1.
<mgrwt>
<rscale>  0 0.20785223E+04</rscale>
<asrwt>0</asrwt>
<pdfrwt beam="1">  1        2 0.14702628E+00 0.20785223E+04</pdfrwt>
<pdfrwt beam="2">  1       -2 0.17387121E+00 0.20785223E+04</pdfrwt>
<totfact> 0.49712052E+00</totfact>
</mgrwt>
</event>
<event>
12    2  0.3561489E-008  0.1534657E+04  0.7818608E-02  0.8861728E-01
          1   -1    0    0  501    0  0.00000000000E+00  0.00000000000E+00  0.11456399299E+04  0.11456399299E+04  0.00000000000E+00 0. -1.
         -1   -1    0    0    0  501 -0.00000000000E+00 -0.00000000000E+00 -0.51394260224E+03  0.51394260224E+03  0.00000000000E+00 0.  1.
         23    2    1    2    0    0  0.23881303459E+03  0.44006768702E+03  0.20902223006E+03  0.55013182221E+03  0.90903765026E+02 0.  0.
        254    2    1    2    0    0 -0.23881303459E+03 -0.44006768702E+03  0.42267509758E+03  0.11094507099E+04  0.89528509702E+03 0.  0.
         23    2    4    4    0    0  0.11637145071E+03  0.22051128746E+03  0.79456609605E+02  0.27839432643E+03  0.94986871435E+02 0.  0.
         23    2    4    4    0    0 -0.35518448530E+03 -0.66057897448E+03  0.34321848798E+03  0.83105638347E+03  0.10166209668E+03 0.  0.
          3    1    3    3  502    0  0.10754483123E+03  0.24352309978E+03  0.15368787292E+03  0.30739120536E+03  0.00000000000E+00 0. -1.
         -3    1    3    3    0  502  0.13126820336E+03  0.19654458724E+03  0.55334357140E+02  0.24274061684E+03  0.00000000000E+00 0.  1.
         11    1    5    5    0    0  0.25296960472E+02 -0.13672609701E+01  0.17141900286E+02  0.30588402329E+02  0.00000000000E+00 0. -1.
        -11    1    5    5    0    0  0.91074490237E+02  0.22187854843E+03  0.62314709319E+02  0.24780592410E+03  0.00000000000E+00 0.  1.
          2    1    6    6  503    0 -0.24982915030E+03 -0.38725431048E+03  0.17290533383E+03  0.49221617181E+03  0.00000000000E+00 0. -1.
         -2    1    6    6    0  503 -0.10535533499E+03 -0.27332466400E+03  0.17031315415E+03  0.33884021166E+03  0.00000000000E+00 0.  1.
<mgrwt>
<rscale>  0 0.15346572E+04</rscale>
<asrwt>0</asrwt>
<pdfrwt beam="1">  1        1 0.17625230E+00 0.15346572E+04</pdfrwt>
<pdfrwt beam="2">  1       -1 0.79068093E-01 0.15346572E+04</pdfrwt>
<totfact> 0.18082455E+01</totfact>
</mgrwt>
</event>
<event>
12    2  0.3561489E-008  0.1254859E+04  0.7818608E-02  0.9066149E-01
         -1   -1    0    0    0  501 -0.00000000000E+00  0.00000000000E+00  0.34164634848E+03  0.34164634848E+03  0.00000000000E+00 0.  1.
          1   -1    0    0  501    0  0.00000000000E+00 -0.00000000000E+00 -0.11522666473E+04  0.11522666473E+04  0.00000000000E+00 0. -1.
         23    2    1    2    0    0 -0.19827928033E+03  0.17534648206E+03 -0.22507930934E+02  0.28095848555E+03  0.91487714290E+02 0.  0.
        254    2    1    2    0    0  0.19827928033E+03 -0.17534648206E+03 -0.78811236789E+03  0.12129545102E+04  0.88321938254E+03 0.  0.
         23    2    4    4    0    0  0.13206441891E+03 -0.51935337829E+03 -0.35958272023E+03  0.65191072158E+03  0.92297962807E+02 0.  0.
         23    2    4    4    0    0  0.66214861421E+02  0.34400689623E+03 -0.42852964766E+03  0.56104378866E+03  0.91691446385E+02 0.  0.
          1    1    3    3  502    0 -0.12639817177E+02  0.60403585891E+02 -0.50470911628E+01  0.61917940018E+02  0.00000000000E+00 0. -1.
         -1    1    3    3    0  502 -0.18563946316E+03  0.11494289617E+03 -0.17460839771E+02  0.21904054553E+03  0.00000000000E+00 0.  1.
         11    1    5    5    0    0  0.11248922084E+03 -0.30309211018E+03 -0.17933152140E+03  0.36970048232E+03  0.00000000000E+00 0. -1.
        -11    1    5    5    0    0  0.19575198069E+02 -0.21626126811E+03 -0.18025119883E+03  0.28221023926E+03  0.00000000000E+00 0.  1.
          3    1    6    6  503    0  0.16730014991E+02  0.86487621693E+02 -0.17686294757E+03  0.19758670079E+03  0.00000000000E+00 0. -1.
         -3    1    6    6    0  503  0.49484846429E+02  0.25751927453E+03 -0.25166670010E+03  0.36345708787E+03  0.00000000000E+00 0.  1.
<mgrwt>
<rscale>  0 0.12548589E+04</rscale>
<asrwt>0</asrwt>
<pdfrwt beam="1">  1        1 0.17727179E+00 0.12548589E+04</pdfrwt>
<pdfrwt beam="2">  1       -1 0.52560977E-01 0.12548589E+04</pdfrwt>
<totfact> 0.41656732E+01</totfact>
</mgrwt>
</event>
<event>
12    2  0.3561489E-008  0.1335870E+04  0.7818608E-02  0.9001594E-01
         -2   -1    0    0    0  501 -0.00000000000E+00  0.00000000000E+00  0.34073976509E+03  0.34073976509E+03  0.00000000000E+00 0.  1.
          2   -1    0    0  501    0  0.00000000000E+00 -0.00000000000E+00 -0.13093194324E+04  0.13093194324E+04  0.00000000000E+00 0. -1.
         23    2    1    2    0    0 -0.10071229778E+01  0.27842558989E+03 -0.32481612828E+01  0.29288590183E+03  0.90828285985E+02 0.  0.
        254    2    1    2    0    0  0.10071229778E+01 -0.27842558989E+03 -0.96533150603E+03  0.13571732957E+04  0.91243225202E+03 0.  0.
         23    2    4    4    0    0 -0.12939693048E+03 -0.50889643572E+03 -0.93488548143E+03  0.10762644796E+04  0.92818202913E+02 0.  0.
         23    2    4    4    0    0  0.13040405346E+03  0.23047084583E+03 -0.30446024596E+02  0.28090881605E+03  0.88661009386E+02 0.  0.
          3    1    3    3  502    0 -0.85262398729E+01  0.31525164781E+02  0.29125324946E+02  0.43758625825E+02  0.00000000000E+00 0. -1.
         -3    1    3    3    0  502  0.75191168951E+01  0.24690042511E+03 -0.32373486229E+02  0.24912727600E+03  0.00000000000E+00 0.  1.
         11    1    5    5    0    0 -0.13264514625E+03 -0.46572440383E+03 -0.80578013318E+03  0.94009338801E+03  0.00000000000E+00 0.  1.
        -11    1    5    5    0    0  0.32482157710E+01 -0.43172031881E+02 -0.12910534825E+03  0.13617109161E+03  0.00000000000E+00 0. -1.
          3    1    6    6  503    0 -0.11198023231E+02  0.41099109220E+02 -0.84668424992E+01  0.43430633485E+02  0.00000000000E+00 0. -1.
         -3    1    6    6    0  503  0.14160207669E+03  0.18937173661E+03 -0.21979182096E+02  0.23747818256E+03  0.00000000000E+00 0.  1.
<mgrwt>
<rscale>  0 0.13358700E+04</rscale>
<asrwt>0</asrwt>
<pdfrwt beam="1">  1        2 0.20143375E+00 0.13358700E+04</pdfrwt>
<pdfrwt beam="2">  1       -2 0.52421504E-01 0.13358700E+04</pdfrwt>
<totfact> 0.54806452E+01</totfact>
</mgrwt>
</event>
<event>
12    2  0.3561489E-008  0.1341864E+04  0.7818608E-02  0.8997010E-01
          2   -1    0    0  501    0  0.00000000000E+00  0.00000000000E+00  0.14246870652E+04  0.14246870652E+04  0.00000000000E+00 0.  1.
         -2   -1    0    0    0  501 -0.00000000000E+00 -0.00000000000E+00 -0.31596402692E+03  0.31596402692E+03  0.00000000000E+00 0. -1.
         23    2    1    2    0    0  0.35103493412E+03  0.90804335211E+02  0.23245818144E+03  0.44201046514E+03  0.99325187694E+02 0.  0.
        254    2    1    2    0    0 -0.35103493412E+03 -0.90804335211E+02  0.87626485684E+03  0.12986406270E+04  0.88721836457E+03 0.  0.
         23    2    4    4    0    0 -0.26240967654E+03  0.34323910977E+03  0.20043836913E+03  0.48496547762E+03  0.91345770833E+02 0.  0.
         23    2    4    4    0    0 -0.88625257582E+02 -0.43404344498E+03  0.67582648772E+03  0.81367514936E+03  0.95276748371E+02 0.  0.
          4    1    3    3  502    0  0.27502357272E+03  0.91538612409E+02  0.13877015215E+03  0.32136340526E+03  0.00000000000E+00 0.  1.
         -4    1    3    3    0  502  0.76011361398E+02 -0.73427719797E+00  0.93688029296E+02  0.12064705988E+03  0.00000000000E+00 0. -1.
         11    1    5    5    0    0 -0.47794247726E+02  0.13014684791E+03  0.74058761432E+02  0.15718521649E+03  0.00000000000E+00 0. -1.
        -11    1    5    5    0    0 -0.21461542881E+03  0.21309226186E+03  0.12637960769E+03  0.32778026113E+03  0.00000000000E+00 0.  1.
          1    1    6    6  503    0 -0.10062530982E+03 -0.41967322772E+03  0.62511559049E+03  0.75961870205E+03  0.00000000000E+00 0. -1.
         -1    1    6    6    0  503  0.12000052238E+02 -0.14370217261E+02  0.50710897230E+02  0.54056447309E+02  0.00000000000E+00 0.  1.
<mgrwt>
<rscale>  0 0.13418642E+04</rscale>
<asrwt>0</asrwt>
<pdfrwt beam="1">  1        2 0.21918262E+00 0.13418642E+04</pdfrwt>
<pdfrwt beam="2">  1       -2 0.48609851E-01 0.13418642E+04</pdfrwt>
<totfact> 0.54855416E+01</totfact>
</mgrwt>
</event>
<event>
12    2  0.3561489E-008  0.2344884E+04  0.7818608E-02  0.8460431E-01
         -2   -1    0    0    0  501 -0.00000000000E+00  0.00000000000E+00  0.62952137489E+03  0.62952137489E+03  0.00000000000E+00 0.  1.
          2   -1    0    0  501    0  0.00000000000E+00 -0.00000000000E+00 -0.21835964515E+04  0.21835964515E+04  0.00000000000E+00 0. -1.
         23    2    1    2    0    0 -0.53934639597E+03 -0.48590176484E+03 -0.14946890373E+04  0.16642790771E+04  0.93458378381E+02 0.  0.
        254    2    1    2    0    0  0.53934639597E+03  0.48590176484E+03 -0.59386039337E+02  0.11488387493E+04  0.88843047574E+03 0.  0.
         23    2    4    4    0    0  0.33047295335E+03  0.70661681024E+03 -0.18538447834E+03  0.80717983917E+03  0.93017194886E+02 0.  0.
         23    2    4    4    0    0  0.20887344262E+03 -0.22071504540E+03  0.12599843901E+03  0.34165891010E+03  0.92260272698E+02 0.  0.
          4    1    3    3  502    0 -0.32085874858E+03 -0.34020962665E+03 -0.10103286742E+04  0.11133090121E+04  0.00000000000E+00 0. -1.
         -4    1    3    3    0  502 -0.21848764738E+03 -0.14569213819E+03 -0.48436036311E+03  0.55097006501E+03  0.00000000000E+00 0.  1.
         11    1    5    5    0    0  0.45315490781E+02  0.17447390722E+03 -0.21081960932E+02  0.18149128652E+03  0.00000000000E+00 0.  1.
        -11    1    5    5    0    0  0.28515746257E+03  0.53214290302E+03 -0.16430251741E+03  0.62568855265E+03  0.00000000000E+00 0. -1.
          2    1    6    6  503    0  0.10892751211E+03 -0.52786865207E+02  0.34405402378E+02  0.12583873707E+03  0.00000000000E+00 0.  1.
         -2    1    6    6    0  503  0.99945930504E+02 -0.16792818019E+03  0.91593036630E+02  0.21582017303E+03  0.00000000000E+00 0. -1.
<mgrwt>
<rscale>  0 0.23448843E+04</rscale>
<asrwt>0</asrwt>
<pdfrwt beam="1">  1        2 0.33593792E+00 0.23448843E+04</pdfrwt>
<pdfrwt beam="2">  1       -2 0.96849441E-01 0.23448843E+04</pdfrwt>
<totfact> 0.42438818E+00</totfact>
</mgrwt>
</event>
<event>
12    2  0.3561489E-008  0.1466494E+04  0.7818608E-02  0.8907045E-01
         -2   -1    0    0    0  501 -0.00000000000E+00  0.00000000000E+00  0.15364938436E+04  0.15364938436E+04  0.00000000000E+00 0.  1.
          2   -1    0    0  501    0  0.00000000000E+00 -0.00000000000E+00 -0.34992092883E+03  0.34992092883E+03  0.00000000000E+00 0. -1.
         23    2    1    2    0    0  0.27304457328E+03  0.26668507185E+03  0.66358241034E+03  0.77105353945E+03  0.92237079532E+02 0.  0.
        254    2    1    2    0    0 -0.27304457328E+03 -0.26668507185E+03  0.52299050443E+03  0.11153612330E+04  0.90820556361E+03 0.  0.
         23    2    4    4    0    0  0.16695072206E+03 -0.37623390960E+03  0.49720153232E+03  0.65190836639E+03  0.91381924352E+02 0.  0.
         23    2    4    4    0    0 -0.43999529534E+03  0.10954883776E+03  0.25788972111E+02  0.46345286659E+03  0.92340027575E+02 0.  0.
          3    1    3    3  502    0  0.20028803574E+02 -0.40021436047E+01  0.20974284115E+02  0.29276111767E+02  0.00000000000E+00 0. -1.
         -3    1    3    3    0  502  0.25301576971E+03  0.27068721545E+03  0.64260812622E+03  0.74177742768E+03  0.00000000000E+00 0.  1.
         11    1    5    5    0    0  0.77220224003E+02 -0.19181315618E+03  0.17981173775E+03  0.27402100451E+03  0.00000000000E+00 0. -1.
        -11    1    5    5    0    0  0.89730498053E+02 -0.18442075343E+03  0.31738979457E+03  0.37788736189E+03  0.00000000000E+00 0.  1.
          4    1    6    6  503    0 -0.84142417342E+02  0.48030785558E+02 -0.21487765869E+02  0.99240248083E+02  0.00000000000E+00 0. -1.
         -4    1    6    6    0  503 -0.35585287800E+03  0.61518052199E+02  0.47276737980E+02  0.36421261850E+03  0.00000000000E+00 0.  1.
<mgrwt>
<rscale>  0 0.14664943E+04</rscale>
<asrwt>0</asrwt>
<pdfrwt beam="1">  1        2 0.53833990E-01 0.14664943E+04</pdfrwt>
<pdfrwt beam="2">  1       -2 0.23638367E+00 0.14664943E+04</pdfrwt>
<totfact> 0.69845080E+00</totfact>
</mgrwt>
</event>
<event>
12    2  0.3561489E-008  0.1517915E+04  0.7818608E-02  0.8872626E-01
          1   -1    0    0  501    0  0.00000000000E+00  0.00000000000E+00  0.34767210251E+03  0.34767210251E+03  0.00000000000E+00 0. -1.
         -1   -1    0    0    0  501 -0.00000000000E+00 -0.00000000000E+00 -0.16567811504E+04  0.16567811504E+04  0.00000000000E+00 0.  1.
         23    2    1    2    0    0 -0.43630680187E+02  0.70915127686E+01 -0.10643155968E+04  0.10691600233E+04  0.91550750751E+02 0.  0.
        254    2    1    2    0    0  0.43630680187E+02 -0.70915127686E+01 -0.24479345106E+03  0.93529322961E+03  0.90160726809E+03 0.  0.
         23    2    4    4    0    0  0.32433492065E+02 -0.31454396656E+03 -0.44739953267E+03  0.55499149065E+03  0.88653113599E+02 0.  0.
         23    2    4    4    0    0  0.11197188121E+02  0.30745245379E+03  0.20260608161E+03  0.38030173897E+03  0.94487036092E+02 0.  0.
          1    1    3    3  502    0  0.24296472561E+02  0.58118579633E+01 -0.13006801578E+03  0.13244540385E+03  0.00000000000E+00 0. -1.
         -1    1    3    3    0  502 -0.67927152748E+02  0.12796548053E+01 -0.93424758106E+03  0.93671461947E+03  0.00000000000E+00 0.  1.
         11    1    5    5    0    0  0.31114303867E+02 -0.28581632956E+02 -0.64096953119E+02  0.76768672300E+02  0.00000000000E+00 0. -1.
        -11    1    5    5    0    0  0.13191881987E+01 -0.28596233360E+03 -0.38330257955E+03  0.47822281835E+03  0.00000000000E+00 0.  1.
          3    1    6    6  503    0  0.10249255394E+02  0.32425277907E+02  0.63645074859E+02  0.72160525478E+02  0.00000000000E+00 0. -1.
         -3    1    6    6    0  503  0.94793272728E+00  0.27502717588E+03  0.13896100675E+03  0.30814121349E+03  0.00000000000E+00 0.  1.
<mgrwt>
<rscale>  0 0.15179151E+04</rscale>
<asrwt>0</asrwt>
<pdfrwt beam="1">  1        1 0.53488016E-01 0.15179151E+04</pdfrwt>
<pdfrwt beam="2">  1       -1 0.25488941E+00 0.15179151E+04</pdfrwt>
<totfact> 0.45242861E+00</totfact>
</mgrwt>
</event>
<event>
12    2  0.3561489E-008  0.1955527E+04  0.7818608E-02  0.8627700E-01
         -2   -1    0    0    0  501 -0.00000000000E+00  0.00000000000E+00  0.38942788296E+03  0.38942788296E+03  0.00000000000E+00 0.  1.
          2   -1    0    0  501    0  0.00000000000E+00 -0.00000000000E+00 -0.24549391593E+04  0.24549391593E+04  0.00000000000E+00 0. -1.
         23    2    1    2    0    0  0.25111658653E+03 -0.23740999977E+03  0.17680328931E+03  0.39872378657E+03  0.91094494014E+02 0.  0.
        254    2    1    2    0    0 -0.25111658653E+03  0.23740999977E+03 -0.22423145657E+04  0.24456432557E+04  0.91311186323E+03 0.  0.
         23    2    4    4    0    0  0.17242024399E+03  0.39558864131E+03 -0.15677642812E+04  0.16283724211E+04  0.86560884218E+02 0.  0.
         23    2    4    4    0    0 -0.42353683052E+03 -0.15817864154E+03 -0.67455028447E+03  0.81727083462E+03  0.92247500787E+02 0.  0.
          3    1    3    3  502    0  0.12688869113E+03 -0.63445831864E+02  0.89995248593E+02  0.16800374486E+03  0.00000000000E+00 0. -1.
         -3    1    3    3    0  502  0.12422789540E+03 -0.17396416791E+03  0.86808040721E+02  0.23072004171E+03  0.00000000000E+00 0.  1.
         11    1    5    5    0    0  0.45345026114E+02  0.34748241697E+02 -0.18043135724E+03  0.18925930987E+03  0.00000000000E+00 0. -1.
        -11    1    5    5    0    0  0.12707521787E+03  0.36084039962E+03 -0.13873329240E+04  0.14391131112E+04  0.00000000000E+00 0.  1.
          4    1    6    6  503    0 -0.76622238004E+02  0.74666247471E+01 -0.11073687614E+03  0.13486798575E+03  0.00000000000E+00 0. -1.
         -4    1    6    6    0  503 -0.34691459252E+03 -0.16564526629E+03 -0.56381340833E+03  0.68240284887E+03  0.00000000000E+00 0.  1.
<mgrwt>
<rscale>  0 0.19555273E+04</rscale>
<asrwt>0</asrwt>
<pdfrwt beam="1">  1        2 0.37768295E+00 0.19555273E+04</pdfrwt>
<pdfrwt beam="2">  1       -2 0.59911982E-01 0.19555273E+04</pdfrwt>
<totfact> 0.89592273E+00</totfact>
</mgrwt>
</event>
<event>
12    2  0.3561489E-008  0.1545858E+04  0.7818608E-02  0.8854518E-01
         -2   -1    0    0    0  501 -0.00000000000E+00  0.00000000000E+00  0.52591632788E+03  0.52591632788E+03  0.00000000000E+00 0.  1.
          2   -1    0    0  501    0  0.00000000000E+00 -0.00000000000E+00 -0.11359589121E+04  0.11359589121E+04  0.00000000000E+00 0. -1.
         23    2    1    2    0    0 -0.90094853621E+02  0.73434325967E+02 -0.66933284790E+03  0.68607382725E+03  0.95818329517E+02 0.  0.
        254    2    1    2    0    0  0.90094853621E+02 -0.73434325967E+02  0.59290263710E+02  0.97580141271E+03  0.96703845777E+03 0.  0.
         23    2    4    4    0    0 -0.39654279007E+03  0.54013764988E+02 -0.12890999761E+03  0.43052800893E+03  0.92589998507E+02 0.  0.
         23    2    4    4    0    0  0.48663764369E+03 -0.12744809096E+03  0.18820026132E+03  0.54527340379E+03  0.94045384650E+02 0.  0.
          3    1    3    3  502    0 -0.96770566057E+02  0.82119383346E+02 -0.65867181649E+03  0.67078811663E+03  0.00000000000E+00 0. -1.
         -3    1    3    3    0  502  0.66757124359E+01 -0.86850573789E+01 -0.10661031412E+02  0.15285710614E+02  0.00000000000E+00 0.  1.
         11    1    5    5    0    0 -0.27577829079E+03  0.61961674556E+02 -0.12600454858E+03  0.30946738285E+03  0.00000000000E+00 0. -1.
        -11    1    5    5    0    0 -0.12076449928E+03 -0.79479095686E+01 -0.29054490324E+01  0.12106062608E+03  0.00000000000E+00 0.  1.
          4    1    6    6  503    0  0.95063078919E+02  0.11650361776E+02  0.44221937462E+02  0.10549075626E+03  0.00000000000E+00 0.  1.
         -4    1    6    6    0  503  0.39157456477E+03 -0.13909845273E+03  0.14397832386E+03  0.43978264753E+03  0.00000000000E+00 0. -1.
<mgrwt>
<rscale>  0 0.15458581E+04</rscale>
<asrwt>0</asrwt>
<pdfrwt beam="1">  1        2 0.17476291E+00 0.15458581E+04</pdfrwt>
<pdfrwt beam="2">  1       -2 0.80910206E-01 0.15458581E+04</pdfrwt>
<totfact> 0.26870078E+01</totfact>
</mgrwt>
</event>
<event>
12    2  0.3561489E-008  0.1495367E+04  0.7818608E-02  0.8887540E-01
         -1   -1    0    0    0  501 -0.00000000000E+00  0.00000000000E+00  0.16750490991E+03  0.16750490991E+03  0.00000000000E+00 0.  1.
          1   -1    0    0  501    0  0.00000000000E+00 -0.00000000000E+00 -0.33373972375E+04  0.33373972375E+04  0.00000000000E+00 0. -1.
         23    2    1    2    0    0  0.14191756545E+03 -0.34470800295E+02  0.15217250876E+02  0.17648050377E+03  0.97902870401E+02 0.  0.
        254    2    1    2    0    0 -0.14191756545E+03  0.34470800295E+02 -0.31851095785E+04  0.33284216437E+04  0.95505956858E+03 0.  0.
         23    2    4    4    0    0 -0.47396673194E+03  0.95175488546E+02 -0.99006101146E+03  0.11057265677E+04  0.93314519627E+02 0.  0.
         23    2    4    4    0    0  0.33204916650E+03 -0.60704688251E+02 -0.21950485670E+04  0.22226950759E+04  0.90517847792E+02 0.  0.
          2    1    3    3  502    0  0.82154813821E+02  0.20649165891E+02 -0.21312715987E+02  0.87350062099E+02  0.00000000000E+00 0.  1.
         -2    1    3    3    0  502  0.59762751625E+02 -0.55119966186E+02  0.36529966863E+02  0.89130441675E+02  0.00000000000E+00 0. -1.
         11    1    5    5    0    0 -0.14827119862E+02 -0.52975019255E+01 -0.79228447020E+02  0.80777805289E+02  0.00000000000E+00 0. -1.
        -11    1    5    5    0    0 -0.45913961208E+03  0.10047299047E+03 -0.91083256444E+03  0.10249487624E+04  0.00000000000E+00 0.  1.
          3    1    6    6  503    0  0.56503226429E+01 -0.15797420369E+02 -0.19187308830E+03  0.19260520930E+03  0.00000000000E+00 0. -1.
         -3    1    6    6    0  503  0.32639884385E+03 -0.44907267882E+02 -0.20031754787E+04  0.20300898666E+04  0.00000000000E+00 0.  1.
<mgrwt>
<rscale>  0 0.14953667E+04</rscale>
<asrwt>0</asrwt>
<pdfrwt beam="1">  1        1 0.51344571E+00 0.14953667E+04</pdfrwt>
<pdfrwt beam="2">  1       -1 0.25769987E-01 0.14953667E+04</pdfrwt>
<totfact> 0.43441953E+00</totfact>
</mgrwt>
</event>
<event>
12    2  0.3561489E-008  0.1124072E+04  0.7818608E-02  0.9182042E-01
         -1   -1    0    0    0  501 -0.00000000000E+00  0.00000000000E+00  0.15242908319E+03  0.15242908319E+03  0.00000000000E+00 0.  1.
          1   -1    0    0  501    0  0.00000000000E+00 -0.00000000000E+00 -0.20723374968E+04  0.20723374968E+04  0.00000000000E+00 0. -1.
         23    2    1    2    0    0 -0.29044297262E+01 -0.17304741416E+03 -0.44697240175E+03  0.48771301002E+03  0.90143269049E+02 0.  0.
        254    2    1    2    0    0  0.29044297262E+01  0.17304741416E+03 -0.14729360119E+04  0.17370535700E+04  0.90435654841E+03 0.  0.
         23    2    4    4    0    0  0.27903332886E+03  0.15122942178E+02 -0.80186477246E+02  0.30553202012E+03  0.93976817294E+02 0.  0.
         23    2    4    4    0    0 -0.27612889914E+03  0.15792447198E+03 -0.13927495346E+04  0.14315215499E+04  0.91188671055E+02 0.  0.
          1    1    3    3  502    0 -0.21549139259E+02 -0.11550630249E+03 -0.37865645241E+03  0.39646788050E+03  0.00000000000E+00 0. -1.
         -1    1    3    3    0  502  0.18644709533E+02 -0.57541111676E+02 -0.68315949338E+02  0.91245129516E+02  0.00000000000E+00 0.  1.
         11    1    5    5    0    0  0.25912068064E+03  0.90213737921E+01 -0.98932528478E+02  0.27751136465E+03  0.00000000000E+00 0.  1.
        -11    1    5    5    0    0  0.19912648225E+02  0.61015683863E+01  0.18746051232E+02  0.28020655468E+02  0.00000000000E+00 0. -1.
          3    1    6    6  503    0 -0.14506557799E+03  0.60821168851E+02 -0.86334324143E+03  0.87755614579E+03  0.00000000000E+00 0. -1.
         -3    1    6    6    0  503 -0.13106332114E+03  0.97103303133E+02 -0.52940629321E+03  0.55396540408E+03  0.00000000000E+00 0.  1.
<mgrwt>
<rscale>  0 0.11240721E+04</rscale>
<asrwt>0</asrwt>
<pdfrwt beam="1">  1        1 0.31882112E+00 0.11240721E+04</pdfrwt>
<pdfrwt beam="2">  1       -1 0.23450631E-01 0.11240721E+04</pdfrwt>
<totfact> 0.41514751E+01</totfact>
</mgrwt>
</event>
<event>
12    2  0.3561489E-008  0.1248065E+04  0.7818608E-02  0.9071795E-01
          2   -1    0    0  501    0  0.00000000000E+00  0.00000000000E+00  0.25123214538E+04  0.25123214538E+04  0.00000000000E+00 0.  1.
         -2   -1    0    0    0  501 -0.00000000000E+00 -0.00000000000E+00 -0.15500269618E+03  0.15500269618E+03  0.00000000000E+00 0. -1.
         23    2    1    2    0    0 -0.23393663641E+03 -0.12638025437E+03  0.30161491122E+03  0.41236587238E+03  0.91519066218E+02 0.  0.
        254    2    1    2    0    0  0.23393663641E+03  0.12638025437E+03  0.20557038464E+04  0.22549582776E+04  0.88781766773E+03 0.  0.
         23    2    4    4    0    0  0.51192743029E+03  0.27061825767E+03  0.11283388970E+04  0.12718669831E+04  0.95880242734E+02 0.  0.
         23    2    4    4    0    0 -0.27799079388E+03 -0.14423800330E+03  0.92736494942E+03  0.98309129453E+03  0.91538302930E+02 0.  0.
          2    1    3    3  502    0 -0.22235079382E+03 -0.11404767390E+03  0.30581643866E+03  0.39493093268E+03  0.00000000000E+00 0.  1.
         -2    1    3    3    0  502 -0.11585842587E+02 -0.12332580467E+02 -0.42015274349E+01  0.17434939696E+02  0.00000000000E+00 0. -1.
         11    1    5    5    0    0  0.16517596620E+03  0.39182666763E+02  0.30871133441E+03  0.35230820198E+03  0.00000000000E+00 0. -1.
        -11    1    5    5    0    0  0.34675146408E+03  0.23143559090E+03  0.81962756260E+03  0.91955878113E+03  0.00000000000E+00 0.  1.
          2    1    6    6  503    0 -0.26483268169E+03 -0.12397049169E+03  0.76578379802E+03  0.81971327757E+03  0.00000000000E+00 0. -1.
         -2    1    6    6    0  503 -0.13158112193E+02 -0.20267511606E+02  0.16158115139E+03  0.16337801697E+03  0.00000000000E+00 0.  1.
<mgrwt>
<rscale>  0 0.12480651E+04</rscale>
<asrwt>0</asrwt>
<pdfrwt beam="1">  1        2 0.38651096E+00 0.12480651E+04</pdfrwt>
<pdfrwt beam="2">  1       -2 0.23846570E-01 0.12480651E+04</pdfrwt>
<totfact> 0.52931745E+01</totfact>
</mgrwt>
</event>
<event>
12    2  0.3561489E-008  0.1877390E+04  0.7818608E-02  0.8666193E-01
         -2   -1    0    0    0  501 -0.00000000000E+00  0.00000000000E+00  0.64491515679E+03  0.64491515679E+03  0.00000000000E+00 0. -1.
          2   -1    0    0  501    0  0.00000000000E+00 -0.00000000000E+00 -0.13663012094E+04  0.13663012094E+04  0.00000000000E+00 0.  1.
         23    2    1    2    0    0 -0.36467558815E+03  0.10951258294E+03  0.37837720580E+03  0.54493975977E+03  0.93854895922E+02 0.  0.
        254    2    1    2    0    0  0.36467558815E+03 -0.10951258294E+03 -0.10997632584E+04  0.14662766064E+04  0.89191175100E+03 0.  0.
         23    2    4    4    0    0  0.37878018149E+03 -0.46185978283E+03 -0.64909122505E+03  0.88665451829E+03  0.89710264127E+02 0.  0.
         23    2    4    4    0    0 -0.14104593334E+02  0.35234719989E+03 -0.45067203336E+03  0.57962208813E+03  0.92244211586E+02 0.  0.
          2    1    3    3  502    0 -0.28509862426E+03  0.10917874011E+03  0.33882727083E+03  0.45607580763E+03  0.00000000000E+00 0. -1.
         -2    1    3    3    0  502 -0.79576963894E+02  0.33384283476E+00  0.39549934971E+02  0.88863952140E+02  0.00000000000E+00 0.  1.
         11    1    5    5    0    0  0.61458145042E+02 -0.32202851702E+02 -0.63517132335E+02  0.94066749438E+02  0.00000000000E+00 0.  1.
        -11    1    5    5    0    0  0.31732203645E+03 -0.42965693113E+03 -0.58557409271E+03  0.79258776885E+03  0.00000000000E+00 0. -1.
          4    1    6    6  503    0 -0.18610469979E+02  0.33827202608E+03 -0.38736286702E+03  0.51461082769E+03  0.00000000000E+00 0. -1.
         -4    1    6    6    0  503  0.45058766448E+01  0.14075173804E+02 -0.63309166336E+02  0.65011260441E+02  0.00000000000E+00 0.  1.
<mgrwt>
<rscale>  0 0.18773901E+04</rscale>
<asrwt>0</asrwt>
<pdfrwt beam="1">  1        2 0.21020018E+00 0.18773901E+04</pdfrwt>
<pdfrwt beam="2">  1       -2 0.99217718E-01 0.18773901E+04</pdfrwt>
<totfact> 0.11948016E+01</totfact>
</mgrwt>
</event>
<event>
12    2  0.3561489E-008  0.1812814E+04  0.7818608E-02  0.8699515E-01
          2   -1    0    0  501    0  0.00000000000E+00  0.00000000000E+00  0.32927047061E+04  0.32927047061E+04  0.00000000000E+00 0. -1.
         -2   -1    0    0    0  501 -0.00000000000E+00 -0.00000000000E+00 -0.24951333135E+03  0.24951333135E+03  0.00000000000E+00 0.  1.
         23    2    1    2    0    0 -0.71870623304E+02  0.14461282918E+03 -0.14126640189E+03  0.23226159755E+03  0.88943783016E+02 0.  0.
        254    2    1    2    0    0  0.71870623304E+02 -0.14461282918E+03  0.31844577767E+04  0.33099564399E+04  0.88823535505E+03 0.  0.
         23    2    4    4    0    0 -0.22561044407E+03 -0.29735672529E+03  0.67568065096E+03  0.77731200625E+03  0.91370227245E+02 0.  0.
         23    2    4    4    0    0  0.29748106738E+03  0.15274389611E+03  0.25087771257E+04  0.25326444337E+04  0.92192612032E+02 0.  0.
          3    1    3    3  502    0 -0.34894497687E+02  0.10012691092E+03 -0.35693863098E+02  0.11187973955E+03  0.00000000000E+00 0. -1.
         -3    1    3    3    0  502 -0.36976125617E+02  0.44485918259E+02 -0.10557253879E+03  0.12038185800E+03  0.00000000000E+00 0.  1.
         11    1    5    5    0    0 -0.54319592863E+02 -0.32894305121E+02  0.17028162333E+03  0.18173740595E+03  0.00000000000E+00 0. -1.
        -11    1    5    5    0    0 -0.17129085121E+03 -0.26446242017E+03  0.50539902764E+03  0.59557460030E+03  0.00000000000E+00 0.  1.
          2    1    6    6  503    0  0.22650266629E+03  0.15659974985E+03  0.19413127554E+04  0.19607453057E+04  0.00000000000E+00 0.  1.
         -2    1    6    6    0  503  0.70978401084E+02 -0.38558537342E+01  0.56746437028E+03  0.57189912796E+03  0.00000000000E+00 0. -1.
<mgrwt>
<rscale>  0 0.18128141E+04</rscale>
<asrwt>0</asrwt>
<pdfrwt beam="1">  1        2 0.50656992E+00 0.18128141E+04</pdfrwt>
<pdfrwt beam="2">  1       -2 0.38386669E-01 0.18128141E+04</pdfrwt>
<totfact> 0.68502200E+00</totfact>
</mgrwt>
</event>
<event>
12    2  0.3561489E-008  0.1683325E+04  0.7818608E-02  0.8770932E-01
          1   -1    0    0  501    0  0.00000000000E+00  0.00000000000E+00  0.11176198684E+04  0.11176198684E+04  0.00000000000E+00 0. -1.
         -1   -1    0    0    0  501 -0.00000000000E+00 -0.00000000000E+00 -0.63384298846E+03  0.63384298846E+03  0.00000000000E+00 0.  1.
         23    2    1    2    0    0 -0.25963674756E+03  0.40384490121E+03 -0.19496968057E+03  0.52624352155E+03  0.91744878379E+02 0.  0.
        254    2    1    2    0    0  0.25963674756E+03 -0.40384490121E+03  0.67874656052E+03  0.12252193353E+04  0.89997976716E+03 0.  0.
         23    2    4    4    0    0 -0.15063019170E+03  0.19371365748E+03  0.31923067554E+03  0.41078058323E+03  0.81351260641E+02 0.  0.
         23    2    4    4    0    0  0.41026693927E+03 -0.59755855869E+03  0.35951588498E+03  0.81443875209E+03  0.93078551912E+02 0.  0.
          3    1    3    3  502    0 -0.19902488455E+02  0.56382237948E+02  0.32521625407E+01  0.59880233500E+02  0.00000000000E+00 0. -1.
         -3    1    3    3    0  502 -0.23973425911E+03  0.34746266326E+03 -0.19822184311E+03  0.46636328805E+03  0.00000000000E+00 0.  1.
         11    1    5    5    0    0 -0.12651850504E+03  0.12494686361E+03  0.17659454575E+03  0.25060782995E+03  0.00000000000E+00 0.  1.
        -11    1    5    5    0    0 -0.24111686666E+02  0.68766793867E+02  0.14263612979E+03  0.16017275328E+03  0.00000000000E+00 0. -1.
          2    1    6    6  503    0  0.28559168167E+03 -0.48346231992E+03  0.28571471786E+03  0.63002485937E+03  0.00000000000E+00 0. -1.
         -2    1    6    6    0  503  0.12467525760E+03 -0.11409623877E+03  0.73801167120E+02  0.18441389272E+03  0.00000000000E+00 0.  1.
<mgrwt>
<rscale>  0 0.16833247E+04</rscale>
<asrwt>0</asrwt>
<pdfrwt beam="1">  1        1 0.17194152E+00 0.16833247E+04</pdfrwt>
<pdfrwt beam="2">  1       -1 0.97514306E-01 0.16833247E+04</pdfrwt>
<totfact> 0.11831045E+01</totfact>
</mgrwt>
</event>
<event>
12    2  0.3561489E-008  0.1468811E+04  0.7818608E-02  0.8905462E-01
         -2   -1    0    0    0  501 -0.00000000000E+00  0.00000000000E+00  0.17488306502E+03  0.17488306502E+03  0.00000000000E+00 0.  1.
          2   -1    0    0  501    0  0.00000000000E+00 -0.00000000000E+00 -0.30840691746E+04  0.30840691746E+04  0.00000000000E+00 0. -1.
         23    2    1    2    0    0 -0.17589578092E+03 -0.11038780970E+03 -0.18157064593E+04  0.18296822324E+04  0.88443942745E+02 0.  0.
        254    2    1    2    0    0  0.17589578092E+03  0.11038780970E+03 -0.10934796502E+04  0.14292700072E+04  0.89665501371E+03 0.  0.
         23    2    4    4    0    0  0.28673169430E+03  0.41299172037E+03 -0.36677561394E+03  0.62910040688E+03  0.92009485094E+02 0.  0.
         23    2    4    4    0    0 -0.11083591339E+03 -0.30260391067E+03 -0.72670403628E+03  0.80016960027E+03  0.91208039124E+02 0.  0.
          1    1    3    3  502    0 -0.74720465920E+02 -0.58501204551E+02 -0.11861524217E+04  0.11899424803E+04  0.00000000000E+00 0. -1.
         -1    1    3    3    0  502 -0.10117531500E+03 -0.51886605153E+02 -0.62955403761E+03  0.63973975211E+03  0.00000000000E+00 0.  1.
         11    1    5    5    0    0  0.21841181627E+02  0.23615002118E+02 -0.56888413837E+02  0.65352866569E+02  0.00000000000E+00 0. -1.
        -11    1    5    5    0    0  0.26489051267E+03  0.38937671825E+03 -0.30988720010E+03  0.56374754031E+03  0.00000000000E+00 0.  1.
          4    1    6    6  503    0 -0.27599113600E+02 -0.44437216822E+02 -0.55701590405E+02  0.76413640694E+02  0.00000000000E+00 0. -1.
         -4    1    6    6    0  503 -0.83236799785E+02 -0.25816669384E+03 -0.67100244588E+03  0.72375595957E+03  0.00000000000E+00 0.  1.
<mgrwt>
<rscale>  0 0.14688110E+04</rscale>
<asrwt>0</asrwt>
<pdfrwt beam="1">  1        2 0.47447216E+00 0.14688110E+04</pdfrwt>
<pdfrwt beam="2">  1       -2 0.26905088E-01 0.14688110E+04</pdfrwt>
<totfact> 0.18884732E+01</totfact>
</mgrwt>
</event>
<event>
12    2  0.3561489E-008  0.1800279E+04  0.7818608E-02  0.8706151E-01
         -1   -1    0    0    0  501 -0.00000000000E+00  0.00000000000E+00  0.93285044882E+03  0.93285044882E+03  0.00000000000E+00 0.  1.
          1   -1    0    0  501    0  0.00000000000E+00 -0.00000000000E+00 -0.86857605991E+03  0.86857605991E+03  0.00000000000E+00 0. -1.
         23    2    1    2    0    0 -0.34975703475E+03  0.19939532957E+03  0.56753483658E+03  0.70185510935E+03  0.91740519831E+02 0.  0.
        254    2    1    2    0    0  0.34975703475E+03 -0.19939532957E+03 -0.50326044768E+03  0.10995713994E+04  0.89089713397E+03 0.  0.
         23    2    4    4    0    0 -0.21455176045E+03 -0.31224930120E+03 -0.14776287693E+03  0.41687469590E+03  0.91752712618E+02 0.  0.
         23    2    4    4    0    0  0.56430879520E+03  0.11285397164E+03 -0.35549757075E+03  0.68269670347E+03  0.92281259556E+02 0.  0.
          4    1    3    3  502    0 -0.31979680809E+03  0.19212937151E+03  0.55464080484E+03  0.66843856580E+03  0.00000000000E+00 0.  1.
         -4    1    3    3    0  502 -0.29960226664E+02  0.72659580566E+01  0.12894031743E+02  0.33416543550E+02  0.00000000000E+00 0. -1.
         11    1    5    5    0    0 -0.19541474346E+02 -0.45335663355E+02 -0.54226667198E+02  0.73332960031E+02  0.00000000000E+00 0.  1.
        -11    1    5    5    0    0 -0.19501028611E+03 -0.26691363785E+03 -0.93536209727E+02  0.34354173587E+03  0.00000000000E+00 0. -1.
          4    1    6    6  503    0  0.30421328181E+03  0.97106864229E+02 -0.22957270426E+03  0.39329262700E+03  0.00000000000E+00 0.  1.
         -4    1    6    6    0  503  0.26009551340E+03  0.15747107407E+02 -0.12592486649E+03  0.28940407647E+03  0.00000000000E+00 0. -1.
<mgrwt>
<rscale>  0 0.18002795E+04</rscale>
<asrwt>0</asrwt>
<pdfrwt beam="1">  1        1 0.13362709E+00 0.18002795E+04</pdfrwt>
<pdfrwt beam="2">  1       -1 0.14351545E+00 0.18002795E+04</pdfrwt>
<totfact> 0.71592764E+00</totfact>
</mgrwt>
</event>
<event>
12    2  0.3561489E-008  0.1290645E+04  0.7818608E-02  0.9037017E-01
         -2   -1    0    0    0  501 -0.00000000000E+00  0.00000000000E+00  0.62331486212E+03  0.62331486212E+03  0.00000000000E+00 0.  1.
          2   -1    0    0  501    0  0.00000000000E+00 -0.00000000000E+00 -0.66810755714E+03  0.66810755714E+03  0.00000000000E+00 0. -1.
         23    2    1    2    0    0  0.17900027183E+03 -0.20123567706E+03  0.16529246264E+03  0.32932411967E+03  0.92713982541E+02 0.  0.
        254    2    1    2    0    0 -0.17900027183E+03  0.20123567706E+03 -0.21008515765E+03  0.96209829959E+03  0.89942229768E+03 0.  0.
         23    2    4    4    0    0 -0.22401776040E+03  0.49022383312E+03  0.64735102246E+02  0.55062630559E+03  0.92170122124E+02 0.  0.
         23    2    4    4    0    0  0.45017488570E+02 -0.28898815606E+03 -0.27482025990E+03  0.41147199400E+03  0.90787102478E+02 0.  0.
          1    1    3    3  502    0  0.75306414801E+02 -0.28528877869E+02  0.69004155991E+02  0.10604964180E+03  0.00000000000E+00 0. -1.
         -1    1    3    3    0  502  0.10369385703E+03 -0.17270679919E+03  0.96288306647E+02  0.22327447787E+03  0.00000000000E+00 0.  1.
         11    1    5    5    0    0 -0.17941536293E+03  0.36460704954E+03  0.86761220747E+02  0.41551857052E+03  0.00000000000E+00 0. -1.
        -11    1    5    5    0    0 -0.44602397468E+02  0.12561678358E+03 -0.22026118501E+02  0.13510773506E+03  0.00000000000E+00 0.  1.
          2    1    6    6  503    0  0.64708495082E+02 -0.12787042145E+03 -0.14188130031E+03  0.20166392190E+03  0.00000000000E+00 0. -1.
         -2    1    6    6    0  503 -0.19691006512E+02 -0.16111773460E+03 -0.13293895959E+03  0.20980807210E+03  0.00000000000E+00 0.  1.
<mgrwt>
<rscale>  0 0.12906454E+04</rscale>
<asrwt>0</asrwt>
<pdfrwt beam="1">  1        2 0.10278578E+00 0.12906454E+04</pdfrwt>
<pdfrwt beam="2">  1       -2 0.95894594E-01 0.12906454E+04</pdfrwt>
<totfact> 0.38868958E+01</totfact>
</mgrwt>
</event>
<event>
12    2  0.3561489E-008  0.1520113E+04  0.7818608E-02  0.8871187E-01
         -1   -1    0    0    0  501 -0.00000000000E+00  0.00000000000E+00  0.40850985435E+03  0.40850985435E+03  0.00000000000E+00 0.  1.
          1   -1    0    0  501    0  0.00000000000E+00 -0.00000000000E+00 -0.14141290648E+04  0.14141290648E+04  0.00000000000E+00 0. -1.
         23    2    1    2    0    0  0.21697618070E+03  0.42430126326E+03 -0.43885249494E+03  0.65462041649E+03  0.93947604408E+02 0.  0.
        254    2    1    2    0    0 -0.21697618070E+03 -0.42430126326E+03 -0.56676671556E+03  0.11680185027E+04  0.90328981385E+03 0.  0.
         23    2    4    4    0    0 -0.42781817974E+03 -0.54130131723E+03 -0.20827237778E+03  0.72698865819E+03  0.95391901309E+02 0.  0.
         23    2    4    4    0    0  0.21084199904E+03  0.11700005397E+03 -0.35849433778E+03  0.44102984451E+03  0.88576364473E+02 0.  0.
          2    1    3    3  502    0  0.33430082562E+02  0.14912512032E+02 -0.41138960500E+02  0.55066936597E+02  0.00000000000E+00 0.  1.
         -2    1    3    3    0  502  0.18354609814E+03  0.40938875123E+03 -0.39771353444E+03  0.59955347989E+03  0.00000000000E+00 0. -1.
         11    1    5    5    0    0 -0.50662201771E+02 -0.10486573007E+03 -0.61878756674E+02  0.13188047831E+03  0.00000000000E+00 0. -1.
        -11    1    5    5    0    0 -0.37715597797E+03 -0.43643558716E+03 -0.14639362111E+03  0.59510817988E+03  0.00000000000E+00 0.  1.
          3    1    6    6  503    0  0.97866080703E+02  0.31736507365E+02 -0.86508754908E+02  0.13442001461E+03  0.00000000000E+00 0. -1.
         -3    1    6    6    0  503  0.11297591834E+03  0.85263546609E+02 -0.27198558287E+03  0.30660982990E+03  0.00000000000E+00 0.  1.
<mgrwt>
<rscale>  0 0.15201127E+04</rscale>
<asrwt>0</asrwt>
<pdfrwt beam="1">  1        1 0.21755832E+00 0.15201127E+04</pdfrwt>
<pdfrwt beam="2">  1       -1 0.62847670E-01 0.15201127E+04</pdfrwt>
<totfact> 0.18622037E+01</totfact>
</mgrwt>
</event>
<event>
12    2  0.3561489E-008  0.3738603E+04  0.7818608E-02  0.8059460E-01
          1   -1    0    0  501    0  0.00000000000E+00  0.00000000000E+00  0.20627021156E+04  0.20627021156E+04  0.00000000000E+00 0. -1.
         -1   -1    0    0    0  501 -0.00000000000E+00 -0.00000000000E+00 -0.16940346455E+04  0.16940346455E+04  0.00000000000E+00 0.  1.
         23    2    1    2    0    0 -0.14546886993E+04 -0.88103974857E+03 -0.27856533087E+03  0.17251796190E+04  0.79346227921E+02 0.  0.
        254    2    1    2    0    0  0.14546886993E+04  0.88103974857E+03  0.64723280099E+03  0.20315571421E+04  0.90330718619E+03 0.  0.
         23    2    4    4    0    0 -0.73070394947E+02  0.14513352180E+02  0.17289493355E+03  0.20986292451E+03  0.92735478792E+02 0.  0.
         23    2    4    4    0    0  0.15277590942E+04  0.86652639639E+03  0.47433786744E+03  0.18216942176E+04  0.93046033447E+02 0.  0.
          4    1    3    3  502    0 -0.12439437892E+02 -0.61783913014E+01  0.47972292053E+01  0.14694405132E+02  0.00000000000E+00 0. -1.
         -4    1    3    3    0  502 -0.14422492614E+04 -0.87486135727E+03 -0.28336256007E+03  0.17104852139E+04  0.00000000000E+00 0.  1.
         11    1    5    5    0    0 -0.77204043532E+02 -0.12705474574E+02  0.16264425405E+03  0.18048558612E+03  0.00000000000E+00 0. -1.
        -11    1    5    5    0    0  0.41336485859E+01  0.27218826753E+02  0.10250679498E+02  0.29377338386E+02  0.00000000000E+00 0.  1.
          4    1    6    6  503    0  0.10024909252E+04  0.57478333709E+03  0.35725221818E+03  0.12095425115E+04  0.00000000000E+00 0. -1.
         -4    1    6    6    0  503  0.52526816897E+03  0.29174305931E+03  0.11708564927E+03  0.61215170607E+03  0.00000000000E+00 0.  1.
<mgrwt>
<rscale>  0 0.37386034E+04</rscale>
<asrwt>0</asrwt>
<pdfrwt beam="1">  1        1 0.31733879E+00 0.37386034E+04</pdfrwt>
<pdfrwt beam="2">  1       -1 0.26062071E+00 0.37386034E+04</pdfrwt>
<totfact> 0.12845271E-01</totfact>
</mgrwt>
</event>
<event>
12    2  0.3561489E-008  0.2196074E+04  0.7818608E-02  0.8520064E-01
         -2   -1    0    0    0  501 -0.00000000000E+00  0.00000000000E+00  0.13831158325E+04  0.13831158325E+04  0.00000000000E+00 0.  1.
          2   -1    0    0  501    0  0.00000000000E+00 -0.00000000000E+00 -0.87171675527E+03  0.87171675527E+03  0.00000000000E+00 0. -1.
         23    2    1    2    0    0 -0.71287938955E+03 -0.53262708224E+03 -0.10668722884E+02  0.89460529067E+03  0.91193046112E+02 0.  0.
        254    2    1    2    0    0  0.71287938955E+03  0.53262708224E+03  0.52206780009E+03  0.13602272971E+04  0.88643943903E+03 0.  0.
         23    2    4    4    0    0  0.47387449020E+03  0.74672395167E+03  0.23258346396E+03  0.91890321572E+03  0.90190685172E+02 0.  0.
         23    2    4    4    0    0  0.23900489935E+03 -0.21409686943E+03  0.28948433613E+03  0.44132408136E+03  0.89470400221E+02 0.  0.
          1    1    3    3  502    0 -0.34096523530E+03 -0.25664464056E+03  0.40418199569E+02  0.42866932952E+03  0.00000000000E+00 0. -1.
         -1    1    3    3    0  502 -0.37191415425E+03 -0.27598244168E+03 -0.51086922453E+02  0.46593596115E+03  0.00000000000E+00 0.  1.
         11    1    5    5    0    0  0.86636138685E+02  0.13498681877E+03  0.69065484252E+01  0.16054582579E+03  0.00000000000E+00 0.  1.
        -11    1    5    5    0    0  0.38723835151E+03  0.61173713290E+03  0.22567691554E+03  0.75835738993E+03  0.00000000000E+00 0. -1.
          1    1    6    6  503    0  0.19173858825E+03 -0.20852047330E+03  0.26453779276E+03  0.38758833549E+03  0.00000000000E+00 0. -1.
         -1    1    6    6    0  503  0.47266311102E+02 -0.55763961319E+01  0.24946543371E+02  0.53735745879E+02  0.00000000000E+00 0.  1.
<mgrwt>
<rscale>  0 0.21960740E+04</rscale>
<asrwt>0</asrwt>
<pdfrwt beam="1">  1        2 0.13411027E+00 0.21960740E+04</pdfrwt>
<pdfrwt beam="2">  1       -2 0.21278705E+00 0.21960740E+04</pdfrwt>
<totfact> 0.30787897E+00</totfact>
</mgrwt>
</event>
<event>
12    2  0.3561489E-008  0.2845970E+04  0.7818608E-02  0.8289137E-01
         -1   -1    0    0    0  501 -0.00000000000E+00  0.00000000000E+00  0.11601698390E+04  0.11601698390E+04  0.00000000000E+00 0.  1.
          1   -1    0    0  501    0  0.00000000000E+00 -0.00000000000E+00 -0.17453356498E+04  0.17453356498E+04  0.00000000000E+00 0. -1.
         23    2    1    2    0    0  0.89062348850E+01 -0.87018288402E+02 -0.15658711545E+04  0.15709430800E+04  0.90874555596E+02 0.  0.
        254    2    1    2    0    0 -0.89062348850E+01  0.87018288402E+02  0.98070534369E+03  0.13345624088E+04  0.90090085373E+03 0.  0.
         23    2    4    4    0    0 -0.19650574971E+03  0.88483596769E+02  0.10790289373E+04  0.11043896690E+04  0.94494639924E+02 0.  0.
         23    2    4    4    0    0  0.18759951483E+03 -0.14653083664E+01 -0.98323593607E+02  0.23017273975E+03  0.90090154685E+02 0.  0.
          2    1    3    3  502    0  0.24072056164E+02 -0.84386835925E+02 -0.15205365697E+04  0.15230666636E+04  0.00000000000E+00 0. -1.
         -2    1    3    3    0  502 -0.15165821279E+02 -0.26314524776E+01 -0.45334584772E+02  0.47876416466E+02  0.00000000000E+00 0.  1.
         11    1    5    5    0    0 -0.10230527304E+03  0.96675704225E+02  0.64753822798E+03  0.66266003152E+03  0.00000000000E+00 0. -1.
        -11    1    5    5    0    0 -0.94200476669E+02 -0.81921074559E+01  0.43149070932E+03  0.44172963752E+03  0.00000000000E+00 0.  1.
          4    1    6    6  503    0  0.35667501861E+02 -0.33842133062E+02 -0.42856203375E+02  0.65223575699E+02  0.00000000000E+00 0. -1.
         -4    1    6    6    0  503  0.15193201296E+03  0.32376824696E+02 -0.55467390232E+02  0.16494916405E+03  0.00000000000E+00 0.  1.
<mgrwt>
<rscale>  0 0.28459696E+04</rscale>
<asrwt>0</asrwt>
<pdfrwt beam="1">  1        1 0.26851318E+00 0.28459696E+04</pdfrwt>
<pdfrwt beam="2">  1       -1 0.17848767E+00 0.28459696E+04</pdfrwt>
<totfact> 0.81678792E-01</totfact>
</mgrwt>
</event>
<event>
12    2  0.3561489E-008  0.1244794E+04  0.7818608E-02  0.9074527E-01
          3   -1    0    0  501    0  0.00000000000E+00  0.00000000000E+00  0.31322289099E+03  0.31322289099E+03  0.00000000000E+00 0. -1.
         -3   -1    0    0    0  501 -0.00000000000E+00 -0.00000000000E+00 -0.12367489443E+04  0.12367489443E+04  0.00000000000E+00 0.  1.
         23    2    1    2    0    0 -0.27563481979E+03  0.83635255593E+02 -0.24766486385E+03  0.38652707847E+03  0.71385486934E+02 0.  0.
        254    2    1    2    0    0  0.27563481979E+03 -0.83635255593E+02 -0.67586118947E+03  0.11634447568E+04  0.90213410584E+03 0.  0.
         23    2    4    4    0    0 -0.13899523891E+03 -0.32901606515E+03 -0.58871797594E+02  0.37527204382E+03  0.98954387236E+02 0.  0.
         23    2    4    4    0    0  0.41463005870E+03  0.24538080955E+03 -0.61698939187E+03  0.78817271301E+03  0.91708715974E+02 0.  0.
          1    1    3    3  502    0 -0.66229827521E+01  0.14432662028E+02 -0.25740986301E+01  0.16087001508E+02  0.00000000000E+00 0. -1.
         -1    1    3    3    0  502 -0.26901183703E+03  0.69202593565E+02 -0.24509076522E+03  0.37044007696E+03  0.00000000000E+00 0.  1.
         11    1    5    5    0    0 -0.85907447183E+02 -0.11880748305E+03  0.12180108459E+02  0.14711785259E+03  0.00000000000E+00 0. -1.
        -11    1    5    5    0    0 -0.53087791728E+02 -0.21020858210E+03 -0.71051906053E+02  0.22815419123E+03  0.00000000000E+00 0.  1.
          3    1    6    6  503    0  0.29597420441E+03  0.15776064152E+03 -0.48850411210E+03  0.59255836609E+03  0.00000000000E+00 0. -1.
         -3    1    6    6    0  503  0.11865585429E+03  0.87620168039E+02 -0.12848527977E+03  0.19561434693E+03  0.00000000000E+00 0.  1.
<mgrwt>
<rscale>  0 0.12447941E+04</rscale>
<asrwt>0</asrwt>
<pdfrwt beam="1">  1        3 0.48188139E-01 0.12447941E+04</pdfrwt>
<pdfrwt beam="2">  1       -3 0.19026906E+00 0.12447941E+04</pdfrwt>
<totfact> 0.18663926E+00</totfact>
</mgrwt>
</event>
<event>
12    2  0.3561489E-008  0.2298018E+04  0.7818608E-02  0.8478703E-01
         -2   -1    0    0    0  501 -0.00000000000E+00  0.00000000000E+00  0.67134323579E+03  0.67134323579E+03  0.00000000000E+00 0.  1.
          2   -1    0    0  501    0  0.00000000000E+00 -0.00000000000E+00 -0.19665373071E+04  0.19665373071E+04  0.00000000000E+00 0. -1.
         23    2    1    2    0    0  0.79888853016E+02 -0.60188667995E+03  0.32389712302E+03  0.69405547863E+03  0.90298708659E+02 0.  0.
        254    2    1    2    0    0 -0.79888853016E+02  0.60188667995E+03 -0.16190911943E+04  0.19438250642E+04  0.88789063544E+03 0.  0.
         23    2    4    4    0    0  0.17558400777E+03  0.23549230746E+03 -0.14065262845E+04  0.14402825747E+04  0.99052184588E+02 0.  0.
         23    2    4    4    0    0 -0.25547286078E+03  0.36639437248E+03 -0.21256490980E+03  0.50354248954E+03  0.94127462058E+02 0.  0.
          3    1    3    3  502    0 -0.13544744656E+02 -0.41603930561E+02  0.38911567196E+02  0.58553029021E+02  0.00000000000E+00 0. -1.
         -3    1    3    3    0  502  0.93433597672E+02 -0.56028274939E+03  0.28498555582E+03  0.63550244961E+03  0.00000000000E+00 0.  1.
         11    1    5    5    0    0  0.76918540844E+02  0.17726448684E+03 -0.96324709044E+03  0.98243784407E+03  0.00000000000E+00 0. -1.
        -11    1    5    5    0    0  0.98665466925E+02  0.58227820619E+02 -0.44327919404E+03  0.45784473059E+03  0.00000000000E+00 0.  1.
          2    1    6    6  503    0 -0.18399663000E+03  0.24069772033E+03 -0.96008668407E+02  0.31781726957E+03  0.00000000000E+00 0. -1.
         -2    1    6    6    0  503 -0.71476230788E+02  0.12569665215E+03 -0.11655624139E+03  0.18572521998E+03  0.00000000000E+00 0.  1.
<mgrwt>
<rscale>  0 0.22980179E+04</rscale>
<asrwt>0</asrwt>
<pdfrwt beam="1">  1        2 0.30254420E+00 0.22980179E+04</pdfrwt>
<pdfrwt beam="2">  1       -2 0.10328357E+00 0.22980179E+04</pdfrwt>
<totfact> 0.48356041E+00</totfact>
</mgrwt>
</event>
<event>
12    2  0.3561489E-008  0.1943589E+04  0.7818608E-02  0.8633458E-01
         -2   -1    0    0    0  501 -0.00000000000E+00  0.00000000000E+00  0.12452552771E+04  0.12452552771E+04  0.00000000000E+00 0. -1.
          2   -1    0    0  501    0  0.00000000000E+00 -0.00000000000E+00 -0.75838648109E+03  0.75838648109E+03  0.00000000000E+00 0.  1.
         23    2    1    2    0    0 -0.46384181279E+03 -0.22749402452E+02 -0.43372487683E+03  0.64210322962E+03  0.92263351919E+02 0.  0.
        254    2    1    2    0    0  0.46384181279E+03  0.22749402452E+02  0.92059367280E+03  0.13615385285E+04  0.88917247576E+03 0.  0.
         23    2    4    4    0    0  0.51800340366E+03  0.35413594797E+03  0.45628016308E+03  0.78121486635E+03  0.91461928437E+02 0.  0.
         23    2    4    4    0    0 -0.54161590864E+02 -0.33138654551E+03  0.46431350972E+03  0.58032366217E+03  0.91858571139E+02 0.  0.
          4    1    3    3  502    0 -0.62908604839E+02  0.23964554485E+02 -0.40388926665E+02  0.78505145256E+02  0.00000000000E+00 0. -1.
         -4    1    3    3    0  502 -0.40093320795E+03 -0.46713956937E+02 -0.39333595016E+03  0.56359808437E+03  0.00000000000E+00 0.  1.
         11    1    5    5    0    0  0.19529074937E+03  0.17077692627E+03  0.14768839426E+03  0.29852151871E+03  0.00000000000E+00 0. -1.
        -11    1    5    5    0    0  0.32271265429E+03  0.18335902169E+03  0.30859176882E+03  0.48269334764E+03  0.00000000000E+00 0.  1.
          2    1    6    6  503    0 -0.66007177642E+02 -0.32078999416E+03  0.41593118186E+03  0.52939769162E+03  0.00000000000E+00 0. -1.
         -2    1    6    6    0  503  0.11845586777E+02 -0.10596551353E+02  0.48382327863E+02  0.50925970547E+02  0.00000000000E+00 0.  1.
<mgrwt>
<rscale>  0 0.19435892E+04</rscale>
<asrwt>0</asrwt>
<pdfrwt beam="1">  1        2 0.11667484E+00 0.19435892E+04</pdfrwt>
<pdfrwt beam="2">  1       -2 0.19157773E+00 0.19435892E+04</pdfrwt>
<totfact> 0.52150611E+00</totfact>
</mgrwt>
</event>
<event>
12    2  0.3561489E-008  0.2230073E+04  0.7818608E-02  0.8506014E-01
          1   -1    0    0  501    0  0.00000000000E+00  0.00000000000E+00  0.17206838207E+04  0.17206838207E+04  0.00000000000E+00 0. -1.
         -1   -1    0    0    0  501 -0.00000000000E+00 -0.00000000000E+00 -0.72256516304E+03  0.72256516304E+03  0.00000000000E+00 0.  1.
         23    2    1    2    0    0 -0.78535604321E+03  0.76348227751E+02  0.95061194133E+03  0.12387262168E+04  0.90368195496E+02 0.  0.
        254    2    1    2    0    0  0.78535604321E+03 -0.76348227751E+02  0.47506716319E+02  0.12045227669E+04  0.90884819491E+03 0.  0.
         23    2    4    4    0    0 -0.62620066365E+02 -0.24213433985E+03  0.18587448888E+03  0.32500149547E+03  0.92338156780E+02 0.  0.
         23    2    4    4    0    0  0.84797610958E+03  0.16578611210E+03 -0.13836777256E+03  0.87952127143E+03  0.88676428834E+02 0.  0.
          4    1    3    3  502    0 -0.57846631988E+03  0.87166942987E+02  0.66174635714E+03  0.88324945535E+03  0.00000000000E+00 0. -1.
         -4    1    3    3    0  502 -0.20688972333E+03 -0.10818715237E+02  0.28886558419E+03  0.35547676147E+03  0.00000000000E+00 0.  1.
         11    1    5    5    0    0 -0.39435856206E+02 -0.23377043473E+03  0.14692821629E+03  0.27891164129E+03  0.00000000000E+00 0.  1.
        -11    1    5    5    0    0 -0.23184210159E+02 -0.83639051205E+01  0.38946272587E+02  0.46089854176E+02  0.00000000000E+00 0. -1.
          3    1    6    6  503    0  0.32731284155E+03  0.73822514604E+02 -0.96540291871E+02  0.34914679987E+03  0.00000000000E+00 0. -1.
         -3    1    6    6    0  503  0.52066326803E+03  0.91963597492E+02 -0.41827480689E+02  0.53037447155E+03  0.00000000000E+00 0.  1.
<mgrwt>
<rscale>  0 0.22300728E+04</rscale>
<asrwt>0</asrwt>
<pdfrwt beam="1">  1        1 0.26472059E+00 0.22300728E+04</pdfrwt>
<pdfrwt beam="2">  1       -1 0.11116387E+00 0.22300728E+04</pdfrwt>
<totfact> 0.31225268E+00</totfact>
</mgrwt>
</event>
<event>
12    2  0.3561489E-008  0.1446228E+04  0.7818608E-02  0.8921020E-01
         -1   -1    0    0    0  501 -0.00000000000E+00  0.00000000000E+00  0.17225278512E+03  0.17225278512E+03  0.00000000000E+00 0. -1.
          1   -1    0    0  501    0  0.00000000000E+00 -0.00000000000E+00 -0.30356176334E+04  0.30356176334E+04  0.00000000000E+00 0.  1.
         23    2    1    2    0    0  0.21875465786E+03 -0.14963733570E+03 -0.16482628288E+04  0.16720722138E+04  0.93862680515E+02 0.  0.
        254    2    1    2    0    0 -0.21875465786E+03  0.14963733570E+03 -0.12151020195E+04  0.15357982047E+04  0.90108727396E+03 0.  0.
         23    2    4    4    0    0  0.17945843088E+03  0.40282928823E+03 -0.49313835363E+03  0.66879177447E+03  0.98082811498E+02 0.  0.
         23    2    4    4    0    0 -0.39821308873E+03 -0.25319195253E+03 -0.72196366587E+03  0.86700643025E+03  0.88254101334E+02 0.  0.
          2    1    3    3  502    0  0.82587522645E+01 -0.37978426340E+02 -0.14864416763E+03  0.15364132396E+03  0.00000000000E+00 0. -1.
         -2    1    3    3    0  502  0.21049590559E+03 -0.11165890936E+03 -0.14996186611E+04  0.15184308898E+04  0.00000000000E+00 0.  1.
         11    1    5    5    0    0  0.56659052706E+02  0.12523236276E+03 -0.90575380196E+02  0.16461255248E+03  0.00000000000E+00 0. -1.
        -11    1    5    5    0    0  0.12279937817E+03  0.27759692548E+03 -0.40256297343E+03  0.50417922200E+03  0.00000000000E+00 0.  1.
          4    1    6    6  503    0 -0.23343529525E+03 -0.15027584799E+03 -0.50101854313E+03  0.57279529338E+03  0.00000000000E+00 0. -1.
         -4    1    6    6    0  503 -0.16477779348E+03 -0.10291610454E+03 -0.22094512274E+03  0.29421113688E+03  0.00000000000E+00 0.  1.
<mgrwt>
<rscale>  0 0.14462276E+04</rscale>
<asrwt>0</asrwt>
<pdfrwt beam="1">  1        1 0.46701811E+00 0.14462276E+04</pdfrwt>
<pdfrwt beam="2">  1       -1 0.26500428E-01 0.14462276E+04</pdfrwt>
<totfact> 0.69798509E+00</totfact>
</mgrwt>
</event>
<event>
12    2  0.3561489E-008  0.1595427E+04  0.7818608E-02  0.8823363E-01
          2   -1    0    0  501    0  0.00000000000E+00  0.00000000000E+00  0.52826744236E+03  0.52826744236E+03  0.00000000000E+00 0.  1.
         -2   -1    0    0    0  501 -0.00000000000E+00 -0.00000000000E+00 -0.12045915888E+04  0.12045915888E+04  0.00000000000E+00 0. -1.
         23    2    1    2    0    0  0.11110723466E+03 -0.27026403507E+03  0.25885328128E+03  0.39745171613E+03  0.74668461769E+02 0.  0.
        254    2    1    2    0    0 -0.11110723466E+03  0.27026403507E+03 -0.93517742768E+03  0.13354073150E+04  0.90739650068E+03 0.  0.
         23    2    4    4    0    0  0.98984860932E+02 -0.29341905486E+03 -0.46492677606E+03  0.56635138535E+03  0.93296517271E+02 0.  0.
         23    2    4    4    0    0 -0.21009209559E+03  0.56368308993E+03 -0.47025065162E+03  0.76905592965E+03  0.91836991868E+02 0.  0.
          3    1    3    3  502    0  0.13925423536E+02 -0.30567077189E+01  0.22152488855E+01  0.14428035568E+02  0.00000000000E+00 0. -1.
         -3    1    3    3    0  502  0.97181811120E+02 -0.26720732735E+03  0.25663803239E+03  0.38302368056E+03  0.00000000000E+00 0.  1.
         11    1    5    5    0    0  0.77135628269E+01 -0.14489283201E+03 -0.25586285979E+03  0.29414152179E+03  0.00000000000E+00 0. -1.
        -11    1    5    5    0    0  0.91271298106E+02 -0.14852622285E+03 -0.20906391628E+03  0.27220986356E+03  0.00000000000E+00 0.  1.
          2    1    6    6  503    0 -0.11903015819E+03  0.39126158186E+03 -0.27312509617E+03  0.49178361314E+03  0.00000000000E+00 0. -1.
         -2    1    6    6    0  503 -0.91061937395E+02  0.17242150806E+03 -0.19712555545E+03  0.27727231650E+03  0.00000000000E+00 0.  1.
<mgrwt>
<rscale>  0 0.15954266E+04</rscale>
<asrwt>0</asrwt>
<pdfrwt beam="1">  1        2 0.81271915E-01 0.15954266E+04</pdfrwt>
<pdfrwt beam="2">  1       -2 0.18532178E+00 0.15954266E+04</pdfrwt>
<totfact> 0.92239875E+00</totfact>
</mgrwt>
</event>
<event>
12    2  0.3561489E-008  0.2222217E+04  0.7818608E-02  0.8509237E-01
         -2   -1    0    0    0  501 -0.00000000000E+00  0.00000000000E+00  0.51678187820E+03  0.51678187820E+03  0.00000000000E+00 0.  1.
          2   -1    0    0  501    0  0.00000000000E+00 -0.00000000000E+00 -0.23889427971E+04  0.23889427971E+04  0.00000000000E+00 0. -1.
         23    2    1    2    0    0 -0.47594519051E+03 -0.62822816310E+03 -0.14967008836E+03  0.80741996783E+03  0.91276611485E+02 0.  0.
        254    2    1    2    0    0  0.47594519051E+03  0.62822816310E+03 -0.17224908305E+04  0.20983047075E+04  0.90261483195E+03 0.  0.
         23    2    4    4    0    0 -0.11198594436E+03  0.52527729280E+03 -0.52444585304E+03  0.75652104470E+03  0.93933765194E+02 0.  0.
         23    2    4    4    0    0  0.58793113487E+03  0.10295087030E+03 -0.11980449775E+04  0.13417836628E+04  0.93860154121E+02 0.  0.
          1    1    3    3  502    0 -0.34112794377E+03 -0.43556025929E+03 -0.63074206548E+02  0.55682974869E+03  0.00000000000E+00 0. -1.
         -1    1    3    3    0  502 -0.13481724674E+03 -0.19266790381E+03 -0.86595881817E+02  0.25059021913E+03  0.00000000000E+00 0.  1.
         11    1    5    5    0    0 -0.10330365477E+03  0.34420351449E+03 -0.39340178619E+03  0.53283456143E+03  0.00000000000E+00 0. -1.
        -11    1    5    5    0    0 -0.86822895950E+01  0.18107377831E+03 -0.13104406685E+03  0.22368648327E+03  0.00000000000E+00 0.  1.
          1    1    6    6  503    0  0.42969939647E+03  0.59219565099E+02 -0.77713524465E+03  0.88999309924E+03  0.00000000000E+00 0. -1.
         -1    1    6    6    0  503  0.15823173841E+03  0.43731305206E+02 -0.42090973286E+03  0.45179056355E+03  0.00000000000E+00 0.  1.
<mgrwt>
<rscale>  0 0.22222172E+04</rscale>
<asrwt>0</asrwt>
<pdfrwt beam="1">  1        2 0.36752967E+00 0.22222172E+04</pdfrwt>
<pdfrwt beam="2">  1       -2 0.79504903E-01 0.22222172E+04</pdfrwt>
<totfact> 0.51587948E+00</totfact>
</mgrwt>
</event>
<event>
12    2  0.3561489E-008  0.2381765E+04  0.7818608E-02  0.8446362E-01
          1   -1    0    0  501    0  0.00000000000E+00  0.00000000000E+00  0.13980548252E+04  0.13980548252E+04  0.00000000000E+00 0. -1.
         -1   -1    0    0    0  501 -0.00000000000E+00 -0.00000000000E+00 -0.10144100901E+04  0.10144100901E+04  0.00000000000E+00 0.  1.
         23    2    1    2    0    0  0.74022701133E+03  0.61073734113E+03  0.21575842721E+03  0.98755332925E+03  0.88168877996E+02 0.  0.
        254    2    1    2    0    0 -0.74022701133E+03 -0.61073734113E+03  0.16788630789E+03  0.14249115861E+04  0.10398322402E+04 0.  0.
         23    2    4    4    0    0  0.20661126668E+03 -0.36953898112E+03  0.66168269655E+02  0.43849610934E+03  0.93023243931E+02 0.  0.
         23    2    4    4    0    0 -0.94683827801E+03 -0.24119836001E+03  0.10171803823E+03  0.98641547678E+03  0.89384338423E+02 0.  0.
          1    1    3    3  502    0 -0.41530938955E+00 -0.84737634817E+00 -0.23976594685E+01  0.25766838167E+01  0.00000000000E+00 0. -1.
         -1    1    3    3    0  502  0.74064232072E+03  0.61158471748E+03  0.21815608668E+03  0.98497664543E+03  0.00000000000E+00 0.  1.
         11    1    5    5    0    0  0.81640451300E+02 -0.23149040899E+03  0.57347245394E+02  0.25207474942E+03  0.00000000000E+00 0. -1.
        -11    1    5    5    0    0  0.12497081538E+03 -0.13804857213E+03  0.88210242606E+01  0.18642135992E+03  0.00000000000E+00 0.  1.
          3    1    6    6  503    0 -0.50529913406E+03 -0.92780234547E+02  0.25268099569E+02  0.51436744032E+03  0.00000000000E+00 0. -1.
         -3    1    6    6    0  503 -0.44153914395E+03 -0.14841812546E+03  0.76449938664E+02  0.47204803646E+03  0.00000000000E+00 0.  1.
<mgrwt>
<rscale>  0 0.23817648E+04</rscale>
<asrwt>0</asrwt>
<pdfrwt beam="1">  1        1 0.21508536E+00 0.23817648E+04</pdfrwt>
<pdfrwt beam="2">  1       -1 0.15606309E+00 0.23817648E+04</pdfrwt>
<totfact> 0.21664781E+00</totfact>
</mgrwt>
</event>
<event>
12    2  0.3561489E-008  0.2305502E+04  0.7818608E-02  0.8475755E-01
         -1   -1    0    0    0  501 -0.00000000000E+00  0.00000000000E+00  0.14015572356E+04  0.14015572356E+04  0.00000000000E+00 0.  1.
          1   -1    0    0  501    0  0.00000000000E+00 -0.00000000000E+00 -0.94811354070E+03  0.94811354070E+03  0.00000000000E+00 0. -1.
         23    2    1    2    0    0 -0.11018899402E+03  0.95404055611E+03  0.39180176207E+03  0.10412552619E+04  0.91481706707E+02 0.  0.
        254    2    1    2    0    0  0.11018899402E+03 -0.95404055611E+03  0.61641932780E+02  0.13084155143E+04  0.88646287745E+03 0.  0.
         23    2    4    4    0    0  0.13941031257E+03 -0.89823497943E+03  0.36592994554E+03  0.98409823373E+03  0.91012609429E+02 0.  0.
         23    2    4    4    0    0 -0.29221318543E+02 -0.55805576684E+02 -0.30428801276E+03  0.32431728057E+03  0.92856641785E+02 0.  0.
          3    1    3    3  502    0  0.75772885026E+01  0.12092464745E+03  0.26757819611E+02  0.12408129017E+03  0.00000000000E+00 0. -1.
         -3    1    3    3    0  502 -0.11776628252E+03  0.83311590866E+03  0.36504394246E+03  0.91717397177E+03  0.00000000000E+00 0.  1.
         11    1    5    5    0    0  0.67424289644E+02 -0.58510460800E+03  0.19668085471E+03  0.62094830360E+03  0.00000000000E+00 0. -1.
        -11    1    5    5    0    0  0.71986022922E+02 -0.31313037143E+03  0.16924909083E+03  0.36314993013E+03  0.00000000000E+00 0.  1.
          2    1    6    6  503    0 -0.60324858917E+01 -0.52395534360E+01 -0.23645802035E+03  0.23659298213E+03  0.00000000000E+00 0. -1.
         -2    1    6    6    0  503 -0.23188832652E+02 -0.50566023248E+02 -0.67829992407E+02  0.87724298440E+02  0.00000000000E+00 0.  1.
<mgrwt>
<rscale>  0 0.23055025E+04</rscale>
<asrwt>0</asrwt>
<pdfrwt beam="1">  1        1 0.14586362E+00 0.23055025E+04</pdfrwt>
<pdfrwt beam="2">  1       -1 0.21562419E+00 0.23055025E+04</pdfrwt>
<totfact> 0.17695408E+00</totfact>
</mgrwt>
</event>
<event>
12    2  0.3561489E-008  0.2757960E+04  0.7818608E-02  0.8316440E-01
          1   -1    0    0  501    0  0.00000000000E+00  0.00000000000E+00  0.42908751748E+04  0.42908751748E+04  0.00000000000E+00 0. -1.
         -1   -1    0    0    0  501 -0.00000000000E+00 -0.00000000000E+00 -0.44316954206E+03  0.44316954206E+03  0.00000000000E+00 0.  1.
         23    2    1    2    0    0 -0.32594340872E+03 -0.10262086851E+04  0.71150684072E+03  0.12937404543E+04  0.90437866773E+02 0.  0.
        254    2    1    2    0    0  0.32594340872E+03  0.10262086851E+04  0.31361987921E+04  0.34403042626E+04  0.91684632556E+03 0.  0.
         23    2    4    4    0    0  0.36180915951E+03  0.11908267101E+03  0.41575176338E+03  0.57079350914E+03  0.88708234554E+02 0.  0.
         23    2    4    4    0    0 -0.35865750788E+02  0.90712601407E+03  0.27204470287E+04  0.28695107534E+04  0.95372798724E+02 0.  0.
          1    1    3    3  502    0  0.96779262484E+00  0.16246100175E+01  0.71475338656E+00  0.20215965664E+01  0.00000000000E+00 0. -1.
         -1    1    3    3    0  502 -0.32691120134E+03 -0.10278332951E+04  0.71079208734E+03  0.12917188578E+04  0.00000000000E+00 0.  1.
         11    1    5    5    0    0  0.19582879424E+03  0.48421262422E+02  0.15825825073E+03  0.25639658584E+03  0.00000000000E+00 0. -1.
        -11    1    5    5    0    0  0.16598036527E+03  0.70661408593E+02  0.25749351265E+03  0.31439692329E+03  0.00000000000E+00 0.  1.
          2    1    6    6  503    0 -0.26119477809E+02  0.89815750854E+03  0.26946569599E+04  0.28405184859E+04  0.00000000000E+00 0. -1.
         -2    1    6    6    0  503 -0.97462729790E+01  0.89685055246E+01  0.25790068785E+02  0.28992267526E+02  0.00000000000E+00 0.  1.
<mgrwt>
<rscale>  0 0.27579595E+04</rscale>
<asrwt>0</asrwt>
<pdfrwt beam="1">  1        1 0.66013461E+00 0.27579595E+04</pdfrwt>
<pdfrwt beam="2">  1       -1 0.68179932E-01 0.27579595E+04</pdfrwt>
<totfact> 0.98353877E-02</totfact>
</mgrwt>
</event>
<event>
12    2  0.3561489E-008  0.1436384E+04  0.7818608E-02  0.8927895E-01
          2   -1    0    0  501    0  0.00000000000E+00  0.00000000000E+00  0.29387775227E+04  0.29387775227E+04  0.00000000000E+00 0. -1.
         -2   -1    0    0    0  501 -0.00000000000E+00 -0.00000000000E+00 -0.17551505266E+03  0.17551505266E+03  0.00000000000E+00 0.  1.
         23    2    1    2    0    0 -0.36571652011E+02 -0.15957546692E+03 -0.14942356543E+02  0.19413803091E+03  0.10326899658E+03 0.  0.
        254    2    1    2    0    0  0.36571652011E+02  0.15957546692E+03  0.27782048265E+04  0.29201545444E+04  0.88435212987E+03 0.  0.
         23    2    4    4    0    0  0.21028134407E+03 -0.13459479601E+03  0.24342087447E+03  0.36075473705E+03  0.92500029197E+02 0.  0.
         23    2    4    4    0    0 -0.17370969206E+03  0.29417026292E+03  0.25347839521E+04  0.25593998074E+04  0.93201338453E+02 0.  0.
          1    1    3    3  502    0 -0.49205533513E+01 -0.25395108905E+02  0.38412891637E+02  0.46310621303E+02  0.00000000000E+00 0. -1.
         -1    1    3    3    0  502 -0.31651098659E+02 -0.13418035801E+03 -0.53355248180E+02  0.14782740961E+03  0.00000000000E+00 0.  1.
         11    1    5    5    0    0  0.29628081020E+02 -0.60376075462E+02  0.37737274960E+02  0.77118062700E+02  0.00000000000E+00 0. -1.
        -11    1    5    5    0    0  0.18065326305E+03 -0.74218720545E+02  0.20568359951E+03  0.28363667435E+03  0.00000000000E+00 0.  1.
          2    1    6    6  503    0 -0.17617968657E+03  0.24253092297E+03  0.20370939290E+04  0.20590318613E+04  0.00000000000E+00 0.  1.
         -2    1    6    6    0  503  0.24699945116E+01  0.51639339955E+02  0.49769002310E+03  0.50036794601E+03  0.00000000000E+00 0. -1.
<mgrwt>
<rscale>  0 0.14363839E+04</rscale>
<asrwt>0</asrwt>
<pdfrwt beam="1">  1        2 0.45211958E+00 0.14363839E+04</pdfrwt>
<pdfrwt beam="2">  1       -2 0.27002318E-01 0.14363839E+04</pdfrwt>
<totfact> 0.23179234E+01</totfact>
</mgrwt>
</event>
<event>
12    2  0.3561489E-008  0.1189599E+04  0.7818608E-02  0.9122009E-01
         -1   -1    0    0    0  501 -0.00000000000E+00  0.00000000000E+00  0.55278327854E+03  0.55278327854E+03  0.00000000000E+00 0.  1.
          1   -1    0    0  501    0  0.00000000000E+00 -0.00000000000E+00 -0.64000976024E+03  0.64000976024E+03  0.00000000000E+00 0. -1.
         23    2    1    2    0    0 -0.83378340021E+02  0.15474153487E+03  0.14979875297E+03  0.24852179222E+03  0.91796103515E+02 0.  0.
        254    2    1    2    0    0  0.83378340021E+02 -0.15474153487E+03 -0.23702523467E+03  0.94427124656E+03  0.89697844735E+03 0.  0.
         23    2    4    4    0    0  0.27262641587E+03 -0.43223545972E+03  0.71869296571E+01  0.51916316455E+03  0.91247379110E+02 0.  0.
         23    2    4    4    0    0 -0.18924807585E+03  0.27749392485E+03 -0.24421216432E+03  0.42510808201E+03  0.90882273522E+02 0.  0.
          2    1    3    3  502    0 -0.26325908412E+02 -0.31451420059E+01  0.53389157237E+01  0.27045321093E+02  0.00000000000E+00 0. -1.
         -2    1    3    3    0  502 -0.57052431610E+02  0.15788667687E+03  0.14445983725E+03  0.22147647113E+03  0.00000000000E+00 0.  1.
         11    1    5    5    0    0  0.14824945171E+03 -0.15888547665E+03  0.22419804922E+02  0.21846084838E+03  0.00000000000E+00 0.  1.
        -11    1    5    5    0    0  0.12437696416E+03 -0.27334998307E+03 -0.15232875265E+02  0.30070231616E+03  0.00000000000E+00 0. -1.
          4    1    6    6  503    0 -0.75102417117E+02  0.18462491931E+03 -0.15978173403E+03  0.25545437248E+03  0.00000000000E+00 0. -1.
         -4    1    6    6    0  503 -0.11414565873E+03  0.92869005547E+02 -0.84430430290E+02  0.16965370953E+03  0.00000000000E+00 0.  1.
<mgrwt>
<rscale>  0 0.11895994E+04</rscale>
<asrwt>0</asrwt>
<pdfrwt beam="1">  1        1 0.98463040E-01 0.11895994E+04</pdfrwt>
<pdfrwt beam="2">  1       -1 0.85043581E-01 0.11895994E+04</pdfrwt>
<totfact> 0.42233615E+01</totfact>
</mgrwt>
</event>
<event>
12    2  0.3561489E-008  0.1243237E+04  0.7818608E-02  0.9075831E-01
          2   -1    0    0  501    0  0.00000000000E+00  0.00000000000E+00  0.26596434119E+04  0.26596434119E+04  0.00000000000E+00 0. -1.
         -2   -1    0    0    0  501 -0.00000000000E+00 -0.00000000000E+00 -0.14528619787E+03  0.14528619787E+03  0.00000000000E+00 0.  1.
         23    2    1    2    0    0  0.18329712000E+03 -0.21648158793E+03  0.55776980788E+03  0.63299010351E+03  0.95431653231E+02 0.  0.
        254    2    1    2    0    0 -0.18329712000E+03  0.21648158793E+03  0.19565874062E+04  0.21719395063E+04  0.89923569151E+03 0.  0.
         23    2    4    4    0    0 -0.11098797183E+03  0.52643831003E+03  0.15724380724E+04  0.16644540474E+04  0.91597818195E+02 0.  0.
         23    2    4    4    0    0 -0.72309148172E+02 -0.30995672211E+03  0.38414933374E+03  0.50748545884E+03  0.93107453132E+02 0.  0.
          3    1    3    3  502    0  0.55888150115E+02 -0.11087035470E+03  0.32049596088E+03  0.34370537065E+03  0.00000000000E+00 0. -1.
         -3    1    3    3    0  502  0.12740896988E+03 -0.10561123322E+03  0.23727384701E+03  0.28928473286E+03  0.00000000000E+00 0.  1.
         11    1    5    5    0    0  0.12414928503E+02  0.21976436597E+02  0.99136253157E+02  0.10229902690E+03  0.00000000000E+00 0.  1.
        -11    1    5    5    0    0 -0.12340290033E+03  0.50446187344E+03  0.14733018193E+04  0.15621550205E+04  0.00000000000E+00 0. -1.
          3    1    6    6  503    0 -0.88389297998E+02 -0.18104978752E+03  0.24289461455E+03  0.31557802100E+03  0.00000000000E+00 0. -1.
         -3    1    6    6    0  503  0.16080149826E+02 -0.12890693459E+03  0.14125471919E+03  0.19190743784E+03  0.00000000000E+00 0.  1.
<mgrwt>
<rscale>  0 0.12432369E+04</rscale>
<asrwt>0</asrwt>
<pdfrwt beam="1">  1        2 0.40917587E+00 0.12432369E+04</pdfrwt>
<pdfrwt beam="2">  1       -2 0.22351725E-01 0.12432369E+04</pdfrwt>
<totfact> 0.48837834E+01</totfact>
</mgrwt>
</event>
<event>
12    2  0.3561489E-008  0.2809156E+04  0.7818608E-02  0.8300432E-01
          2   -1    0    0  501    0  0.00000000000E+00  0.00000000000E+00  0.30879369678E+04  0.30879369678E+04  0.00000000000E+00 0. -1.
         -2   -1    0    0    0  501 -0.00000000000E+00 -0.00000000000E+00 -0.63888574565E+03  0.63888574565E+03  0.00000000000E+00 0.  1.
         23    2    1    2    0    0 -0.41167213644E+03  0.37828010392E+03 -0.39573467236E+03  0.69102213202E+03  0.91300991773E+02 0.  0.
        254    2    1    2    0    0  0.41167213644E+03 -0.37828010392E+03  0.28447858946E+04  0.30358005815E+04  0.90039358041E+03 0.  0.
         23    2    4    4    0    0 -0.27953832707E+03 -0.10721988994E+03  0.78294936929E+03  0.84241332156E+03  0.83741915294E+02 0.  0.
         23    2    4    4    0    0  0.69121046350E+03 -0.27106021398E+03  0.20618365253E+04  0.21933872599E+04  0.92370290387E+02 0.  0.
          4    1    3    3  502    0 -0.75944662150E+02  0.56692899894E+02 -0.29692305713E+02  0.99314196498E+02  0.00000000000E+00 0. -1.
         -4    1    3    3    0  502 -0.33572747429E+03  0.32158720403E+03 -0.36604236664E+03  0.59170793553E+03  0.00000000000E+00 0.  1.
         11    1    5    5    0    0 -0.26086289537E+03 -0.11619736234E+03  0.75782979226E+03  0.80985015357E+03  0.00000000000E+00 0. -1.
        -11    1    5    5    0    0 -0.18675431697E+02  0.89774724001E+01  0.25119577030E+02  0.32563167996E+02  0.00000000000E+00 0.  1.
          2    1    6    6  503    0  0.19062105879E+03 -0.11289155469E+03  0.68043477480E+03  0.71559232383E+03  0.00000000000E+00 0.  1.
         -2    1    6    6    0  503  0.50058940471E+03 -0.15816865929E+03  0.13814017505E+04  0.14777949361E+04  0.00000000000E+00 0. -1.
<mgrwt>
<rscale>  0 0.28091557E+04</rscale>
<asrwt>0</asrwt>
<pdfrwt beam="1">  1        2 0.47506722E+00 0.28091557E+04</pdfrwt>
<pdfrwt beam="2">  1       -2 0.98290116E-01 0.28091557E+04</pdfrwt>
<totfact> 0.11454669E+00</totfact>
</mgrwt>
</event>
<event>
12    2  0.3561489E-008  0.3024318E+04  0.7818608E-02  0.8236821E-01
         -1   -1    0    0    0  501 -0.00000000000E+00  0.00000000000E+00  0.96457870327E+03  0.96457870327E+03  0.00000000000E+00 0.  1.
          1   -1    0    0  501    0  0.00000000000E+00 -0.00000000000E+00 -0.23705940476E+04  0.23705940476E+04  0.00000000000E+00 0. -1.
         23    2    1    2    0    0 -0.59349869632E+03  0.59485231528E+03  0.55696949249E+03  0.10120919685E+04  0.89583244025E+02 0.  0.
        254    2    1    2    0    0  0.59349869632E+03 -0.59485231528E+03 -0.19629848368E+04  0.23230807824E+04  0.91504364501E+03 0.  0.
         23    2    4    4    0    0  0.59395759427E+03 -0.49029460750E+03 -0.20271441636E+04  0.21704831314E+04  0.92244987743E+02 0.  0.
         23    2    4    4    0    0 -0.45889794766E+00 -0.10455770778E+03  0.64159326810E+02  0.15259765093E+03  0.90758465218E+02 0.  0.
          2    1    3    3  502    0 -0.32510950477E+03  0.29025032563E+03  0.33263767542E+03  0.54826021625E+03  0.00000000000E+00 0.  1.
         -2    1    3    3    0  502 -0.26838919155E+03  0.30460198966E+03  0.22433181707E+03  0.46383175225E+03  0.00000000000E+00 0. -1.
         11    1    5    5    0    0  0.58877500066E+03 -0.46805645929E+03 -0.19813620834E+04  0.21193226645E+04  0.00000000000E+00 0. -1.
        -11    1    5    5    0    0  0.51825936095E+01 -0.22238148214E+02 -0.45782080204E+02  0.51160466967E+02  0.00000000000E+00 0.  1.
          2    1    6    6  503    0  0.29573340818E+02 -0.97546776085E+02  0.29308784009E+02  0.10606111838E+03  0.00000000000E+00 0. -1.
         -2    1    6    6    0  503 -0.30032238765E+02 -0.70109316996E+01  0.34850542801E+02  0.46536532553E+02  0.00000000000E+00 0.  1.
<mgrwt>
<rscale>  0 0.30243178E+04</rscale>
<asrwt>0</asrwt>
<pdfrwt beam="1">  1        1 0.36470678E+00 0.30243178E+04</pdfrwt>
<pdfrwt beam="2">  1       -1 0.14839672E+00 0.30243178E+04</pdfrwt>
<totfact> 0.50758142E-01</totfact>
</mgrwt>
</event>
<event>
12    2  0.3561489E-008  0.2090408E+04  0.7818608E-02  0.8565481E-01
         -1   -1    0    0    0  501 -0.00000000000E+00  0.00000000000E+00  0.88246029287E+03  0.88246029287E+03  0.00000000000E+00 0.  1.
          1   -1    0    0  501    0  0.00000000000E+00 -0.00000000000E+00 -0.12379609292E+04  0.12379609292E+04  0.00000000000E+00 0. -1.
         23    2    1    2    0    0 -0.21390674478E+03 -0.63213252129E+03  0.38619401074E+03  0.77583498248E+03  0.86177062953E+02 0.  0.
        254    2    1    2    0    0  0.21390674478E+03  0.63213252129E+03 -0.74169464703E+03  0.13445862396E+04  0.90136207277E+03 0.  0.
         23    2    4    4    0    0  0.93030173600E+02  0.72794707090E+03 -0.18856658194E+03  0.76333485095E+03  0.92526685999E+02 0.  0.
         23    2    4    4    0    0  0.12087657118E+03 -0.95814549609E+02 -0.55312806509E+03  0.58125138861E+03  0.90060796052E+02 0.  0.
          1    1    3    3  502    0 -0.72633002621E+02 -0.28118109654E+03  0.21070135893E+03  0.35879440461E+03  0.00000000000E+00 0. -1.
         -1    1    3    3    0  502 -0.14127374216E+03 -0.35095142475E+03  0.17549265181E+03  0.41704057787E+03  0.00000000000E+00 0.  1.
         11    1    5    5    0    0  0.71611633672E+02  0.27721510989E+03 -0.10148085939E+03  0.30376768764E+03  0.00000000000E+00 0. -1.
        -11    1    5    5    0    0  0.21418539929E+02  0.45073196100E+03 -0.87085722552E+02  0.45956716331E+03  0.00000000000E+00 0.  1.
          3    1    6    6  503    0 -0.76286851796E+01 -0.25704452291E+02 -0.44277652414E+02  0.51763174250E+02  0.00000000000E+00 0. -1.
         -3    1    6    6    0  503  0.12850525636E+03 -0.70110097318E+02 -0.50885041268E+03  0.52948821436E+03  0.00000000000E+00 0.  1.
<mgrwt>
<rscale>  0 0.20904080E+04</rscale>
<asrwt>0</asrwt>
<pdfrwt beam="1">  1        1 0.19045553E+00 0.20904080E+04</pdfrwt>
<pdfrwt beam="2">  1       -1 0.13576312E+00 0.20904080E+04</pdfrwt>
<totfact> 0.41902320E+00</totfact>
</mgrwt>
</event>
<event>
12    2  0.3561489E-008  0.1554256E+04  0.7818608E-02  0.8849154E-01
         -2   -1    0    0    0  501 -0.00000000000E+00  0.00000000000E+00  0.27036751270E+03  0.27036751270E+03  0.00000000000E+00 0.  1.
          2   -1    0    0  501    0  0.00000000000E+00 -0.00000000000E+00 -0.22337302101E+04  0.22337302101E+04  0.00000000000E+00 0. -1.
         23    2    1    2    0    0  0.49753508031E+03  0.39340525039E+02 -0.84181302085E+03  0.98640621203E+03  0.12352821543E+03 0.  0.
        254    2    1    2    0    0 -0.49753508031E+03 -0.39340525039E+02 -0.11215496766E+04  0.15176915108E+04  0.89242647421E+03 0.  0.
         23    2    4    4    0    0 -0.73826208289E+03  0.49705133813E+02 -0.81722202124E+03  0.11065942230E+04  0.95903279871E+02 0.  0.
         23    2    4    4    0    0  0.24072700258E+03 -0.89045658852E+02 -0.30432765535E+03  0.41109728777E+03  0.10250384905E+03 0.  0.
          1    1    3    3  502    0  0.44987693315E+03 -0.29175382932E+01 -0.72143224930E+03  0.85021306585E+03  0.00000000000E+00 0. -1.
         -1    1    3    3    0  502  0.47658147158E+02  0.42258063332E+02 -0.12038077155E+03  0.13619314618E+03  0.00000000000E+00 0.  1.
         11    1    5    5    0    0 -0.40640711743E+03 -0.12421418992E+02 -0.40694085327E+03  0.57525811147E+03  0.00000000000E+00 0.  1.
        -11    1    5    5    0    0 -0.33185496546E+03  0.62126552806E+02 -0.41028116797E+03  0.53133611157E+03  0.00000000000E+00 0. -1.
          4    1    6    6  503    0  0.24727313809E+03 -0.84385104934E+02 -0.26952082966E+03  0.37537491708E+03  0.00000000000E+00 0. -1.
         -4    1    6    6    0  503 -0.65461355078E+01 -0.46605539183E+01 -0.34806825689E+02  0.35722370687E+02  0.00000000000E+00 0.  1.
<mgrwt>
<rscale>  0 0.15542562E+04</rscale>
<asrwt>0</asrwt>
<pdfrwt beam="1">  1        2 0.34365080E+00 0.15542562E+04</pdfrwt>
<pdfrwt beam="2">  1       -2 0.41595002E-01 0.15542562E+04</pdfrwt>
<totfact> 0.26073063E+01</totfact>
</mgrwt>
</event>
<event>
12    2  0.3561489E-008  0.1425884E+04  0.7818608E-02  0.8935293E-01
         -1   -1    0    0    0  501 -0.00000000000E+00  0.00000000000E+00  0.13803320251E+04  0.13803320251E+04  0.00000000000E+00 0.  1.
          1   -1    0    0  501    0  0.00000000000E+00 -0.00000000000E+00 -0.36823470769E+03  0.36823470769E+03  0.00000000000E+00 0. -1.
         23    2    1    2    0    0 -0.35018873415E+03  0.15399208846E+02  0.27725691930E+02  0.36303684770E+03  0.90320283625E+02 0.  0.
        254    2    1    2    0    0  0.35018873415E+03 -0.15399208846E+02  0.98437162549E+03  0.13855298851E+04  0.90985508753E+03 0.  0.
         23    2    4    4    0    0  0.34931127633E+01  0.31651221060E+03  0.79629730520E+03  0.86171255312E+03  0.90922739919E+02 0.  0.
         23    2    4    4    0    0  0.34669562139E+03 -0.33191141944E+03  0.18807432029E+03  0.52381733199E+03  0.93003242401E+02 0.  0.
          2    1    3    3  502    0 -0.34810071975E+03  0.18767010942E+02  0.39289167001E+02  0.35081327004E+03  0.00000000000E+00 0. -1.
         -2    1    3    3    0  502 -0.20880143991E+01 -0.33678020952E+01 -0.11563475071E+02  0.12223577659E+02  0.00000000000E+00 0.  1.
         11    1    5    5    0    0  0.41827828975E+02  0.15118991208E+03  0.43831230026E+03  0.46553799990E+03  0.00000000000E+00 0.  1.
        -11    1    5    5    0    0 -0.38334716212E+02  0.16532229851E+03  0.35798500494E+03  0.39617455321E+03  0.00000000000E+00 0. -1.
          3    1    6    6  503    0  0.88058575741E+02 -0.35598323901E+02  0.26489466983E+02  0.98606517468E+02  0.00000000000E+00 0. -1.
         -3    1    6    6    0  503  0.25863704565E+03 -0.29631309554E+03  0.16158485331E+03  0.42521081453E+03  0.00000000000E+00 0.  1.
<mgrwt>
<rscale>  0 0.14258838E+04</rscale>
<asrwt>0</asrwt>
<pdfrwt beam="1">  1        1 0.56651494E-01 0.14258838E+04</pdfrwt>
<pdfrwt beam="2">  1       -1 0.21235877E+00 0.14258838E+04</pdfrwt>
<totfact> 0.80749877E+00</totfact>
</mgrwt>
</event>
<event>
12    2  0.3561489E-008  0.1690700E+04  0.7818608E-02  0.8766686E-01
         -2   -1    0    0    0  501 -0.00000000000E+00  0.00000000000E+00  0.59773332949E+03  0.59773332949E+03  0.00000000000E+00 0.  1.
          2   -1    0    0  501    0  0.00000000000E+00 -0.00000000000E+00 -0.11955440279E+04  0.11955440279E+04  0.00000000000E+00 0. -1.
         23    2    1    2    0    0  0.60092199632E+03 -0.55942668639E+02 -0.20081304206E+03  0.64257592505E+03  0.91329698080E+02 0.  0.
        254    2    1    2    0    0 -0.60092199632E+03  0.55942668639E+02 -0.39699765631E+03  0.11507014323E+04  0.89569515984E+03 0.  0.
         23    2    4    4    0    0 -0.70142655972E+03 -0.16563697605E+03 -0.64555244416E+02  0.72936802534E+03  0.91517814070E+02 0.  0.
         23    2    4    4    0    0  0.10050456340E+03  0.22157964469E+03 -0.33244241189E+03  0.42133340697E+03  0.88346909360E+02 0.  0.
          3    1    3    3  502    0  0.60370521671E+03 -0.55087936758E+02 -0.20258487115E+03  0.63916766147E+03  0.00000000000E+00 0. -1.
         -3    1    3    3    0  502 -0.27832203814E+01 -0.85473188112E+00  0.17718290909E+01  0.34082635766E+01  0.00000000000E+00 0.  1.
         11    1    5    5    0    0 -0.20649498744E+03 -0.19402097759E+02 -0.48679632777E+02  0.21304067190E+03  0.00000000000E+00 0. -1.
        -11    1    5    5    0    0 -0.49493157228E+03 -0.14623487829E+03 -0.15875611639E+02  0.51632735344E+03  0.00000000000E+00 0.  1.
          1    1    6    6  503    0  0.59506607983E+02  0.60229642992E+02 -0.66845929350E+02  0.10787504141E+03  0.00000000000E+00 0. -1.
         -1    1    6    6    0  503  0.40997955416E+02  0.16135000170E+03 -0.26559648254E+03  0.31345836556E+03  0.00000000000E+00 0.  1.
<mgrwt>
<rscale>  0 0.16906999E+04</rscale>
<asrwt>0</asrwt>
<pdfrwt beam="1">  1        2 0.18392985E+00 0.16906999E+04</pdfrwt>
<pdfrwt beam="2">  1       -2 0.91958975E-01 0.16906999E+04</pdfrwt>
<totfact> 0.18248636E+01</totfact>
</mgrwt>
</event>
<event>
12    2  0.3561489E-008  0.2448895E+04  0.7818608E-02  0.8421422E-01
         -2   -1    0    0    0  501 -0.00000000000E+00  0.00000000000E+00  0.19555770362E+04  0.19555770362E+04  0.00000000000E+00 0. -1.
          2   -1    0    0  501    0  0.00000000000E+00 -0.00000000000E+00 -0.76666452604E+03  0.76666452604E+03  0.00000000000E+00 0.  1.
         23    2    1    2    0    0 -0.32386310510E+03 -0.33968533666E+03 -0.53980759565E+03  0.72158158946E+03  0.94943726179E+02 0.  0.
        254    2    1    2    0    0  0.32386310510E+03  0.33968533666E+03  0.17287201058E+04  0.20006599727E+04  0.89100711759E+03 0.  0.
         23    2    4    4    0    0 -0.21367978381E+03  0.25468374725E+03  0.11527619740E+04  0.12031063521E+04  0.89899192260E+02 0.  0.
         23    2    4    4    0    0  0.53754288891E+03  0.85001589409E+02  0.57595813179E+03  0.79755362060E+03  0.90478619207E+02 0.  0.
          1    1    3    3  502    0 -0.84071886645E+01 -0.40196749787E+01  0.28835637226E+01  0.97546680065E+01  0.00000000000E+00 0. -1.
         -1    1    3    3    0  502 -0.31545591643E+03 -0.33566566168E+03 -0.54269115937E+03  0.71182692146E+03  0.00000000000E+00 0.  1.
         11    1    5    5    0    0 -0.69748073715E+02  0.26617527747E+02  0.24157665771E+03  0.25284890374E+03  0.00000000000E+00 0.  1.
        -11    1    5    5    0    0 -0.14393171009E+03  0.22806621951E+03  0.91118531626E+03  0.95025744839E+03  0.00000000000E+00 0. -1.
          1    1    6    6  503    0  0.52429855502E+03  0.68145149626E+02  0.54029968182E+03  0.75594740716E+03  0.00000000000E+00 0. -1.
         -1    1    6    6    0  503  0.13244333884E+02  0.16856439782E+02  0.35658449973E+02  0.41606213438E+02  0.00000000000E+00 0.  1.
<mgrwt>
<rscale>  0 0.24488949E+04</rscale>
<asrwt>0</asrwt>
<pdfrwt beam="1">  1        2 0.11794839E+00 0.24488949E+04</pdfrwt>
<pdfrwt beam="2">  1       -2 0.30085800E+00 0.24488949E+04</pdfrwt>
<totfact> 0.10250796E+00</totfact>
</mgrwt>
</event>
<event>
12    2  0.3561489E-008  0.1522866E+04  0.7818608E-02  0.8869388E-01
          1   -1    0    0  501    0  0.00000000000E+00  0.00000000000E+00  0.11954399517E+04  0.11954399517E+04  0.00000000000E+00 0. -1.
         -1   -1    0    0    0  501 -0.00000000000E+00 -0.00000000000E+00 -0.48499341895E+03  0.48499341895E+03  0.00000000000E+00 0.  1.
         23    2    1    2    0    0 -0.35637619943E+03  0.16630252372E+03 -0.87947263539E+02  0.41284783150E+03  0.89711124727E+02 0.  0.
        254    2    1    2    0    0  0.35637619943E+03 -0.16630252372E+03  0.79839379626E+03  0.12675855391E+04  0.90259621104E+03 0.  0.
         23    2    4    4    0    0  0.12945092143E+03 -0.49891008010E+03  0.24750044349E+03  0.57895531768E+03  0.90906442372E+02 0.  0.
         23    2    4    4    0    0  0.22692527800E+03  0.33260755638E+03  0.55089335278E+03  0.68863022144E+03  0.92764364911E+02 0.  0.
          3    1    3    3  502    0 -0.40383209504E+02  0.47796604199E+02  0.50772158558E+01  0.62778157854E+02  0.00000000000E+00 0. -1.
         -3    1    3    3    0  502 -0.31599298993E+03  0.11850591952E+03 -0.93024479395E+02  0.35006967365E+03  0.00000000000E+00 0.  1.
         11    1    5    5    0    0 -0.10833757119E+02 -0.13588350432E+02  0.14451540581E+02  0.22602225243E+02  0.00000000000E+00 0.  1.
        -11    1    5    5    0    0  0.14028467855E+03 -0.48532172966E+03  0.23304890291E+03  0.55635309244E+03  0.00000000000E+00 0. -1.
          1    1    6    6  503    0  0.13596707642E+03  0.20685498623E+03  0.26043692149E+03  0.35930964539E+03  0.00000000000E+00 0. -1.
         -1    1    6    6    0  503  0.90958201583E+02  0.12575257015E+03  0.29045643129E+03  0.32932057605E+03  0.00000000000E+00 0.  1.
<mgrwt>
<rscale>  0 0.15228664E+04</rscale>
<asrwt>0</asrwt>
<pdfrwt beam="1">  1        1 0.18391384E+00 0.15228664E+04</pdfrwt>
<pdfrwt beam="2">  1       -1 0.74614373E-01 0.15228664E+04</pdfrwt>
<totfact> 0.18792570E+01</totfact>
</mgrwt>
</event>
<event>
12    2  0.3561489E-008  0.1209591E+04  0.7818608E-02  0.9104503E-01
         -1   -1    0    0    0  501 -0.00000000000E+00  0.00000000000E+00  0.39344502445E+03  0.39344502445E+03  0.00000000000E+00 0.  1.
          1   -1    0    0  501    0  0.00000000000E+00 -0.00000000000E+00 -0.92967864279E+03  0.92967864279E+03  0.00000000000E+00 0. -1.
         23    2    1    2    0    0  0.22179744587E+03  0.39450489305E+01 -0.28210997197E+03  0.37437069613E+03  0.10657256417E+03 0.  0.
        254    2    1    2    0    0 -0.22179744587E+03 -0.39450489305E+01 -0.25412364637E+03  0.94875297111E+03  0.88676022810E+03 0.  0.
         23    2    4    4    0    0  0.21538339583E+03  0.24067605401E+03 -0.28423017849E+03  0.43862882002E+03  0.85401857241E+02 0.  0.
         23    2    4    4    0    0 -0.43718084170E+03 -0.24462110294E+03  0.30106532117E+02  0.51012415108E+03  0.91398434849E+02 0.  0.
          1    1    3    3  502    0  0.17014527638E+03 -0.36566934030E+01 -0.27251178737E+03  0.32128719354E+03  0.00000000000E+00 0. -1.
         -1    1    3    3    0  502  0.51652169494E+02  0.76017423335E+01 -0.95981846018E+01  0.53083502594E+02  0.00000000000E+00 0.  1.
         11    1    5    5    0    0  0.81550899901E+02  0.15475194281E+03 -0.15455355043E+03  0.23342132085E+03  0.00000000000E+00 0.  1.
        -11    1    5    5    0    0  0.13383249593E+03  0.85924111197E+02 -0.12967662806E+03  0.20520749917E+03  0.00000000000E+00 0. -1.
          1    1    6    6  503    0 -0.32933896002E+02  0.59533312655E+01 -0.11759154056E+01  0.33488302974E+02  0.00000000000E+00 0. -1.
         -1    1    6    6    0  503 -0.40424694570E+03 -0.25057443420E+03  0.31282447523E+02  0.47663584811E+03  0.00000000000E+00 0.  1.
<mgrwt>
<rscale>  0 0.12095907E+04</rscale>
<asrwt>0</asrwt>
<pdfrwt beam="1">  1        1 0.14302748E+00 0.12095907E+04</pdfrwt>
<pdfrwt beam="2">  1       -1 0.60530004E-01 0.12095907E+04</pdfrwt>
<totfact> 0.47116113E+01</totfact>
</mgrwt>
</event>
<event>
12    2  0.3561489E-008  0.1616629E+04  0.7818608E-02  0.8810397E-01
          1   -1    0    0  501    0  0.00000000000E+00  0.00000000000E+00  0.43549161238E+03  0.43549161238E+03  0.00000000000E+00 0. -1.
         -1   -1    0    0    0  501 -0.00000000000E+00 -0.00000000000E+00 -0.15003092391E+04  0.15003092391E+04  0.00000000000E+00 0.  1.
         23    2    1    2    0    0 -0.43056163848E+02  0.46167738241E+03 -0.77424985869E+01  0.47285525412E+03  0.92370484409E+02 0.  0.
        254    2    1    2    0    0  0.43056163848E+02 -0.46167738241E+03 -0.10570751281E+04  0.14629455973E+04  0.89877814595E+03 0.  0.
         23    2    4    4    0    0 -0.75050491832E+02  0.22549679523E+03 -0.95328559331E+02  0.27156496290E+03  0.90435689137E+02 0.  0.
         23    2    4    4    0    0  0.11810665568E+03 -0.68717417763E+03 -0.96174656875E+03  0.11913806344E+04  0.90960546606E+02 0.  0.
          1    1    3    3  502    0 -0.11051865689E+02  0.64582017691E+02 -0.33600317915E+02  0.73633973873E+02  0.00000000000E+00 0. -1.
         -1    1    3    3    0  502 -0.32004298160E+02  0.39709536471E+03  0.25857819328E+02  0.39922128024E+03  0.00000000000E+00 0.  1.
         11    1    5    5    0    0 -0.83077568505E+02  0.11633436880E+03 -0.70203887060E+02  0.15926127436E+03  0.00000000000E+00 0. -1.
        -11    1    5    5    0    0  0.80270766725E+01  0.10916242642E+03 -0.25124672271E+02  0.11230368854E+03  0.00000000000E+00 0.  1.
          1    1    6    6  503    0  0.11116499490E+03 -0.43270447499E+03 -0.65336718156E+03  0.79150457529E+03  0.00000000000E+00 0. -1.
         -1    1    6    6    0  503  0.69416607774E+01 -0.25446970264E+03 -0.30837938719E+03  0.39987605913E+03  0.00000000000E+00 0.  1.
<mgrwt>
<rscale>  0 0.16166287E+04</rscale>
<asrwt>0</asrwt>
<pdfrwt beam="1">  1        1 0.66998709E-01 0.16166287E+04</pdfrwt>
<pdfrwt beam="2">  1       -1 0.23081681E+00 0.16166287E+04</pdfrwt>
<totfact> 0.47815115E+00</totfact>
</mgrwt>
</event>
<event>
12    2  0.3561489E-008  0.1603262E+04  0.7818608E-02  0.8818546E-01
          2   -1    0    0  501    0  0.00000000000E+00  0.00000000000E+00  0.37478631159E+03  0.37478631159E+03  0.00000000000E+00 0.  1.
         -2   -1    0    0    0  501 -0.00000000000E+00 -0.00000000000E+00 -0.17146102417E+04  0.17146102417E+04  0.00000000000E+00 0. -1.
         23    2    1    2    0    0 -0.41093649160E+02 -0.26827715393E+03 -0.10707224009E+04  0.11082978587E+04  0.90644164428E+02 0.  0.
        254    2    1    2    0    0  0.41093649160E+02  0.26827715393E+03 -0.26910152916E+03  0.98109869452E+03  0.90359155378E+03 0.  0.
         23    2    4    4    0    0 -0.31532207448E+03  0.11477919466E+03 -0.42807677986E+03  0.55155094236E+03  0.91413556876E+02 0.  0.
         23    2    4    4    0    0  0.35641572364E+03  0.15349795927E+03  0.15897525070E+03  0.42954775215E+03  0.92974993879E+02 0.  0.
          4    1    3    3  502    0 -0.18777939030E+02 -0.24917245063E+03 -0.10150013297E+04  0.10453072373E+04  0.00000000000E+00 0. -1.
         -4    1    3    3    0  502 -0.22315710131E+02 -0.19104703299E+02 -0.55721071219E+02  0.62990621402E+02  0.00000000000E+00 0.  1.
         11    1    5    5    0    0 -0.68931532193E+02  0.43903157071E+00 -0.13734422085E+03  0.15367232633E+03  0.00000000000E+00 0.  1.
        -11    1    5    5    0    0 -0.24639054229E+03  0.11434016309E+03 -0.29073255901E+03  0.39787861603E+03  0.00000000000E+00 0. -1.
          2    1    6    6  503    0  0.33732036531E+03  0.13015721268E+03  0.16711318159E+03  0.39831237029E+03  0.00000000000E+00 0. -1.
         -2    1    6    6    0  503  0.19095358330E+02  0.23340746593E+02 -0.81379308834E+01  0.31235381866E+02  0.00000000000E+00 0.  1.
<mgrwt>
<rscale>  0 0.16032622E+04</rscale>
<asrwt>0</asrwt>
<pdfrwt beam="1">  1        2 0.57659435E-01 0.16032622E+04</pdfrwt>
<pdfrwt beam="2">  1       -2 0.26378618E+00 0.16032622E+04</pdfrwt>
<totfact> 0.43434517E+00</totfact>
</mgrwt>
</event>
<event>
12    2  0.3561489E-008  0.1337039E+04  0.7818608E-02  0.9000698E-01
          1   -1    0    0  501    0  0.00000000000E+00  0.00000000000E+00  0.55259829168E+03  0.55259829168E+03  0.00000000000E+00 0. -1.
         -1   -1    0    0    0  501 -0.00000000000E+00 -0.00000000000E+00 -0.80875807090E+03  0.80875807090E+03  0.00000000000E+00 0.  1.
         23    2    1    2    0    0 -0.11037489363E+03 -0.34350611958E+02 -0.40505461415E+03  0.43570607908E+03  0.11139104638E+03 0.  0.
        254    2    1    2    0    0  0.11037489363E+03  0.34350611958E+02  0.14889483492E+03  0.92565028350E+03  0.90625393450E+03 0.  0.
         23    2    4    4    0    0  0.38513888865E+03  0.26690850306E+03  0.25265652667E+03  0.53932368389E+03  0.86386358761E+02 0.  0.
         23    2    4    4    0    0 -0.27476399502E+03 -0.23255789110E+03 -0.10376169174E+03  0.38632659962E+03  0.94357443919E+02 0.  0.
          4    1    3    3  502    0 -0.15569267407E+02 -0.42833797333E+02 -0.24726472917E+03  0.25142987606E+03  0.00000000000E+00 0. -1.
         -4    1    3    3    0  502 -0.94805626223E+02  0.84831853758E+01 -0.15778988498E+03  0.18427620302E+03  0.00000000000E+00 0.  1.
         11    1    5    5    0    0  0.37072961042E+03  0.23011194193E+03  0.22375510099E+03  0.49036547093E+03  0.00000000000E+00 0. -1.
        -11    1    5    5    0    0  0.14409278233E+02  0.36796561133E+02  0.28901425673E+02  0.48958212961E+02  0.00000000000E+00 0.  1.
          1    1    6    6  503    0 -0.22353959738E+03 -0.13581763419E+03 -0.86574051392E+02  0.27552032181E+03  0.00000000000E+00 0. -1.
         -1    1    6    6    0  503 -0.51224397639E+02 -0.96740256908E+02 -0.17187640351E+02  0.11080627780E+03  0.00000000000E+00 0.  1.
<mgrwt>
<rscale>  0 0.13370390E+04</rscale>
<asrwt>0</asrwt>
<pdfrwt beam="1">  1        1 0.85015121E-01 0.13370390E+04</pdfrwt>
<pdfrwt beam="2">  1       -1 0.12442432E+00 0.13370390E+04</pdfrwt>
<totfact> 0.21379872E+01</totfact>
</mgrwt>
</event>
<event>
12    2  0.3561489E-008  0.1477884E+04  0.7818608E-02  0.8899294E-01
          2   -1    0    0  501    0  0.00000000000E+00  0.00000000000E+00  0.13873734127E+04  0.13873734127E+04  0.00000000000E+00 0. -1.
         -2   -1    0    0    0  501 -0.00000000000E+00 -0.00000000000E+00 -0.39357507878E+03  0.39357507878E+03  0.00000000000E+00 0.  1.
         23    2    1    2    0    0 -0.17073048345E+03 -0.41686931840E+03  0.20978956406E+03  0.50509410768E+03  0.90440421374E+02 0.  0.
        254    2    1    2    0    0  0.17073048345E+03  0.41686931840E+03  0.78400876990E+03  0.12758543838E+04  0.90011428769E+03 0.  0.
         23    2    4    4    0    0 -0.25843185471E+03  0.54683662151E+02 -0.30930879516E+02  0.28300767850E+03  0.96743477018E+02 0.  0.
         23    2    4    4    0    0  0.42916233816E+03  0.36218565625E+03  0.81493964941E+03  0.99284670535E+03  0.79115017811E+02 0.  0.
          2    1    3    3  502    0 -0.62449441106E+02 -0.19064607553E+03  0.46853675484E+02  0.20601244068E+03  0.00000000000E+00 0. -1.
         -2    1    3    3    0  502 -0.10828104235E+03 -0.22622324287E+03  0.16293588858E+03  0.29908166700E+03  0.00000000000E+00 0.  1.
         11    1    5    5    0    0 -0.13941482383E+03  0.77869350584E+02 -0.10385225010E+02  0.16002494106E+03  0.00000000000E+00 0.  1.
        -11    1    5    5    0    0 -0.11901703088E+03 -0.23185688432E+02 -0.20545654507E+02  0.12298273743E+03  0.00000000000E+00 0. -1.
          1    1    6    6  503    0  0.59434181241E+02  0.80165911431E+02  0.11189472786E+03  0.14993140224E+03  0.00000000000E+00 0. -1.
         -1    1    6    6    0  503  0.36972815692E+03  0.28201974482E+03  0.70304492155E+03  0.84291530310E+03  0.00000000000E+00 0.  1.
<mgrwt>
<rscale>  0 0.14778844E+04</rscale>
<asrwt>0</asrwt>
<pdfrwt beam="1">  1        2 0.21344206E+00 0.14778844E+04</pdfrwt>
<pdfrwt beam="2">  1       -2 0.60550013E-01 0.14778844E+04</pdfrwt>
<totfact> 0.36170952E+01</totfact>
</mgrwt>
</event>
<event>
12    2  0.3561489E-008  0.1473138E+04  0.7818608E-02  0.8902515E-01
          2   -1    0    0  501    0  0.00000000000E+00  0.00000000000E+00  0.58919143363E+03  0.58919143363E+03  0.00000000000E+00 0. -1.
         -2   -1    0    0    0  501 -0.00000000000E+00 -0.00000000000E+00 -0.92081084238E+03  0.92081084238E+03  0.00000000000E+00 0.  1.
         23    2    1    2    0    0  0.22711573542E+03 -0.18335449141E+03  0.25728817310E+03  0.39918272319E+03  0.89158374130E+02 0.  0.
        254    2    1    2    0    0 -0.22711573542E+03  0.18335449141E+03 -0.58890758185E+03  0.11108195528E+04  0.89549288783E+03 0.  0.
         23    2    4    4    0    0 -0.13420765107E+01  0.12376270843E+03  0.21694174983E+03  0.26610464755E+03  0.91809321220E+02 0.  0.
         23    2    4    4    0    0 -0.22577365891E+03  0.59591782984E+02 -0.80584933168E+03  0.84471490527E+03  0.98108104447E+02 0.  0.
          3    1    3    3  502    0  0.20559613449E+03 -0.19246758740E+03  0.23349960152E+03  0.36583549121E+03  0.00000000000E+00 0. -1.
         -3    1    3    3    0  502  0.21519600926E+02  0.91130959926E+01  0.23788571580E+02  0.33347231975E+02  0.00000000000E+00 0.  1.
         11    1    5    5    0    0  0.24865894656E+02  0.92178300396E+01  0.86816060469E+02  0.90776150298E+02  0.00000000000E+00 0. -1.
        -11    1    5    5    0    0 -0.26207971166E+02  0.11454487839E+03  0.13012568936E+03  0.17532849725E+03  0.00000000000E+00 0.  1.
          3    1    6    6  503    0 -0.11848643494E+03  0.48295162234E+02 -0.27909271419E+03  0.30702475645E+03  0.00000000000E+00 0. -1.
         -3    1    6    6    0  503 -0.10728722397E+03  0.11296620751E+02 -0.52675661749E+03  0.53769014882E+03  0.00000000000E+00 0.  1.
<mgrwt>
<rscale>  0 0.14731380E+04</rscale>
<asrwt>0</asrwt>
<pdfrwt beam="1">  1        2 0.90644836E-01 0.14731380E+04</pdfrwt>
<pdfrwt beam="2">  1       -2 0.14166321E+00 0.14731380E+04</pdfrwt>
<totfact> 0.17083615E+01</totfact>
</mgrwt>
</event>
<event>
12    2  0.3561489E-008  0.1688655E+04  0.7818608E-02  0.8767862E-01
         -1   -1    0    0    0  501 -0.00000000000E+00  0.00000000000E+00  0.51076778911E+03  0.51076778911E+03  0.00000000000E+00 0.  1.
          1   -1    0    0  501    0  0.00000000000E+00 -0.00000000000E+00 -0.13957194790E+04  0.13957194790E+04  0.00000000000E+00 0. -1.
         23    2    1    2    0    0 -0.49085770200E+03 -0.34218948166E+03 -0.36064507578E+03  0.70455484156E+03  0.91091871762E+02 0.  0.
        254    2    1    2    0    0  0.49085770200E+03  0.34218948166E+03 -0.52430661407E+03  0.12019324265E+04  0.90094905925E+03 0.  0.
         23    2    4    4    0    0  0.60712803218E+03  0.49657947141E+03 -0.20200016431E+03  0.81500548610E+03  0.90742807394E+02 0.  0.
         23    2    4    4    0    0 -0.11627033018E+03 -0.15438998976E+03 -0.32230644975E+03  0.38692694041E+03  0.92064928426E+02 0.  0.
          4    1    3    3  502    0 -0.17258994504E+03 -0.15918399820E+03 -0.17713131277E+03  0.29411279533E+03  0.00000000000E+00 0. -1.
         -4    1    3    3    0  502 -0.31826775696E+03 -0.18300548345E+03 -0.18351376302E+03  0.41044204623E+03  0.00000000000E+00 0.  1.
         11    1    5    5    0    0  0.39359181094E+03  0.31239476264E+03 -0.84705335706E+02  0.50958806429E+03  0.00000000000E+00 0.  1.
        -11    1    5    5    0    0  0.21353622124E+03  0.18418470877E+03 -0.11729482861E+03  0.30541742181E+03  0.00000000000E+00 0. -1.
          1    1    6    6  503    0  0.49675376772E+01 -0.52533824786E+01  0.39707877781E+01  0.82487340616E+01  0.00000000000E+00 0. -1.
         -1    1    6    6    0  503 -0.12123786785E+03 -0.14913660728E+03 -0.32627723753E+03  0.37867820635E+03  0.00000000000E+00 0.  1.
<mgrwt>
<rscale>  0 0.16886546E+04</rscale>
<asrwt>0</asrwt>
<pdfrwt beam="1">  1        1 0.21472607E+00 0.16886546E+04</pdfrwt>
<pdfrwt beam="2">  1       -1 0.78579660E-01 0.16886546E+04</pdfrwt>
<totfact> 0.11941312E+01</totfact>
</mgrwt>
</event>
<event>
12    2  0.3561489E-008  0.1495147E+04  0.7818608E-02  0.8887686E-01
         -2   -1    0    0    0  501 -0.00000000000E+00  0.00000000000E+00  0.33334895215E+03  0.33334895215E+03  0.00000000000E+00 0.  1.
          2   -1    0    0  501    0  0.00000000000E+00 -0.00000000000E+00 -0.16765202768E+04  0.16765202768E+04  0.00000000000E+00 0. -1.
         23    2    1    2    0    0 -0.16273838533E+03  0.11141135901E+03  0.14810633589E+03  0.26231437018E+03  0.89314439445E+02 0.  0.
        254    2    1    2    0    0  0.16273838533E+03 -0.11141135901E+03 -0.14912776606E+04  0.17475548588E+04  0.88946200065E+03 0.  0.
         23    2    4    4    0    0 -0.21858873690E+03 -0.19679211861E+03 -0.12293580335E+04  0.12676774930E+04  0.95796022413E+02 0.  0.
         23    2    4    4    0    0  0.38132712223E+03  0.85380759596E+02 -0.26191962711E+03  0.47987736582E+03  0.94763637050E+02 0.  0.
          4    1    3    3  502    0 -0.31500723182E+02  0.66795152041E+01 -0.78607784052E+01  0.33146693975E+02  0.00000000000E+00 0. -1.
         -4    1    3    3    0  502 -0.13123766215E+03  0.10473184381E+03  0.15596711430E+03  0.22916767620E+03  0.00000000000E+00 0.  1.
         11    1    5    5    0    0 -0.18386395681E+03 -0.16132969255E+03 -0.11350329386E+04  0.11610912953E+04  0.00000000000E+00 0.  1.
        -11    1    5    5    0    0 -0.34724780094E+02 -0.35462426055E+02 -0.94325094866E+02  0.10658619768E+03  0.00000000000E+00 0. -1.
          2    1    6    6  503    0  0.13001297402E+03  0.75160946626E+02 -0.10831432082E+03  0.18516083119E+03  0.00000000000E+00 0. -1.
         -2    1    6    6    0  503  0.25131414821E+03  0.10219812970E+02 -0.15360530629E+03  0.29471653464E+03  0.00000000000E+00 0.  1.
<mgrwt>
<rscale>  0 0.14951472E+04</rscale>
<asrwt>0</asrwt>
<pdfrwt beam="1">  1        2 0.25792619E+00 0.14951472E+04</pdfrwt>
<pdfrwt beam="2">  1       -2 0.51284455E-01 0.14951472E+04</pdfrwt>
<totfact> 0.35090432E+01</totfact>
</mgrwt>
</event>
<event>
12    2  0.3561489E-008  0.1799613E+04  0.7818608E-02  0.8706505E-01
          4   -1    0    0  501    0  0.00000000000E+00  0.00000000000E+00  0.88431499871E+03  0.88431499871E+03  0.00000000000E+00 0. -1.
         -4   -1    0    0    0  501 -0.00000000000E+00 -0.00000000000E+00 -0.91556912398E+03  0.91556912398E+03  0.00000000000E+00 0.  1.
         23    2    1    2    0    0  0.23304936128E+03  0.31229850516E+03  0.53350983405E+03  0.66685398720E+03  0.90659451255E+02 0.  0.
        254    2    1    2    0    0 -0.23304936128E+03 -0.31229850516E+03 -0.56476395931E+03  0.11330301355E+04  0.90164105777E+03 0.  0.
         23    2    4    4    0    0 -0.46842273045E+03 -0.12404149066E+03 -0.64069219409E+03  0.80877996474E+03  0.93980838398E+02 0.  0.
         23    2    4    4    0    0  0.23537336917E+03 -0.18825701450E+03  0.75928234777E+02  0.32425017075E+03  0.92367472471E+02 0.  0.
          3    1    3    3  502    0  0.23160805082E+03  0.30821948568E+03  0.49173558366E+03  0.62485632333E+03  0.00000000000E+00 0. -1.
         -3    1    3    3    0  502  0.14413104555E+01  0.40790194789E+01  0.41774250384E+02  0.41997663874E+02  0.00000000000E+00 0.  1.
         11    1    5    5    0    0 -0.43386445568E+03 -0.96439366267E+02 -0.61082586376E+03  0.75541190956E+03  0.00000000000E+00 0. -1.
        -11    1    5    5    0    0 -0.34558274769E+02 -0.27602124392E+02 -0.29866330332E+02  0.53368055177E+02  0.00000000000E+00 0.  1.
          4    1    6    6  503    0  0.16634112426E+03 -0.15799192246E+03  0.19789127635E+02  0.23026599132E+03  0.00000000000E+00 0. -1.
         -4    1    6    6    0  503  0.69032244906E+02 -0.30265092044E+02  0.56139107142E+02  0.93984179434E+02  0.00000000000E+00 0.  1.
<mgrwt>
<rscale>  0 0.17996127E+04</rscale>
<asrwt>0</asrwt>
<pdfrwt beam="1">  1        4 0.13604846E+00 0.17996127E+04</pdfrwt>
<pdfrwt beam="2">  1       -4 0.14085679E+00 0.17996127E+04</pdfrwt>
<totfact> 0.25583936E-01</totfact>
</mgrwt>
</event>
<event>
12    2  0.3561489E-008  0.1014939E+04  0.7818608E-02  0.9292310E-01
         -1   -1    0    0    0  501 -0.00000000000E+00  0.00000000000E+00  0.48947690651E+03  0.48947690651E+03  0.00000000000E+00 0.  1.
          1   -1    0    0  501    0  0.00000000000E+00 -0.00000000000E+00 -0.52612343091E+03  0.52612343091E+03  0.00000000000E+00 0. -1.
         23    2    1    2    0    0 -0.27753326402E+02  0.79277395179E+01  0.52551640956E+02  0.11008580857E+03  0.92326129031E+02 0.  0.
        254    2    1    2    0    0  0.27753326402E+02 -0.79277395179E+01 -0.89198165363E+02  0.90551452884E+03  0.90064818496E+03 0.  0.
         23    2    4    4    0    0 -0.94740005747E+01 -0.22459865328E+03  0.33881043529E+03  0.41591088568E+03  0.87493097044E+02 0.  0.
         23    2    4    4    0    0  0.37227326976E+02  0.21667091376E+03 -0.42800860065E+03  0.48960364316E+03  0.90488708837E+02 0.  0.
          1    1    3    3  502    0  0.78158145737E+01  0.30642151438E+02 -0.11270776945E+02  0.33571696637E+02  0.00000000000E+00 0. -1.
         -1    1    3    3    0  502 -0.35569140975E+02 -0.22714411920E+02  0.63822417901E+02  0.76514111936E+02  0.00000000000E+00 0.  1.
         11    1    5    5    0    0 -0.14509538626E+02 -0.24096059477E+01  0.46093440171E+02  0.48383242334E+02  0.00000000000E+00 0. -1.
        -11    1    5    5    0    0  0.50355380514E+01 -0.22218904733E+03  0.29271699511E+03  0.36752764335E+03  0.00000000000E+00 0.  1.
          4    1    6    6  503    0 -0.19609192931E+02  0.98444028964E+01 -0.56649770244E+02  0.60750548841E+02  0.00000000000E+00 0. -1.
         -4    1    6    6    0  503  0.56836519907E+02  0.20682651086E+03 -0.37135883040E+03  0.42885309432E+03  0.00000000000E+00 0.  1.
<mgrwt>
<rscale>  0 0.10149390E+04</rscale>
<asrwt>0</asrwt>
<pdfrwt beam="1">  1        1 0.80942067E-01 0.10149390E+04</pdfrwt>
<pdfrwt beam="2">  1       -1 0.75304139E-01 0.10149390E+04</pdfrwt>
<totfact> 0.73367646E+01</totfact>
</mgrwt>
</event>
<event>
12    2  0.3561489E-008  0.1279061E+04  0.7818608E-02  0.9046337E-01
          1   -1    0    0  501    0  0.00000000000E+00  0.00000000000E+00  0.31555722495E+03  0.31555722495E+03  0.00000000000E+00 0. -1.
         -1   -1    0    0    0  501 -0.00000000000E+00 -0.00000000000E+00 -0.12961167529E+04  0.12961167529E+04  0.00000000000E+00 0.  1.
         23    2    1    2    0    0 -0.48047330307E+01  0.25354421513E+03 -0.50730930684E+03  0.57435330824E+03  0.90615867254E+02 0.  0.
        254    2    1    2    0    0  0.48047330307E+01 -0.25354421513E+03 -0.47325022109E+03  0.10373206696E+04  0.88755881232E+03 0.  0.
         23    2    4    4    0    0  0.23897646487E+03 -0.50439667934E+03 -0.31243775125E+03  0.64601799773E+03  0.90532558212E+02 0.  0.
         23    2    4    4    0    0 -0.23417173184E+03  0.25085246421E+03 -0.16081246985E+03  0.39130267187E+03  0.97435988003E+02 0.  0.
          4    1    3    3  502    0 -0.25968863532E+02  0.22254152533E+03 -0.47350469433E+03  0.52383757781E+03  0.00000000000E+00 0.  1.
         -4    1    3    3    0  502  0.21164130501E+02  0.31002689794E+02 -0.33804612508E+02  0.50515730433E+02  0.00000000000E+00 0. -1.
         11    1    5    5    0    0  0.20951332971E+03 -0.35688951797E+03 -0.21042314433E+03  0.46426701695E+03  0.00000000000E+00 0. -1.
        -11    1    5    5    0    0  0.29463135166E+02 -0.14750716137E+03 -0.10201460691E+03  0.18175098078E+03  0.00000000000E+00 0.  1.
          2    1    6    6  503    0 -0.20853733708E+03  0.16310376171E+03 -0.12906139551E+03  0.29452928861E+03  0.00000000000E+00 0. -1.
         -2    1    6    6    0  503 -0.25634394766E+02  0.87748702497E+02 -0.31751074335E+02  0.96773383254E+02  0.00000000000E+00 0.  1.
<mgrwt>
<rscale>  0 0.12790606E+04</rscale>
<asrwt>0</asrwt>
<pdfrwt beam="1">  1        1 0.48547265E-01 0.12790606E+04</pdfrwt>
<pdfrwt beam="2">  1       -1 0.19940258E+00 0.12790606E+04</pdfrwt>
<totfact> 0.12270898E+01</totfact>
</mgrwt>
</event>
<event>
12    2  0.3561489E-008  0.2326292E+04  0.7818608E-02  0.8467626E-01
          1   -1    0    0  501    0  0.00000000000E+00  0.00000000000E+00  0.37666613804E+03  0.37666613804E+03  0.00000000000E+00 0. -1.
         -1   -1    0    0    0  501 -0.00000000000E+00 -0.00000000000E+00 -0.35917974248E+04  0.35917974248E+04  0.00000000000E+00 0.  1.
         23    2    1    2    0    0 -0.70664783860E+03 -0.32842539615E+03 -0.24091708630E+04  0.25336530436E+04  0.89883756016E+02 0.  0.
        254    2    1    2    0    0  0.70664783860E+03  0.32842539615E+03 -0.80596042376E+03  0.14348105192E+04  0.89548568542E+03 0.  0.
         23    2    4    4    0    0  0.54236946224E+03 -0.11827082094E+03 -0.76309497230E+03  0.94806044040E+03  0.91389502950E+02 0.  0.
         23    2    4    4    0    0  0.16427837636E+03  0.44669621710E+03 -0.42865451455E+02  0.48675007882E+03  0.92538084038E+02 0.  0.
          2    1    3    3  502    0 -0.89326691309E+02 -0.53186444884E+02 -0.42454927315E+03  0.43709282885E+03  0.00000000000E+00 0. -1.
         -2    1    3    3    0  502 -0.61732114729E+03 -0.27523895127E+03 -0.19846215898E+04  0.20965602147E+04  0.00000000000E+00 0.  1.
         11    1    5    5    0    0  0.35428470446E+03 -0.10521586084E+03 -0.55983097077E+03  0.67081945785E+03  0.00000000000E+00 0.  1.
        -11    1    5    5    0    0  0.18808475778E+03 -0.13054960100E+02 -0.20326400153E+03  0.27724098256E+03  0.00000000000E+00 0. -1.
          3    1    6    6  503    0  0.47076372953E+02  0.22014925555E+03  0.13490458467E+02  0.22553020214E+03  0.00000000000E+00 0. -1.
         -3    1    6    6    0  503  0.11720200341E+03  0.22654696155E+03 -0.56355909922E+02  0.26121987668E+03  0.00000000000E+00 0.  1.
<mgrwt>
<rscale>  0 0.23262919E+04</rscale>
<asrwt>0</asrwt>
<pdfrwt beam="1">  1        1 0.57948639E-01 0.23262919E+04</pdfrwt>
<pdfrwt beam="2">  1       -1 0.55258420E+00 0.23262919E+04</pdfrwt>
<totfact> 0.42125114E-02</totfact>
</mgrwt>
</event>
<event>
12    2  0.3561489E-008  0.2523681E+04  0.7818608E-02  0.8394597E-01
          2   -1    0    0  501    0  0.00000000000E+00  0.00000000000E+00  0.24365442611E+04  0.24365442611E+04  0.00000000000E+00 0. -1.
         -2   -1    0    0    0  501 -0.00000000000E+00 -0.00000000000E+00 -0.65348326595E+03  0.65348326595E+03  0.00000000000E+00 0.  1.
         23    2    1    2    0    0 -0.69296677507E+03 -0.69983673916E+03  0.13700584178E+04  0.16908564902E+04  0.10936722204E+03 0.  0.
        254    2    1    2    0    0  0.69296677507E+03  0.69983673916E+03  0.41300257735E+03  0.13991710369E+04  0.90395467189E+03 0.  0.
         23    2    4    4    0    0  0.67442646679E+03  0.86459485908E+03  0.20695331068E+03  0.11195390697E+04  0.90347807285E+02 0.  0.
         23    2    4    4    0    0  0.18540308280E+02 -0.16475811992E+03  0.20604926667E+03  0.27963196724E+03  0.90822660693E+02 0.  0.
          1    1    3    3  502    0 -0.21708246941E+03 -0.19481705959E+03  0.32839993366E+03  0.43923228668E+03  0.00000000000E+00 0. -1.
         -1    1    3    3    0  502 -0.47588430566E+03 -0.50501967957E+03  0.10416584842E+04  0.12516242035E+04  0.00000000000E+00 0.  1.
         11    1    5    5    0    0  0.11259370443E+02  0.56757777361E+01 -0.55657507617E+01  0.13782795697E+02  0.00000000000E+00 0. -1.
        -11    1    5    5    0    0  0.66316709635E+03  0.85891908135E+03  0.21251906144E+03  0.11057562740E+04  0.00000000000E+00 0.  1.
          2    1    6    6  503    0 -0.83112265824E+00 -0.11700852242E+03  0.19424793549E+03  0.22676848441E+03  0.00000000000E+00 0. -1.
         -2    1    6    6    0  503  0.19371430939E+02 -0.47749597508E+02  0.11801331183E+02  0.52863482826E+02  0.00000000000E+00 0.  1.
<mgrwt>
<rscale>  0 0.25236806E+04</rscale>
<asrwt>0</asrwt>
<pdfrwt beam="1">  1        2 0.37485296E+00 0.25236806E+04</pdfrwt>
<pdfrwt beam="2">  1       -2 0.10053589E+00 0.25236806E+04</pdfrwt>
<totfact> 0.27494128E+00</totfact>
</mgrwt>
</event>
<event>
12    2  0.3561489E-008  0.2607070E+04  0.7818608E-02  0.8365804E-01
          1   -1    0    0  501    0  0.00000000000E+00  0.00000000000E+00  0.37005047659E+04  0.37005047659E+04  0.00000000000E+00 0. -1.
         -1   -1    0    0    0  501 -0.00000000000E+00 -0.00000000000E+00 -0.45918163825E+03  0.45918163825E+03  0.00000000000E+00 0.  1.
         23    2    1    2    0    0  0.58925334685E+03 -0.71855561985E+03  0.35580921084E+03  0.99960167695E+03  0.95192607148E+02 0.  0.
        254    2    1    2    0    0 -0.58925334685E+03  0.71855561985E+03  0.28855139168E+04  0.31600847272E+04  0.89241427228E+03 0.  0.
         23    2    4    4    0    0 -0.74253473756E+03  0.79255676424E+03  0.25477076976E+04  0.27711443032E+04  0.94457269095E+02 0.  0.
         23    2    4    4    0    0  0.15328139071E+03 -0.74001144391E+02  0.33780621920E+03  0.38894042399E+03  0.90500041870E+02 0.  0.
          2    1    3    3  502    0  0.53816868569E+03 -0.63191793833E+03  0.34341144599E+03  0.89826345594E+03  0.00000000000E+00 0. -1.
         -2    1    3    3    0  502  0.51084661164E+02 -0.86637681517E+02  0.12397764854E+02  0.10133822101E+03  0.00000000000E+00 0.  1.
         11    1    5    5    0    0 -0.34196566814E+03  0.41903528376E+03  0.13406696512E+04  0.14456577053E+04  0.00000000000E+00 0.  1.
        -11    1    5    5    0    0 -0.40056906942E+03  0.37352148047E+03  0.12070380463E+04  0.13254865978E+04  0.00000000000E+00 0. -1.
          4    1    6    6  503    0 -0.38621584704E+01 -0.48378195511E+00  0.68366598947E+02  0.68477311313E+02  0.00000000000E+00 0. -1.
         -4    1    6    6    0  503  0.15714354918E+03 -0.73517362436E+02  0.26943962025E+03  0.32046311268E+03  0.00000000000E+00 0.  1.
<mgrwt>
<rscale>  0 0.26070703E+04</rscale>
<asrwt>0</asrwt>
<pdfrwt beam="1">  1        1 0.56930841E+00 0.26070703E+04</pdfrwt>
<pdfrwt beam="2">  1       -1 0.70643331E-01 0.26070703E+04</pdfrwt>
<totfact> 0.30744048E-01</totfact>
</mgrwt>
</event>
<event>
12    2  0.3561489E-008  0.2614844E+04  0.7818608E-02  0.8363176E-01
         -1   -1    0    0    0  501 -0.00000000000E+00  0.00000000000E+00  0.13254824053E+04  0.13254824053E+04  0.00000000000E+00 0.  1.
          1   -1    0    0  501    0  0.00000000000E+00 -0.00000000000E+00 -0.12896079357E+04  0.12896079357E+04  0.00000000000E+00 0. -1.
         23    2    1    2    0    0 -0.19529818541E+03 -0.10130832831E+04 -0.49569813210E+03  0.11483453509E+04  0.92202424634E+02 0.  0.
        254    2    1    2    0    0  0.19529818541E+03  0.10130832831E+04  0.53157260176E+03  0.14667449901E+04  0.89682345830E+03 0.  0.
         23    2    4    4    0    0  0.21128066262E+03  0.69993403594E+02  0.45749421511E+03  0.51605486489E+03  0.86446930370E+02 0.  0.
         23    2    4    4    0    0 -0.15982477211E+02  0.94308987946E+03  0.74078386649E+02  0.95069012519E+03  0.93006163517E+02 0.  0.
          3    1    3    3  502    0 -0.13016252468E+03 -0.43620264715E+03 -0.22548572116E+03  0.50799492385E+03  0.00000000000E+00 0. -1.
         -3    1    3    3    0  502 -0.65135660737E+02 -0.57688063590E+03 -0.27021241094E+03  0.64035042704E+03  0.00000000000E+00 0.  1.
         11    1    5    5    0    0  0.21702767236E+02  0.35776506880E+02  0.49141090093E+02  0.64543127331E+02  0.00000000000E+00 0.  1.
        -11    1    5    5    0    0  0.18957789539E+03  0.34216896715E+02  0.40835312502E+03  0.45151173756E+03  0.00000000000E+00 0. -1.
          3    1    6    6  503    0  0.56112901604E+01  0.82041032542E+03  0.88961778687E+02  0.82523862409E+03  0.00000000000E+00 0. -1.
         -3    1    6    6    0  503 -0.21593767372E+02  0.12267955404E+03 -0.14883392038E+02  0.12545150110E+03  0.00000000000E+00 0.  1.
<mgrwt>
<rscale>  0 0.26148443E+04</rscale>
<asrwt>0</asrwt>
<pdfrwt beam="1">  1        1 0.19840122E+00 0.26148443E+04</pdfrwt>
<pdfrwt beam="2">  1       -1 0.20392037E+00 0.26148443E+04</pdfrwt>
<totfact> 0.11448888E+00</totfact>
</mgrwt>
</event>
<event>
12    2  0.3561489E-008  0.2455003E+04  0.7818608E-02  0.8419194E-01
         -1   -1    0    0    0  501 -0.00000000000E+00  0.00000000000E+00  0.43187608227E+03  0.43187608227E+03  0.00000000000E+00 0.  1.
          1   -1    0    0  501    0  0.00000000000E+00 -0.00000000000E+00 -0.34888703766E+04  0.34888703766E+04  0.00000000000E+00 0. -1.
         23    2    1    2    0    0  0.19759740913E+03  0.10324168284E+04 -0.16094768333E+04  0.19245337787E+04  0.92115931735E+02 0.  0.
        254    2    1    2    0    0 -0.19759740913E+03 -0.10324168284E+04 -0.14475174610E+04  0.19962126801E+04  0.88579287686E+03 0.  0.
         23    2    4    4    0    0 -0.46601168960E+03 -0.54903976582E+03 -0.45488851780E+03  0.85649583545E+03  0.89721754400E+02 0.  0.
         23    2    4    4    0    0  0.26841428047E+03 -0.48337706258E+03 -0.99262894318E+03  0.11397168447E+04  0.89121583069E+02 0.  0.
          3    1    3    3  502    0  0.82025228398E+02  0.43330011948E+03 -0.75911759474E+03  0.87791608612E+03  0.00000000000E+00 0. -1.
         -3    1    3    3    0  502  0.11557218073E+03  0.59911670892E+03 -0.85035923858E+03  0.10466176926E+04  0.00000000000E+00 0.  1.
         11    1    5    5    0    0 -0.40955175516E+03 -0.43928470303E+03 -0.39872908282E+03  0.72089428625E+03  0.00000000000E+00 0. -1.
        -11    1    5    5    0    0 -0.56459934442E+02 -0.10975506280E+03 -0.56159434986E+02  0.13560154920E+03  0.00000000000E+00 0.  1.
          4    1    6    6  503    0  0.31076844207E+02 -0.18579982274E+02 -0.91012046346E+02  0.97949877832E+02  0.00000000000E+00 0.  1.
         -4    1    6    6    0  503  0.23733743627E+03 -0.46479708031E+03 -0.90161689683E+03  0.10417669668E+04  0.00000000000E+00 0. -1.
<mgrwt>
<rscale>  0 0.24550028E+04</rscale>
<asrwt>0</asrwt>
<pdfrwt beam="1">  1        1 0.53674928E+00 0.24550028E+04</pdfrwt>
<pdfrwt beam="2">  1       -1 0.66442475E-01 0.24550028E+04</pdfrwt>
<totfact> 0.52260200E-01</totfact>
</mgrwt>
</event>
<event>
12    2  0.3561489E-008  0.2035330E+04  0.7818608E-02  0.8590279E-01
         -2   -1    0    0    0  501 -0.00000000000E+00  0.00000000000E+00  0.33893040444E+03  0.33893040444E+03  0.00000000000E+00 0.  1.
          2   -1    0    0  501    0  0.00000000000E+00 -0.00000000000E+00 -0.30556181051E+04  0.30556181051E+04  0.00000000000E+00 0. -1.
         23    2    1    2    0    0 -0.57737749025E+03  0.18304187903E+03 -0.20249348693E+04  0.21156367310E+04  0.93211892804E+02 0.  0.
        254    2    1    2    0    0  0.57737749025E+03 -0.18304187903E+03 -0.69175283134E+03  0.12789117785E+04  0.88894558991E+03 0.  0.
         23    2    4    4    0    0  0.71626807033E+03  0.29529880325E+01 -0.23651647353E+03  0.75972429944E+03  0.90511326307E+02 0.  0.
         23    2    4    4    0    0 -0.13889058008E+03 -0.18599486706E+03 -0.45523635781E+03  0.51918747908E+03  0.91819459530E+02 0.  0.
          1    1    3    3  502    0 -0.45662594000E+03  0.16087481720E+03 -0.17222038265E+04  0.17889589084E+04  0.00000000000E+00 0. -1.
         -1    1    3    3    0  502 -0.12075155025E+03  0.22167061825E+02 -0.30273104283E+03  0.32667782264E+03  0.00000000000E+00 0.  1.
         11    1    5    5    0    0  0.61765144563E+02  0.13865987682E+00  0.52547950228E+01  0.61988427793E+02  0.00000000000E+00 0.  1.
        -11    1    5    5    0    0  0.65450292577E+03  0.28143281557E+01 -0.24177126855E+03  0.69773587165E+03  0.00000000000E+00 0. -1.
          1    1    6    6  503    0 -0.77349542916E+02 -0.11547551870E+03 -0.17346829198E+03  0.22228089331E+03  0.00000000000E+00 0. -1.
         -1    1    6    6    0  503 -0.61541037163E+02 -0.70519348357E+02 -0.28176806583E+03  0.29690658577E+03  0.00000000000E+00 0.  1.
<mgrwt>
<rscale>  0 0.20353298E+04</rscale>
<asrwt>0</asrwt>
<pdfrwt beam="1">  1        2 0.47009510E+00 0.20353298E+04</pdfrwt>
<pdfrwt beam="2">  1       -2 0.52143139E-01 0.20353298E+04</pdfrwt>
<totfact> 0.51785703E+00</totfact>
</mgrwt>
</event>
<event>
12    2  0.3561489E-008  0.2216274E+04  0.7818608E-02  0.8511685E-01
         -2   -1    0    0    0  501 -0.00000000000E+00  0.00000000000E+00  0.58724008234E+03  0.58724008234E+03  0.00000000000E+00 0.  1.
          2   -1    0    0  501    0  0.00000000000E+00 -0.00000000000E+00 -0.20910821124E+04  0.20910821124E+04  0.00000000000E+00 0. -1.
         23    2    1    2    0    0  0.69059295793E+03  0.72222584083E+02  0.10771107369E+03  0.70852892111E+03  0.90977038094E+02 0.  0.
        254    2    1    2    0    0 -0.69059295793E+03 -0.72222584083E+02 -0.16115531038E+04  0.19697932737E+04  0.89490077633E+03 0.  0.
         23    2    4    4    0    0  0.14122559621E+03  0.61953087644E+02 -0.71020267616E+03  0.73237768431E+03  0.90589056505E+02 0.  0.
         23    2    4    4    0    0 -0.83181855414E+03 -0.13417567173E+03 -0.90135042761E+03  0.12374155893E+04  0.94018772125E+02 0.  0.
          2    1    3    3  502    0  0.43233611130E+03  0.51737393593E+02  0.23252127673E+02  0.43604120501E+03  0.00000000000E+00 0.  1.
         -2    1    3    3    0  502  0.25825684663E+03  0.20485190490E+02  0.84458946014E+02  0.27248771609E+03  0.00000000000E+00 0. -1.
         11    1    5    5    0    0 -0.23371065242E+01 -0.40065403372E+01 -0.15669187307E+03  0.15676051007E+03  0.00000000000E+00 0.  1.
        -11    1    5    5    0    0  0.14356270273E+03  0.65959627982E+02 -0.55351080309E+03  0.57561717424E+03  0.00000000000E+00 0. -1.
          4    1    6    6  503    0 -0.75549531003E+03 -0.94513566261E+02 -0.79800090244E+03  0.11029557643E+04  0.00000000000E+00 0. -1.
         -4    1    6    6    0  503 -0.76323244103E+02 -0.39662105467E+02 -0.10334952517E+03  0.13445982505E+03  0.00000000000E+00 0.  1.
<mgrwt>
<rscale>  0 0.22162737E+04</rscale>
<asrwt>0</asrwt>
<pdfrwt beam="1">  1        2 0.32170494E+00 0.22162737E+04</pdfrwt>
<pdfrwt beam="2">  1       -2 0.90344628E-01 0.22162737E+04</pdfrwt>
<totfact> 0.56826948E+00</totfact>
</mgrwt>
</event>
<event>
12    2  0.3561489E-008  0.2184322E+04  0.7818608E-02  0.8524982E-01
         -2   -1    0    0    0  501 -0.00000000000E+00  0.00000000000E+00  0.10411594665E+04  0.10411594665E+04  0.00000000000E+00 0.  1.
          2   -1    0    0  501    0  0.00000000000E+00 -0.00000000000E+00 -0.11456607489E+04  0.11456607489E+04  0.00000000000E+00 0. -1.
         23    2    1    2    0    0  0.62132724957E+03 -0.19125996871E+03  0.58361473937E+03  0.87825795978E+03  0.90016405249E+02 0.  0.
        254    2    1    2    0    0 -0.62132724957E+03  0.19125996871E+03 -0.68811602180E+03  0.13085622556E+04  0.90343986551E+03 0.  0.
         23    2    4    4    0    0 -0.79539903618E+03  0.13989951389E+03 -0.29333418419E+03  0.86421482284E+03  0.92686653133E+02 0.  0.
         23    2    4    4    0    0  0.17407178661E+03  0.51360454814E+02 -0.39478183761E+03  0.44434743274E+03  0.93021817140E+02 0.  0.
          1    1    3    3  502    0  0.62212996066E+02  0.76120236617E+01  0.49607517933E+02  0.79933132174E+02  0.00000000000E+00 0. -1.
         -1    1    3    3    0  502  0.55911425350E+03 -0.19887199237E+03  0.53400722144E+03  0.79832482760E+03  0.00000000000E+00 0.  1.
         11    1    5    5    0    0 -0.25709079966E+03  0.62915921991E+02 -0.54191354266E+02  0.27016808728E+03  0.00000000000E+00 0. -1.
        -11    1    5    5    0    0 -0.53830823652E+03  0.76983591903E+02 -0.23914282993E+03  0.59404673556E+03  0.00000000000E+00 0.  1.
          2    1    6    6  503    0  0.16534247212E+02 -0.99984873555E+01 -0.57379473414E+01  0.20156267511E+02  0.00000000000E+00 0. -1.
         -2    1    6    6    0  503  0.15753753939E+03  0.61358942170E+02 -0.38904389027E+03  0.42419116523E+03  0.00000000000E+00 0.  1.
<mgrwt>
<rscale>  0 0.21843219E+04</rscale>
<asrwt>0</asrwt>
<pdfrwt beam="1">  1        2 0.17625550E+00 0.21843219E+04</pdfrwt>
<pdfrwt beam="2">  1       -2 0.16017838E+00 0.21843219E+04</pdfrwt>
<totfact> 0.46947163E+00</totfact>
</mgrwt>
</event>
<event>
12    2  0.3561489E-008  0.1584799E+04  0.7818608E-02  0.8829941E-01
          2   -1    0    0  501    0  0.00000000000E+00  0.00000000000E+00  0.97654926414E+03  0.97654926414E+03  0.00000000000E+00 0. -1.
         -2   -1    0    0    0  501 -0.00000000000E+00 -0.00000000000E+00 -0.64297531821E+03  0.64297531821E+03  0.00000000000E+00 0.  1.
         23    2    1    2    0    0  0.16575453229E+03  0.44384249226E+03 -0.12351850944E+03  0.49756872108E+03  0.88583785815E+02 0.  0.
        254    2    1    2    0    0 -0.16575453229E+03 -0.44384249226E+03  0.45709245537E+03  0.11219558613E+04  0.90850466096E+03 0.  0.
         23    2    4    4    0    0  0.35932192194E+03 -0.17559224999E+03  0.88348855075E+02  0.42061060440E+03  0.95722925661E+02 0.  0.
         23    2    4    4    0    0 -0.52507645423E+03 -0.26825024227E+03  0.36874360030E+03  0.70134525688E+03  0.90828692170E+02 0.  0.
          2    1    3    3  502    0  0.79704010423E+02  0.20472849434E+03 -0.10292048606E+03  0.24260896959E+03  0.00000000000E+00 0. -1.
         -2    1    3    3    0  502  0.86050521867E+02  0.23911399791E+03 -0.20598023388E+02  0.25495975149E+03  0.00000000000E+00 0.  1.
         11    1    5    5    0    0  0.24669282823E+03 -0.13573277283E+03  0.18406828169E+02  0.28216936127E+03  0.00000000000E+00 0. -1.
        -11    1    5    5    0    0  0.11262909371E+03 -0.39859477154E+02  0.69942026906E+02  0.13844124312E+03  0.00000000000E+00 0.  1.
          4    1    6    6  503    0 -0.16924995399E+03 -0.69916328161E+02  0.16210586642E+03  0.24456523015E+03  0.00000000000E+00 0. -1.
         -4    1    6    6    0  503 -0.35582650023E+03 -0.19833391411E+03  0.20663773387E+03  0.45678002673E+03  0.00000000000E+00 0.  1.
<mgrwt>
<rscale>  0 0.15847991E+04</rscale>
<asrwt>0</asrwt>
<pdfrwt beam="1">  1        2 0.15023835E+00 0.15847991E+04</pdfrwt>
<pdfrwt beam="2">  1       -2 0.98919280E-01 0.15847991E+04</pdfrwt>
<totfact> 0.21227855E+01</totfact>
</mgrwt>
</event>
<event>
12    2  0.3561489E-008  0.1188807E+04  0.7818608E-02  0.9122711E-01
         -2   -1    0    0    0  501 -0.00000000000E+00  0.00000000000E+00  0.24026807772E+03  0.24026807772E+03  0.00000000000E+00 0.  1.
          2   -1    0    0  501    0  0.00000000000E+00 -0.00000000000E+00 -0.14705045500E+04  0.14705045500E+04  0.00000000000E+00 0. -1.
         23    2    1    2    0    0 -0.10172318968E+03  0.15202923544E+03 -0.59770460755E+02  0.21670512198E+03  0.99639882402E+02 0.  0.
        254    2    1    2    0    0  0.10172318968E+03 -0.15202923544E+03 -0.11704660115E+04  0.14940675057E+04  0.91037713713E+03 0.  0.
         23    2    4    4    0    0 -0.25933290291E+03  0.25142044268E+03 -0.56440196537E+03  0.67623928978E+03  0.91017608158E+02 0.  0.
         23    2    4    4    0    0  0.36105609259E+03 -0.40344967813E+03 -0.60606404613E+03  0.81782821594E+03  0.91630879050E+02 0.  0.
          4    1    3    3  502    0 -0.99021471491E+02  0.16287534866E+03 -0.68472920011E+02  0.20253930925E+03  0.00000000000E+00 0. -1.
         -4    1    3    3    0  502 -0.27017181859E+01 -0.10846113217E+02  0.87024592557E+01  0.14165812726E+02  0.00000000000E+00 0.  1.
         11    1    5    5    0    0 -0.23613121831E+03  0.22116824055E+03 -0.44011745518E+03  0.54623869988E+03  0.00000000000E+00 0.  1.
        -11    1    5    5    0    0 -0.23201684608E+02  0.30252202132E+02 -0.12428451018E+03  0.13000058990E+03  0.00000000000E+00 0. -1.
          2    1    6    6  503    0  0.68458549464E+02 -0.30161395263E+02 -0.84415061204E+02  0.11279266517E+03  0.00000000000E+00 0. -1.
         -2    1    6    6    0  503  0.29259754313E+03 -0.37328828286E+03 -0.52164898493E+03  0.70503555077E+03  0.00000000000E+00 0.  1.
<mgrwt>
<rscale>  0 0.11888066E+04</rscale>
<asrwt>0</asrwt>
<pdfrwt beam="1">  1        2 0.22623147E+00 0.11888066E+04</pdfrwt>
<pdfrwt beam="2">  1       -2 0.36964320E-01 0.11888066E+04</pdfrwt>
<totfact> 0.89779543E+01</totfact>
</mgrwt>
</event>
<event>
12    2  0.3561489E-008  0.1696213E+04  0.7818608E-02  0.8763527E-01
          1   -1    0    0  501    0  0.00000000000E+00  0.00000000000E+00  0.78231527924E+03  0.78231527924E+03  0.00000000000E+00 0. -1.
         -1   -1    0    0    0  501 -0.00000000000E+00 -0.00000000000E+00 -0.91943090737E+03  0.91943090737E+03  0.00000000000E+00 0.  1.
         23    2    1    2    0    0  0.28574979076E+03 -0.50220241379E+03 -0.20252443255E+03  0.61887599286E+03  0.90172841947E+02 0.  0.
        254    2    1    2    0    0 -0.28574979076E+03  0.50220241379E+03  0.65408804421E+02  0.10828701938E+04  0.91349293237E+03 0.  0.
         23    2    4    4    0    0  0.74987270945E+02  0.49936148334E+03  0.34377719088E+03  0.61793252676E+03  0.93128238509E+02 0.  0.
         23    2    4    4    0    0 -0.36073706171E+03  0.28409304499E+01 -0.27836838646E+03  0.46493766699E+03  0.92405503272E+02 0.  0.
          3    1    3    3  502    0  0.15641602938E+03 -0.22184705267E+03 -0.56171168370E+02  0.27719539892E+03  0.00000000000E+00 0. -1.
         -3    1    3    3    0  502  0.12933376138E+03 -0.28035536112E+03 -0.14635326418E+03  0.34168059395E+03  0.00000000000E+00 0.  1.
         11    1    5    5    0    0  0.62362398420E+02  0.36706688003E+03  0.20194129369E+03  0.42356516530E+03  0.00000000000E+00 0.  1.
        -11    1    5    5    0    0  0.12624872525E+02  0.13229460331E+03  0.14183589719E+03  0.19436736146E+03  0.00000000000E+00 0. -1.
          1    1    6    6  503    0 -0.26477457262E+03  0.43073142295E+02 -0.20499541524E+03  0.33761515097E+03  0.00000000000E+00 0. -1.
         -1    1    6    6    0  503 -0.95962489085E+02 -0.40232211845E+02 -0.73372971217E+02  0.12732251602E+03  0.00000000000E+00 0.  1.
<mgrwt>
<rscale>  0 0.16962132E+04</rscale>
<asrwt>0</asrwt>
<pdfrwt beam="1">  1        1 0.12035620E+00 0.16962132E+04</pdfrwt>
<pdfrwt beam="2">  1       -1 0.14145091E+00 0.16962132E+04</pdfrwt>
<totfact> 0.89002455E+00</totfact>
</mgrwt>
</event>
<event>
12    2  0.3561489E-008  0.1737947E+04  0.7818608E-02  0.8740013E-01
         -1   -1    0    0    0  501 -0.00000000000E+00  0.00000000000E+00  0.28603498547E+03  0.28603498547E+03  0.00000000000E+00 0.  1.
          1   -1    0    0  501    0  0.00000000000E+00 -0.00000000000E+00 -0.26399394050E+04  0.26399394050E+04  0.00000000000E+00 0. -1.
         23    2    1    2    0    0 -0.95882897213E+02  0.95078211044E+02  0.16954254431E+03  0.24242508004E+03  0.10859028000E+03 0.  0.
        254    2    1    2    0    0  0.95882897213E+02 -0.95078211044E+02 -0.25234469638E+04  0.26835493104E+04  0.90300549610E+03 0.  0.
         23    2    4    4    0    0  0.27578601761E+03 -0.11928469641E+03 -0.25160740528E+03  0.40265914557E+03  0.92419342205E+02 0.  0.
         23    2    4    4    0    0 -0.17990312040E+03  0.24206485370E+02 -0.22718395585E+04  0.22808901648E+04  0.90850853874E+02 0.  0.
          2    1    3    3  502    0 -0.54690661125E+02  0.10109521215E+03  0.70124385517E+02  0.13464300865E+03  0.00000000000E+00 0. -1.
         -2    1    3    3    0  502 -0.41192236088E+02 -0.60170011078E+01  0.99418158789E+02  0.10778207139E+03  0.00000000000E+00 0.  1.
         11    1    5    5    0    0  0.97442405322E+02 -0.80150403232E+02 -0.14088593282E+03  0.18912418026E+03  0.00000000000E+00 0. -1.
        -11    1    5    5    0    0  0.17834361229E+03 -0.39134293182E+02 -0.11072147246E+03  0.21353496531E+03  0.00000000000E+00 0.  1.
          3    1    6    6  503    0  0.61110363190E+01  0.14545061361E+02 -0.12656765165E+03  0.12754714430E+03  0.00000000000E+00 0. -1.
         -3    1    6    6    0  503 -0.18601415672E+03  0.96614240087E+01 -0.21452719069E+04  0.21533430205E+04  0.00000000000E+00 0.  1.
<mgrwt>
<rscale>  0 0.17379471E+04</rscale>
<asrwt>0</asrwt>
<pdfrwt beam="1">  1        1 0.40614453E+00 0.17379471E+04</pdfrwt>
<pdfrwt beam="2">  1       -1 0.44005381E-01 0.17379471E+04</pdfrwt>
<totfact> 0.52495567E+00</totfact>
</mgrwt>
</event>
<event>
12    2  0.3561489E-008  0.2446079E+04  0.7818608E-02  0.8422451E-01
          2   -1    0    0  501    0  0.00000000000E+00  0.00000000000E+00  0.13440912288E+04  0.13440912288E+04  0.00000000000E+00 0. -1.
         -2   -1    0    0    0  501 -0.00000000000E+00 -0.00000000000E+00 -0.11128898317E+04  0.11128898317E+04  0.00000000000E+00 0.  1.
         23    2    1    2    0    0  0.26217525658E+03  0.27805351911E+03  0.11113976340E+04  0.11806808384E+04  0.11292881216E+03 0.  0.
        254    2    1    2    0    0 -0.26217525658E+03 -0.27805351911E+03 -0.88019623682E+03  0.12763002222E+04  0.84151483478E+03 0.  0.
         23    2    4    4    0    0  0.25627445562E+03 -0.28673915931E+03 -0.41759030389E+03  0.57536065041E+03  0.93607019240E+02 0.  0.
         23    2    4    4    0    0 -0.51844971221E+03  0.86856401950E+01 -0.46260593294E+03  0.70093957177E+03  0.91904785785E+02 0.  0.
          3    1    3    3  502    0  0.14228623166E+03  0.17930223810E+03  0.80854067808E+03  0.84031701900E+03  0.00000000000E+00 0. -1.
         -3    1    3    3    0  502  0.11988902492E+03  0.98751281013E+02  0.30285695590E+03  0.34036381937E+03  0.00000000000E+00 0.  1.
         11    1    5    5    0    0  0.32129678644E+02 -0.10030000627E+02 -0.70327563535E+02  0.77967194095E+02  0.00000000000E+00 0.  1.
        -11    1    5    5    0    0  0.22414477698E+03 -0.27670915868E+03 -0.34726274035E+03  0.49739345631E+03  0.00000000000E+00 0. -1.
          2    1    6    6  503    0  0.20110871144E+01 -0.28775938009E+01 -0.11728079715E+02  0.12242257605E+02  0.00000000000E+00 0.  1.
         -2    1    6    6    0  503 -0.52046079932E+03  0.11563233996E+02 -0.45087785322E+03  0.68869731416E+03  0.00000000000E+00 0. -1.
<mgrwt>
<rscale>  0 0.24460789E+04</rscale>
<asrwt>0</asrwt>
<pdfrwt beam="1">  1        2 0.20678327E+00 0.24460789E+04</pdfrwt>
<pdfrwt beam="2">  1       -2 0.17121382E+00 0.24460789E+04</pdfrwt>
<totfact> 0.29173113E+00</totfact>
</mgrwt>
</event>
<event>
12    2  0.3561489E-008  0.1797113E+04  0.7818608E-02  0.8707836E-01
          2   -1    0    0  501    0  0.00000000000E+00  0.00000000000E+00  0.23560207318E+04  0.23560207318E+04  0.00000000000E+00 0. -1.
         -2   -1    0    0    0  501 -0.00000000000E+00 -0.00000000000E+00 -0.34269808922E+03  0.34269808922E+03  0.00000000000E+00 0.  1.
         23    2    1    2    0    0  0.47182116788E+03 -0.41006200754E+03  0.38559084268E+03  0.74025987695E+03  0.92403046342E+02 0.  0.
        254    2    1    2    0    0 -0.47182116788E+03  0.41006200754E+03  0.16277317999E+04  0.19584589441E+04  0.89178728334E+03 0.  0.
         23    2    4    4    0    0  0.76946017424E+02  0.45645880655E+03  0.10698697813E+04  0.11693250332E+04  0.91784272385E+02 0.  0.
         23    2    4    4    0    0 -0.54876718530E+03 -0.46396799011E+02  0.55786201862E+03  0.78913391089E+03  0.90687435063E+02 0.  0.
          3    1    3    3  502    0  0.93476099301E+02 -0.12384758709E+03  0.68335346868E+02  0.16954564459E+03  0.00000000000E+00 0. -1.
         -3    1    3    3    0  502  0.37834506858E+03 -0.28621442046E+03  0.31725549582E+03  0.57071423236E+03  0.00000000000E+00 0.  1.
         11    1    5    5    0    0  0.16351780123E+02  0.19217634386E+03  0.34264209556E+03  0.39319554106E+03  0.00000000000E+00 0. -1.
        -11    1    5    5    0    0  0.60594237301E+02  0.26428246269E+03  0.72722768570E+03  0.77612949211E+03  0.00000000000E+00 0.  1.
          1    1    6    6  503    0 -0.50057095297E+03 -0.67309511800E+02  0.49482979383E+03  0.70707734668E+03  0.00000000000E+00 0. -1.
         -1    1    6    6    0  503 -0.48196232335E+02  0.20912712789E+02  0.63032224792E+02  0.82056564209E+02  0.00000000000E+00 0.  1.
<mgrwt>
<rscale>  0 0.17971130E+04</rscale>
<asrwt>0</asrwt>
<pdfrwt beam="1">  1        2 0.36246472E+00 0.17971130E+04</pdfrwt>
<pdfrwt beam="2">  1       -2 0.52722785E-01 0.17971130E+04</pdfrwt>
<totfact> 0.13509703E+01</totfact>
</mgrwt>
</event>
<event>
12    2  0.3561489E-008  0.2308954E+04  0.7818608E-02  0.8474399E-01
          1   -1    0    0  501    0  0.00000000000E+00  0.00000000000E+00  0.23390176341E+04  0.23390176341E+04  0.00000000000E+00 0. -1.
         -1   -1    0    0    0  501 -0.00000000000E+00 -0.00000000000E+00 -0.56981902636E+03  0.56981902636E+03  0.00000000000E+00 0.  1.
         23    2    1    2    0    0 -0.46860194448E+03 -0.53098089652E+03 -0.93174215687E+02  0.71977963625E+03  0.88728774638E+02 0.  0.
        254    2    1    2    0    0  0.46860194448E+03  0.53098089652E+03  0.18623728234E+04  0.21890570242E+04  0.90664746566E+03 0.  0.
         23    2    4    4    0    0  0.61833659590E+03  0.16346189555E+03  0.67928802780E+03  0.93775173814E+03  0.94266433854E+02 0.  0.
         23    2    4    4    0    0 -0.14973465141E+03  0.36751900097E+03  0.11830847956E+04  0.12513052861E+04  0.92653134861E+02 0.  0.
          1    1    3    3  502    0 -0.11543413922E+02 -0.11127935483E+02  0.11462053975E+02  0.19709389499E+02  0.00000000000E+00 0. -1.
         -1    1    3    3    0  502 -0.45705853056E+03 -0.51985296104E+03 -0.10463626966E+03  0.70007024675E+03  0.00000000000E+00 0.  1.
         11    1    5    5    0    0  0.15468427800E+03  0.14813088440E+02  0.21240719233E+03  0.26317953721E+03  0.00000000000E+00 0.  1.
        -11    1    5    5    0    0  0.46365231790E+03  0.14864880711E+03  0.46688083547E+03  0.67457220094E+03  0.00000000000E+00 0. -1.
          1    1    6    6  503    0 -0.15198983096E+03  0.33507447378E+03  0.11358552233E+04  0.11939610128E+04  0.00000000000E+00 0. -1.
         -1    1    6    6    0  503  0.22551795407E+01  0.32444527192E+02  0.47229572321E+02  0.57344273307E+02  0.00000000000E+00 0.  1.
<mgrwt>
<rscale>  0 0.23089537E+04</rscale>
<asrwt>0</asrwt>
<pdfrwt beam="1">  1        1 0.35984886E+00 0.23089537E+04</pdfrwt>
<pdfrwt beam="2">  1       -1 0.87664467E-01 0.23089537E+04</pdfrwt>
<totfact> 0.20224891E+00</totfact>
</mgrwt>
</event>
<event>
12    2  0.3561489E-008  0.1924479E+04  0.7818608E-02  0.8642767E-01
         -2   -1    0    0    0  501 -0.00000000000E+00  0.00000000000E+00  0.15407590494E+04  0.15407590494E+04  0.00000000000E+00 0. -1.
          2   -1    0    0  501    0  0.00000000000E+00 -0.00000000000E+00 -0.60094068953E+03  0.60094068953E+03  0.00000000000E+00 0.  1.
         23    2    1    2    0    0 -0.10794554972E+03 -0.49378683250E+03  0.98783141720E+03  0.11134140017E+04  0.91663256943E+02 0.  0.
        254    2    1    2    0    0  0.10794554972E+03  0.49378683250E+03 -0.48013057279E+02  0.10282857373E+04  0.89419719648E+03 0.  0.
         23    2    4    4    0    0  0.36973272644E+03  0.43016332791E+03 -0.30050447356E+03  0.64828025982E+03  0.90672923015E+02 0.  0.
         23    2    4    4    0    0 -0.26178717672E+03  0.63623504589E+02  0.25249141628E+03  0.38000547747E+03  0.89843037496E+02 0.  0.
          1    1    3    3  502    0 -0.10457408838E+03 -0.38238109109E+03  0.83429464258E+03  0.92368749554E+03  0.00000000000E+00 0. -1.
         -1    1    3    3    0  502 -0.33714613454E+01 -0.11140574141E+03  0.15353677462E+03  0.18972650614E+03  0.00000000000E+00 0.  1.
         11    1    5    5    0    0  0.28204864143E+03  0.35265669829E+03 -0.27429573839E+03  0.52835247239E+03  0.00000000000E+00 0. -1.
        -11    1    5    5    0    0  0.87684085014E+02  0.77506629618E+02 -0.26208735164E+02  0.11992778743E+03  0.00000000000E+00 0.  1.
          4    1    6    6  503    0 -0.15695583435E+03 -0.38821778252E+01  0.16448927273E+03  0.22739156995E+03  0.00000000000E+00 0. -1.
         -4    1    6    6    0  503 -0.10483134237E+03  0.67505682414E+02  0.88002143547E+02  0.15261390752E+03  0.00000000000E+00 0.  1.
<mgrwt>
<rscale>  0 0.19244789E+04</rscale>
<asrwt>0</asrwt>
<pdfrwt beam="1">  1        2 0.92452414E-01 0.19244789E+04</pdfrwt>
<pdfrwt beam="2">  1       -2 0.23703985E+00 0.19244789E+04</pdfrwt>
<totfact> 0.35742022E+00</totfact>
</mgrwt>
</event>
<event>
12    2  0.3561489E-008  0.1522909E+04  0.7818608E-02  0.8869360E-01
         -2   -1    0    0    0  501 -0.00000000000E+00  0.00000000000E+00  0.51738045390E+03  0.51738045390E+03  0.00000000000E+00 0.  1.
          2   -1    0    0  501    0  0.00000000000E+00 -0.00000000000E+00 -0.11206707560E+04  0.11206707560E+04  0.00000000000E+00 0. -1.
         23    2    1    2    0    0  0.11167058201E+03  0.18423700346E+03  0.27659547455E+03  0.36221000385E+03  0.90980426580E+02 0.  0.
        254    2    1    2    0    0 -0.11167058201E+03 -0.18423700346E+03 -0.87988577668E+03  0.12758412061E+04  0.89841984104E+03 0.  0.
         23    2    4    4    0    0  0.12648156495E+03 -0.36941343009E+02 -0.95854461849E+03  0.97178530508E+03  0.90535321444E+02 0.  0.
         23    2    4    4    0    0 -0.23815214696E+03 -0.14729566045E+03  0.78658841814E+02  0.30405590099E+03  0.88602036351E+02 0.  0.
          3    1    3    3  502    0  0.96177492102E+01 -0.10275935436E+02  0.19638509078E+02  0.24161270408E+02  0.00000000000E+00 0. -1.
         -3    1    3    3    0  502  0.10205283280E+03  0.19451293889E+03  0.25695696547E+03  0.33804873344E+03  0.00000000000E+00 0.  1.
         11    1    5    5    0    0  0.50459783446E+02 -0.61556201331E+02 -0.51133494317E+03  0.51749278234E+03  0.00000000000E+00 0.  1.
        -11    1    5    5    0    0  0.76021781505E+02  0.24614858321E+02 -0.44720967532E+03  0.45429252274E+03  0.00000000000E+00 0. -1.
          4    1    6    6  503    0 -0.27571101590E+00 -0.14198094608E+02 -0.10057393655E+02  0.17401525054E+02  0.00000000000E+00 0. -1.
         -4    1    6    6    0  503 -0.23787643594E+03 -0.13309756584E+03  0.88716235469E+02  0.28665437594E+03  0.00000000000E+00 0.  1.
<mgrwt>
<rscale>  0 0.15229092E+04</rscale>
<asrwt>0</asrwt>
<pdfrwt beam="1">  1        2 0.17241088E+00 0.15229092E+04</pdfrwt>
<pdfrwt beam="2">  1       -2 0.79596994E-01 0.15229092E+04</pdfrwt>
<totfact> 0.28535404E+01</totfact>
</mgrwt>
</event>
<event>
12    2  0.3561489E-008  0.1513605E+04  0.7818608E-02  0.8875456E-01
         -2   -1    0    0    0  501 -0.00000000000E+00  0.00000000000E+00  0.21686723654E+03  0.21686723654E+03  0.00000000000E+00 0.  1.
          2   -1    0    0  501    0  0.00000000000E+00 -0.00000000000E+00 -0.26410180276E+04  0.26410180276E+04  0.00000000000E+00 0. -1.
         23    2    1    2    0    0 -0.30551016110E+03  0.20055622510E+03 -0.13943181182E+04  0.14443301394E+04  0.91691213484E+02 0.  0.
        254    2    1    2    0    0  0.30551016110E+03 -0.20055622510E+03 -0.10298326728E+04  0.14135551248E+04  0.89667357429E+03 0.  0.
         23    2    4    4    0    0  0.85608609590E+02  0.32061021234E+03 -0.18019696601E+03  0.38869252569E+03  0.92147656923E+02 0.  0.
         23    2    4    4    0    0  0.21990155151E+03 -0.52116643744E+03 -0.84963570678E+03  0.10248625991E+04  0.92148602081E+02 0.  0.
          2    1    3    3  502    0 -0.25188983490E+03  0.20215632091E+03 -0.12100511228E+04  0.12524134249E+04  0.00000000000E+00 0. -1.
         -2    1    3    3    0  502 -0.53620326206E+02 -0.16000958135E+01 -0.18426699542E+03  0.19191671446E+03  0.00000000000E+00 0.  1.
         11    1    5    5    0    0  0.65920919031E+02  0.12281725499E+03 -0.11111812902E+03  0.17826071998E+03  0.00000000000E+00 0. -1.
        -11    1    5    5    0    0  0.19687690559E+02  0.19779295735E+03 -0.69078836987E+02  0.21043180571E+03  0.00000000000E+00 0.  1.
          1    1    6    6  503    0 -0.46845305798E+01 -0.13691428260E+02 -0.74490546489E+01  0.16275393996E+02  0.00000000000E+00 0. -1.
         -1    1    6    6    0  503  0.22458608209E+03 -0.50747500918E+03 -0.84218665213E+03  0.10085872051E+04  0.00000000000E+00 0.  1.
<mgrwt>
<rscale>  0 0.15136053E+04</rscale>
<asrwt>0</asrwt>
<pdfrwt beam="1">  1        2 0.40631048E+00 0.15136053E+04</pdfrwt>
<pdfrwt beam="2">  1       -2 0.33364189E-01 0.15136053E+04</pdfrwt>
<totfact> 0.23406567E+01</totfact>
</mgrwt>
</event>
<event>
12    2  0.3561489E-008  0.2174517E+04  0.7818608E-02  0.8529110E-01
         -1   -1    0    0    0  501 -0.00000000000E+00  0.00000000000E+00  0.63487625266E+03  0.63487625266E+03  0.00000000000E+00 0.  1.
          1   -1    0    0  501    0  0.00000000000E+00 -0.00000000000E+00 -0.18619873888E+04  0.18619873888E+04  0.00000000000E+00 0. -1.
         23    2    1    2    0    0 -0.51050822513E+03 -0.78330065947E+02  0.33402992380E+03  0.62203161803E+03  0.92698957307E+02 0.  0.
        254    2    1    2    0    0  0.51050822513E+03  0.78330065947E+02 -0.15611410600E+04  0.18748320234E+04  0.90059950029E+03 0.  0.
         23    2    4    4    0    0 -0.16438995319E+03  0.26574437256E+03 -0.40172109199E+03  0.51715480573E+03  0.91788501945E+02 0.  0.
         23    2    4    4    0    0  0.67489817831E+03 -0.18741430661E+03 -0.11594199680E+04  0.13576772177E+04  0.91766507865E+02 0.  0.
          3    1    3    3  502    0 -0.17072284994E+02 -0.20753193837E+02  0.26627656666E+02  0.37831072796E+02  0.00000000000E+00 0. -1.
         -3    1    3    3    0  502 -0.49343594013E+03 -0.57576872110E+02  0.30740226713E+03  0.58420054523E+03  0.00000000000E+00 0.  1.
         11    1    5    5    0    0 -0.63079351116E+02  0.16748136155E+03 -0.27112954740E+03  0.32486957764E+03  0.00000000000E+00 0.  1.
        -11    1    5    5    0    0 -0.10131060207E+03  0.98263011010E+02 -0.13059154459E+03  0.19228522810E+03  0.00000000000E+00 0. -1.
          2    1    6    6  503    0  0.18832735809E+03 -0.11013301743E+02 -0.29511630099E+03  0.35026007156E+03  0.00000000000E+00 0. -1.
         -2    1    6    6    0  503  0.48657082022E+03 -0.17640100487E+03 -0.86430366697E+03  0.10074171461E+04  0.00000000000E+00 0.  1.
<mgrwt>
<rscale>  0 0.21745175E+04</rscale>
<asrwt>0</asrwt>
<pdfrwt beam="1">  1        1 0.28645960E+00 0.21745175E+04</pdfrwt>
<pdfrwt beam="2">  1       -1 0.97673269E-01 0.21745175E+04</pdfrwt>
<totfact> 0.33971921E+00</totfact>
</mgrwt>
</event>
<event>
12    2  0.3561489E-008  0.1110745E+04  0.7818608E-02  0.9194782E-01
          1   -1    0    0  501    0  0.00000000000E+00  0.00000000000E+00  0.58650874217E+03  0.58650874217E+03  0.00000000000E+00 0. -1.
         -1   -1    0    0    0  501 -0.00000000000E+00 -0.00000000000E+00 -0.52588942522E+03  0.52588942522E+03  0.00000000000E+00 0.  1.
         23    2    1    2    0    0 -0.20393461566E+02  0.10507795888E+03 -0.11523028795E+03  0.18265197045E+03  0.92878696858E+02 0.  0.
        254    2    1    2    0    0  0.20393461566E+02 -0.10507795888E+03  0.17584960490E+03  0.92974619695E+03  0.90666842698E+03 0.  0.
         23    2    4    4    0    0 -0.71705057772E+01  0.17656800458E+03 -0.30626133608E+03  0.36339555683E+03  0.83860886929E+02 0.  0.
         23    2    4    4    0    0  0.27563967343E+02 -0.28164596346E+03  0.48211094098E+03  0.56635064011E+03  0.90762696721E+02 0.  0.
          1    1    3    3  502    0 -0.22933273335E+02  0.67370571766E+01  0.77862882710E+01  0.25138600803E+02  0.00000000000E+00 0. -1.
         -1    1    3    3    0  502  0.25398117693E+01  0.98340901705E+02 -0.12301657622E+03  0.15751336964E+03  0.00000000000E+00 0.  1.
         11    1    5    5    0    0 -0.14799827246E+02  0.17585672120E+03 -0.24659211188E+03  0.30323636147E+03  0.00000000000E+00 0. -1.
        -11    1    5    5    0    0  0.76293214687E+01  0.71128337708E+00 -0.59669224196E+02  0.60159195359E+02  0.00000000000E+00 0.  1.
          3    1    6    6  503    0  0.34672871840E+02 -0.91758684833E+02  0.10271594373E+03  0.14202967781E+03  0.00000000000E+00 0. -1.
         -3    1    6    6    0  503 -0.71089044965E+01 -0.18988727863E+03  0.37939499725E+03  0.42432096230E+03  0.00000000000E+00 0.  1.
<mgrwt>
<rscale>  0 0.11107452E+04</rscale>
<asrwt>0</asrwt>
<pdfrwt beam="1">  1        1 0.90232113E-01 0.11107452E+04</pdfrwt>
<pdfrwt beam="2">  1       -1 0.80906066E-01 0.11107452E+04</pdfrwt>
<totfact> 0.53697412E+01</totfact>
</mgrwt>
</event>
<event>
12    2  0.3561489E-008  0.2386417E+04  0.7818608E-02  0.8444606E-01
         -2   -1    0    0    0  501 -0.00000000000E+00  0.00000000000E+00  0.71190278159E+03  0.71190278159E+03  0.00000000000E+00 0.  1.
          2   -1    0    0  501    0  0.00000000000E+00 -0.00000000000E+00 -0.19999168730E+04  0.19999168730E+04  0.00000000000E+00 0. -1.
         23    2    1    2    0    0  0.10033418229E+04 -0.98946225233E+02 -0.72920185687E+03  0.12480039156E+04  0.96401535830E+02 0.  0.
        254    2    1    2    0    0 -0.10033418229E+04  0.98946225233E+02 -0.55881223456E+03  0.14638157390E+04  0.90221961581E+03 0.  0.
         23    2    4    4    0    0 -0.55900133570E+02 -0.10028270768E+02  0.21068148031E+03  0.23520289881E+03  0.87797074641E+02 0.  0.
         23    2    4    4    0    0 -0.94744168938E+03  0.10897449600E+03 -0.76949371487E+03  0.12286128402E+04  0.88587461701E+02 0.  0.
          4    1    3    3  502    0  0.11833558338E+03  0.11561712376E+02 -0.61382451429E+02  0.13380877710E+03  0.00000000000E+00 0.  1.
         -4    1    3    3    0  502  0.88500623957E+03 -0.11050793761E+03 -0.66781940544E+03  0.11141951385E+04  0.00000000000E+00 0. -1.
         11    1    5    5    0    0  0.94317031622E+01  0.20070645464E+02  0.15142515999E+02  0.26853000292E+02  0.00000000000E+00 0. -1.
        -11    1    5    5    0    0 -0.65331836732E+02 -0.30098916232E+02  0.19553896431E+03  0.20834989852E+03  0.00000000000E+00 0.  1.
          2    1    6    6  503    0 -0.10949392024E+03 -0.12246638278E+02 -0.71732874158E+02  0.13147054406E+03  0.00000000000E+00 0. -1.
         -2    1    6    6    0  503 -0.83794776913E+03  0.12122113428E+03 -0.69776084071E+03  0.10971422962E+04  0.00000000000E+00 0.  1.
<mgrwt>
<rscale>  0 0.23864169E+04</rscale>
<asrwt>0</asrwt>
<pdfrwt beam="1">  1        2 0.30767951E+00 0.23864169E+04</pdfrwt>
<pdfrwt beam="2">  1       -2 0.10952351E+00 0.23864169E+04</pdfrwt>
<totfact> 0.39937975E+00</totfact>
</mgrwt>
</event>
<event>
12    2  0.3561489E-008  0.1808651E+04  0.7818608E-02  0.8701713E-01
         -2   -1    0    0    0  501 -0.00000000000E+00  0.00000000000E+00  0.84340517528E+03  0.84340517528E+03  0.00000000000E+00 0.  1.
          2   -1    0    0  501    0  0.00000000000E+00 -0.00000000000E+00 -0.96964596382E+03  0.96964596382E+03  0.00000000000E+00 0. -1.
         23    2    1    2    0    0 -0.31405794993E+03 -0.15372758924E+03  0.53095587330E+03  0.64222929767E+03  0.90993207351E+02 0.  0.
        254    2    1    2    0    0  0.31405794993E+03  0.15372758924E+03 -0.65719666184E+03  0.11708218414E+04  0.90368786892E+03 0.  0.
         23    2    4    4    0    0  0.30659530999E+03  0.99848768645E+02  0.14223265695E+03  0.36400168287E+03  0.91085870040E+02 0.  0.
         23    2    4    4    0    0  0.74626399403E+01  0.53878820600E+02 -0.79942931879E+03  0.80682015857E+03  0.94408231753E+02 0.  0.
          4    1    3    3  502    0 -0.15022654192E+03 -0.30756016381E+02  0.18629105266E+03  0.24128469231E+03  0.00000000000E+00 0. -1.
         -4    1    3    3    0  502 -0.16383140802E+03 -0.12297157286E+03  0.34466482063E+03  0.40094460536E+03  0.00000000000E+00 0.  1.
         11    1    5    5    0    0  0.17355149447E+03  0.87631949506E+02  0.12024526578E+03  0.22860097058E+03  0.00000000000E+00 0.  1.
        -11    1    5    5    0    0  0.13304381552E+03  0.12216819139E+02  0.21987391167E+02  0.13540071229E+03  0.00000000000E+00 0. -1.
          4    1    6    6  503    0 -0.41084860630E+02  0.34880525182E+02 -0.49891069210E+03  0.50181320778E+03  0.00000000000E+00 0. -1.
         -4    1    6    6    0  503  0.48547500570E+02  0.18998295418E+02 -0.30051862669E+03  0.30500695079E+03  0.00000000000E+00 0.  1.
<mgrwt>
<rscale>  0 0.18086508E+04</rscale>
<asrwt>0</asrwt>
<pdfrwt beam="1">  1        2 0.14917630E+00 0.18086508E+04</pdfrwt>
<pdfrwt beam="2">  1       -2 0.12975464E+00 0.18086508E+04</pdfrwt>
<totfact> 0.10850359E+01</totfact>
</mgrwt>
</event>
<event>
12    2  0.3561489E-008  0.3661004E+04  0.7818608E-02  0.8076659E-01
         -1   -1    0    0    0  501 -0.00000000000E+00  0.00000000000E+00  0.18260934796E+04  0.18260934796E+04  0.00000000000E+00 0.  1.
          1   -1    0    0  501    0  0.00000000000E+00 -0.00000000000E+00 -0.18349212894E+04  0.18349212894E+04  0.00000000000E+00 0. -1.
         23    2    1    2    0    0 -0.20174793423E+03  0.19613951380E+03  0.16879101113E+04  0.17136209168E+04  0.91011893464E+02 0.  0.
        254    2    1    2    0    0  0.20174793423E+03 -0.19613951380E+03 -0.16967379211E+04  0.19473938523E+04  0.91337303734E+03 0.  0.
         23    2    4    4    0    0  0.27018846865E+03 -0.42994170001E+03 -0.48613265493E+03  0.70912827382E+03  0.93200196036E+02 0.  0.
         23    2    4    4    0    0 -0.68440534424E+02  0.23380218621E+03 -0.12106052662E+04  0.12382655785E+04  0.91591284568E+02 0.  0.
          1    1    3    3  502    0 -0.12413465085E+03  0.91807680410E+02  0.11446057064E+04  0.11549719845E+04  0.00000000000E+00 0.  1.
         -1    1    3    3    0  502 -0.77613283380E+02  0.10433183339E+03  0.54330440486E+03  0.55864893229E+03  0.00000000000E+00 0. -1.
         11    1    5    5    0    0  0.16767187014E+03 -0.31216220989E+03 -0.28646539931E+03  0.45565505190E+03  0.00000000000E+00 0. -1.
        -11    1    5    5    0    0  0.10251659851E+03 -0.11777949012E+03 -0.19966725562E+03  0.25347322192E+03  0.00000000000E+00 0.  1.
          3    1    6    6  503    0 -0.61542283327E+02  0.13668308132E+03 -0.91063203466E+03  0.92288700278E+03  0.00000000000E+00 0. -1.
         -3    1    6    6    0  503 -0.68982510970E+01  0.97119104895E+02 -0.29997323149E+03  0.31537857571E+03  0.00000000000E+00 0.  1.
<mgrwt>
<rscale>  0 0.36610041E+04</rscale>
<asrwt>0</asrwt>
<pdfrwt beam="1">  1        1 0.28229558E+00 0.36610041E+04</pdfrwt>
<pdfrwt beam="2">  1       -1 0.28093746E+00 0.36610041E+04</pdfrwt>
<totfact> 0.13627209E-01</totfact>
</mgrwt>
</event>
<event>
12    2  0.3561489E-008  0.1872898E+04  0.7818608E-02  0.8668465E-01
          2   -1    0    0  501    0  0.00000000000E+00  0.00000000000E+00  0.20682667513E+04  0.20682667513E+04  0.00000000000E+00 0. -1.
         -2   -1    0    0    0  501 -0.00000000000E+00 -0.00000000000E+00 -0.42399613215E+03  0.42399613215E+03  0.00000000000E+00 0.  1.
         23    2    1    2    0    0 -0.61454495500E+03  0.36815617638E+03  0.66625093093E+03  0.98249181744E+03  0.90528429007E+02 0.  0.
        254    2    1    2    0    0  0.61454495500E+03 -0.36815617638E+03  0.97801968827E+03  0.15097710661E+04  0.89982314336E+03 0.  0.
         23    2    4    4    0    0  0.65171988968E+03 -0.24390819047E+03  0.22075428106E+03  0.73578880520E+03  0.91775232318E+02 0.  0.
         23    2    4    4    0    0 -0.37174934687E+02 -0.12424798590E+03  0.75726540720E+03  0.77398226085E+03  0.93691543848E+02 0.  0.
          1    1    3    3  502    0 -0.60569117892E+03  0.35405674643E+03  0.66346678855E+03  0.96561180783E+03  0.00000000000E+00 0. -1.
         -1    1    3    3    0  502 -0.88537760772E+01  0.14099429953E+02  0.27841423846E+01  0.16880009616E+02  0.00000000000E+00 0.  1.
         11    1    5    5    0    0  0.54109108930E+03 -0.23667484634E+03  0.19526539008E+03  0.62203144806E+03  0.00000000000E+00 0. -1.
        -11    1    5    5    0    0  0.11062880038E+03 -0.72333441374E+01  0.25488890984E+02  0.11375735715E+03  0.00000000000E+00 0.  1.
          1    1    6    6  503    0 -0.35038191165E+02 -0.79519582395E+02  0.67273120845E+03  0.67832021763E+03  0.00000000000E+00 0. -1.
         -1    1    6    6    0  503 -0.21367435227E+01 -0.44728403510E+02  0.84534198755E+02  0.95662043218E+02  0.00000000000E+00 0.  1.
<mgrwt>
<rscale>  0 0.18728984E+04</rscale>
<asrwt>0</asrwt>
<pdfrwt beam="1">  1        2 0.31819488E+00 0.18728984E+04</pdfrwt>
<pdfrwt beam="2">  1       -2 0.65230175E-01 0.18728984E+04</pdfrwt>
<totfact> 0.12446826E+01</totfact>
</mgrwt>
</event>
<event>
12    2  0.3561489E-008  0.1511049E+04  0.7818608E-02  0.8877138E-01
         -1   -1    0    0    0  501 -0.00000000000E+00  0.00000000000E+00  0.22574688639E+03  0.22574688639E+03  0.00000000000E+00 0.  1.
          1   -1    0    0  501    0  0.00000000000E+00 -0.00000000000E+00 -0.25285733388E+04  0.25285733388E+04  0.00000000000E+00 0. -1.
         23    2    1    2    0    0  0.64063573188E+02 -0.47100530702E+03 -0.96148503209E+03  0.10764089990E+04  0.90844512666E+02 0.  0.
        254    2    1    2    0    0 -0.64063573188E+02  0.47100530702E+03 -0.13413414203E+04  0.16779112262E+04  0.88895395637E+03 0.  0.
         23    2    4    4    0    0  0.37090291475E+03  0.32547204533E+02 -0.48316230417E+03  0.61661355108E+03  0.90211786992E+02 0.  0.
         23    2    4    4    0    0 -0.43496648794E+03  0.43845810248E+03 -0.85817911611E+03  0.10612976751E+04  0.91869508512E+02 0.  0.
          3    1    3    3  502    0  0.50928360297E+02 -0.43963792803E+03 -0.83031982156E+03  0.94090712173E+03  0.00000000000E+00 0. -1.
         -3    1    3    3    0  502  0.13135212891E+02 -0.31367378986E+02 -0.13116521053E+03  0.13550187724E+03  0.00000000000E+00 0.  1.
         11    1    5    5    0    0 -0.14853798199E+01  0.60590049317E-01  0.30059180773E+01  0.33534411954E+01  0.00000000000E+00 0. -1.
        -11    1    5    5    0    0  0.37238829457E+03  0.32486614484E+02 -0.48616822225E+03  0.61326010989E+03  0.00000000000E+00 0.  1.
          2    1    6    6  503    0 -0.25982012846E+03  0.31174542827E+03 -0.60325094695E+03  0.72705117853E+03  0.00000000000E+00 0. -1.
         -2    1    6    6    0  503 -0.17514635947E+03  0.12671267422E+03 -0.25492816916E+03  0.33424649658E+03  0.00000000000E+00 0.  1.
<mgrwt>
<rscale>  0 0.15110494E+04</rscale>
<asrwt>0</asrwt>
<pdfrwt beam="1">  1        1 0.38901126E+00 0.15110494E+04</pdfrwt>
<pdfrwt beam="2">  1       -1 0.34730292E-01 0.15110494E+04</pdfrwt>
<totfact> 0.98684524E+00</totfact>
</mgrwt>
</event>
<event>
12    2  0.3561489E-008  0.1964863E+04  0.7818608E-02  0.8623227E-01
          1   -1    0    0  501    0  0.00000000000E+00  0.00000000000E+00  0.19897761411E+04  0.19897761411E+04  0.00000000000E+00 0. -1.
         -1   -1    0    0    0  501 -0.00000000000E+00 -0.00000000000E+00 -0.48506526226E+03  0.48506526226E+03  0.00000000000E+00 0.  1.
         23    2    1    2    0    0  0.64954051734E+03  0.21373600379E+03  0.10478486569E+04  0.12542704841E+04  0.87302213227E+02 0.  0.
        254    2    1    2    0    0 -0.64954051734E+03 -0.21373600379E+03  0.45686222192E+03  0.12205709193E+04  0.90193365398E+03 0.  0.
         23    2    4    4    0    0 -0.18477140957E+03 -0.51041039352E+03  0.10182894164E+03  0.55862052627E+03  0.83836241600E+02 0.  0.
         23    2    4    4    0    0 -0.46476910777E+03  0.29667438973E+03  0.35503328028E+03  0.66195039301E+03  0.90020417910E+02 0.  0.
          2    1    3    3  502    0  0.58590961234E+03  0.19495625548E+03  0.98701330312E+03  0.11642565336E+04  0.00000000000E+00 0. -1.
         -2    1    3    3    0  502  0.63630904991E+02  0.18779748315E+02  0.60835353814E+02  0.90013950532E+02  0.00000000000E+00 0.  1.
         11    1    5    5    0    0 -0.17930013419E+03 -0.40185085817E+03  0.91352089850E+02  0.44941946403E+03  0.00000000000E+00 0. -1.
        -11    1    5    5    0    0 -0.54712753799E+01 -0.10855953535E+03  0.10476851785E+02  0.10920106224E+03  0.00000000000E+00 0.  1.
          1    1    6    6  503    0 -0.15945499953E+03  0.14918939499E+03  0.16085807630E+03  0.27121705913E+03  0.00000000000E+00 0. -1.
         -1    1    6    6    0  503 -0.30531410824E+03  0.14748499474E+03  0.19417520398E+03  0.39073333388E+03  0.00000000000E+00 0.  1.
<mgrwt>
<rscale>  0 0.19648626E+04</rscale>
<asrwt>0</asrwt>
<pdfrwt beam="1">  1        1 0.30611940E+00 0.19648626E+04</pdfrwt>
<pdfrwt beam="2">  1       -1 0.74625426E-01 0.19648626E+04</pdfrwt>
<totfact> 0.50900739E+00</totfact>
</mgrwt>
</event>
<event>
12    2  0.3561489E-008  0.1842382E+04  0.7818608E-02  0.8684080E-01
          2   -1    0    0  501    0  0.00000000000E+00  0.00000000000E+00  0.23373758379E+04  0.23373758379E+04  0.00000000000E+00 0. -1.
         -2   -1    0    0    0  501 -0.00000000000E+00 -0.00000000000E+00 -0.36305369691E+03  0.36305369691E+03  0.00000000000E+00 0.  1.
         23    2    1    2    0    0  0.17354987840E+03 -0.23177241450E+03 -0.16524235775E+03  0.34600368750E+03  0.92604009353E+02 0.  0.
        254    2    1    2    0    0 -0.17354987840E+03  0.23177241450E+03  0.21395644987E+04  0.23544258473E+04  0.93901374526E+03 0.  0.
         23    2    4    4    0    0 -0.45806756159E+03  0.41317659386E+03  0.12086599938E+04  0.13599869356E+04  0.90358705436E+02 0.  0.
         23    2    4    4    0    0  0.28451768319E+03 -0.18140417936E+03  0.93090450494E+03  0.99443891172E+03  0.92020451485E+02 0.  0.
          4    1    3    3  502    0  0.11447722647E+03 -0.85020509696E+02 -0.53403521126E+02  0.15226771988E+03  0.00000000000E+00 0. -1.
         -4    1    3    3    0  502  0.59072651933E+02 -0.14675190481E+03 -0.11183883662E+03  0.19373596762E+03  0.00000000000E+00 0.  1.
         11    1    5    5    0    0 -0.13915892802E+01  0.22294024187E+02  0.42063152729E+02  0.47626346203E+02  0.00000000000E+00 0.  1.
        -11    1    5    5    0    0 -0.45667597231E+03  0.39088256968E+03  0.11665968411E+04  0.13123605894E+04  0.00000000000E+00 0. -1.
          4    1    6    6  503    0  0.14556995761E+03 -0.14584990930E+03  0.52985155734E+03  0.56851163701E+03  0.00000000000E+00 0. -1.
         -4    1    6    6    0  503  0.13894772558E+03 -0.35554270058E+02  0.40105294760E+03  0.42592727471E+03  0.00000000000E+00 0.  1.
<mgrwt>
<rscale>  0 0.18423821E+04</rscale>
<asrwt>0</asrwt>
<pdfrwt beam="1">  1        2 0.35959627E+00 0.18423821E+04</pdfrwt>
<pdfrwt beam="2">  1       -2 0.55854416E-01 0.18423821E+04</pdfrwt>
<totfact> 0.12234883E+01</totfact>
</mgrwt>
</event>
<event>
12    2  0.3561489E-008  0.3059520E+04  0.7818608E-02  0.8226936E-01
          2   -1    0    0  501    0  0.00000000000E+00  0.00000000000E+00  0.27518905726E+04  0.27518905726E+04  0.00000000000E+00 0. -1.
         -2   -1    0    0    0  501 -0.00000000000E+00 -0.00000000000E+00 -0.85038485882E+03  0.85038485882E+03  0.00000000000E+00 0.  1.
         23    2    1    2    0    0  0.17767174921E+03 -0.13690218994E+04  0.11343147051E+04  0.17890843778E+04  0.91459548936E+02 0.  0.
        254    2    1    2    0    0 -0.17767174921E+03  0.13690218994E+04  0.76719100863E+03  0.18131910536E+04  0.89066915389E+03 0.  0.
         23    2    4    4    0    0 -0.19315061526E+03  0.12296028749E+04  0.94885484555E+03  0.15677906278E+04  0.91714472679E+02 0.  0.
         23    2    4    4    0    0  0.15478866053E+02  0.13941902451E+03 -0.18166383692E+03  0.24540042584E+03  0.86846759692E+02 0.  0.
          1    1    3    3  502    0  0.17130282181E+03 -0.13579963706E+04  0.11125906985E+04  0.17639038698E+04  0.00000000000E+00 0. -1.
         -1    1    3    3    0  502  0.63689273964E+01 -0.11025528780E+02  0.21724006595E+02  0.25180508009E+02  0.00000000000E+00 0.  1.
         11    1    5    5    0    0 -0.40653390140E+02  0.26024957615E+03  0.24940039103E+03  0.36274384222E+03  0.00000000000E+00 0. -1.
        -11    1    5    5    0    0 -0.15249722512E+03  0.96935329873E+03  0.69945445451E+03  0.12050467855E+04  0.00000000000E+00 0.  1.
          1    1    6    6  503    0 -0.12314713706E+02  0.13646185227E+03 -0.15218811215E+03  0.20477966398E+03  0.00000000000E+00 0. -1.
         -1    1    6    6    0  503  0.27793579758E+02  0.29571722329E+01 -0.29475724776E+02  0.40620761865E+02  0.00000000000E+00 0.  1.
<mgrwt>
<rscale>  0 0.30595203E+04</rscale>
<asrwt>0</asrwt>
<pdfrwt beam="1">  1        2 0.42336778E+00 0.30595203E+04</pdfrwt>
<pdfrwt beam="2">  1       -2 0.13082844E+00 0.30595203E+04</pdfrwt>
<totfact> 0.89962149E-01</totfact>
</mgrwt>
</event>
<event>
12    2  0.3561489E-008  0.1540251E+04  0.7818608E-02  0.8858119E-01
         -2   -1    0    0    0  501 -0.00000000000E+00  0.00000000000E+00  0.19366157801E+03  0.19366157801E+03  0.00000000000E+00 0.  1.
          2   -1    0    0  501    0  0.00000000000E+00 -0.00000000000E+00 -0.30625259563E+04  0.30625259563E+04  0.00000000000E+00 0. -1.
         23    2    1    2    0    0  0.29604206741E+02  0.44973145971E+03 -0.43740974730E+03  0.63485072996E+03  0.92592480214E+02 0.  0.
        254    2    1    2    0    0 -0.29604206741E+02 -0.44973145971E+03 -0.24314546310E+04  0.26213368043E+04  0.86965523302E+03 0.  0.
         23    2    4    4    0    0  0.14206377810E+02 -0.66268384757E+03 -0.21599529005E+04  0.22612362631E+04  0.91876015198E+02 0.  0.
         23    2    4    4    0    0 -0.43810584550E+02  0.21295238786E+03 -0.27150173052E+03  0.36010054127E+03  0.93226194457E+02 0.  0.
          3    1    3    3  502    0  0.20527268638E+02  0.63699461284E+02 -0.29425191530E+02  0.73108358087E+02  0.00000000000E+00 0. -1.
         -3    1    3    3    0  502  0.90769381031E+01  0.38603199842E+03 -0.40798455577E+03  0.56174237188E+03  0.00000000000E+00 0.  1.
         11    1    5    5    0    0 -0.33772619602E+02 -0.14835252147E+03 -0.45706565122E+03  0.48172406001E+03  0.00000000000E+00 0.  1.
        -11    1    5    5    0    0  0.47978997412E+02 -0.51433132611E+03 -0.17028872492E+04  0.17795122030E+04  0.00000000000E+00 0. -1.
          3    1    6    6  503    0 -0.32924365276E+02  0.15622898075E+03 -0.12547264080E+03  0.20306376300E+03  0.00000000000E+00 0. -1.
         -3    1    6    6    0  503 -0.10886219274E+02  0.56723407113E+02 -0.14602908972E+03  0.15703677827E+03  0.00000000000E+00 0.  1.
<mgrwt>
<rscale>  0 0.15402514E+04</rscale>
<asrwt>0</asrwt>
<pdfrwt beam="1">  1        2 0.47115779E+00 0.15402514E+04</pdfrwt>
<pdfrwt beam="2">  1       -2 0.29794092E-01 0.15402514E+04</pdfrwt>
<totfact> 0.16026797E+01</totfact>
</mgrwt>
</event>
<event>
12    2  0.3561489E-008  0.2129054E+04  0.7818608E-02  0.8548552E-01
         -2   -1    0    0    0  501 -0.00000000000E+00  0.00000000000E+00  0.69996421321E+03  0.69996421321E+03  0.00000000000E+00 0.  1.
          2   -1    0    0  501    0  0.00000000000E+00 -0.00000000000E+00 -0.16189656018E+04  0.16189656018E+04  0.00000000000E+00 0. -1.
         23    2    1    2    0    0  0.83139713670E+03  0.37735204907E+02 -0.66469274067E+03  0.10690639931E+04  0.91848992039E+02 0.  0.
        254    2    1    2    0    0 -0.83139713670E+03 -0.37735204907E+02 -0.25430864794E+03  0.12498658219E+04  0.89713239807E+03 0.  0.
         23    2    4    4    0    0 -0.80745722482E+03  0.85286013234E+01 -0.52019905098E+03  0.96466537737E+03  0.88951282732E+02 0.  0.
         23    2    4    4    0    0 -0.23939911880E+02 -0.46263806231E+02  0.26589040304E+03  0.28520044450E+03  0.89040035750E+02 0.  0.
          4    1    3    3  502    0  0.74979231529E+03  0.18591772009E+02 -0.62510306751E+03  0.97636469368E+03  0.00000000000E+00 0. -1.
         -4    1    3    3    0  502  0.81604821410E+02  0.19143432899E+02 -0.39589673160E+02  0.92699299465E+02  0.00000000000E+00 0.  1.
         11    1    5    5    0    0 -0.67923177262E+03 -0.22496024920E+02 -0.41890220639E+03  0.79833635179E+03  0.00000000000E+00 0. -1.
        -11    1    5    5    0    0 -0.12822545220E+03  0.31024626243E+02 -0.10129684460E+03  0.16632902558E+03  0.00000000000E+00 0.  1.
          1    1    6    6  503    0  0.28733361042E+01  0.25513627445E+02  0.83822002226E+02  0.87666009964E+02  0.00000000000E+00 0. -1.
         -1    1    6    6    0  503 -0.26813247985E+02 -0.71777433676E+02  0.18206840082E+03  0.19753443454E+03  0.00000000000E+00 0.  1.
<mgrwt>
<rscale>  0 0.21290542E+04</rscale>
<asrwt>0</asrwt>
<pdfrwt beam="1">  1        2 0.24907163E+00 0.21290542E+04</pdfrwt>
<pdfrwt beam="2">  1       -2 0.10768680E+00 0.21290542E+04</pdfrwt>
<totfact> 0.69211132E+00</totfact>
</mgrwt>
</event>
<event>
12    2  0.3561489E-008  0.2132059E+04  0.7818608E-02  0.8547251E-01
         -2   -1    0    0    0  501 -0.00000000000E+00  0.00000000000E+00  0.56168835210E+03  0.56168835210E+03  0.00000000000E+00 0.  1.
          2   -1    0    0  501    0  0.00000000000E+00 -0.00000000000E+00 -0.20232196272E+04  0.20232196272E+04  0.00000000000E+00 0. -1.
         23    2    1    2    0    0 -0.94978705327E+02  0.58853065287E+03  0.16689902374E+03  0.62558278893E+03  0.90051417782E+02 0.  0.
        254    2    1    2    0    0  0.94978705327E+02 -0.58853065287E+03 -0.16284302988E+04  0.19593251903E+04  0.91202010918E+03 0.  0.
         23    2    4    4    0    0 -0.39046789011E+03 -0.30697425277E+03 -0.60143653013E+03  0.78559268186E+03  0.93443014413E+02 0.  0.
         23    2    4    4    0    0  0.48544659544E+03 -0.28155640011E+03 -0.10269937687E+04  0.11737325085E+04  0.89439348639E+02 0.  0.
          3    1    3    3  502    0  0.11216911240E+01  0.14142575813E+02  0.20777901049E+02  0.25159328561E+02  0.00000000000E+00 0. -1.
         -3    1    3    3    0  502 -0.96100396451E+02  0.57438807706E+03  0.14612112269E+03  0.60042346037E+03  0.00000000000E+00 0.  1.
         11    1    5    5    0    0 -0.30380677087E+03 -0.27204953110E+03 -0.52559936791E+03  0.66525498642E+03  0.00000000000E+00 0. -1.
        -11    1    5    5    0    0 -0.86661119238E+02 -0.34924721668E+02 -0.75837162218E+02  0.12033769544E+03  0.00000000000E+00 0.  1.
          3    1    6    6  503    0  0.47611150117E+03 -0.25827687460E+03 -0.99698351076E+03  0.11346211818E+04  0.00000000000E+00 0. -1.
         -3    1    6    6    0  503  0.93350942698E+01 -0.23279525504E+02 -0.30010257918E+02  0.39111326659E+02  0.00000000000E+00 0.  1.
<mgrwt>
<rscale>  0 0.21320590E+04</rscale>
<asrwt>0</asrwt>
<pdfrwt beam="1">  1        2 0.31126456E+00 0.21320590E+04</pdfrwt>
<pdfrwt beam="2">  1       -2 0.86413593E-01 0.21320590E+04</pdfrwt>
<totfact> 0.69160998E+00</totfact>
</mgrwt>
</event>
<event>
12    2  0.3561489E-008  0.1922369E+04  0.7818608E-02  0.8643801E-01
          2   -1    0    0  501    0  0.00000000000E+00  0.00000000000E+00  0.23704095352E+04  0.23704095352E+04  0.00000000000E+00 0. -1.
         -2   -1    0    0    0  501 -0.00000000000E+00 -0.00000000000E+00 -0.38975351752E+03  0.38975351752E+03  0.00000000000E+00 0.  1.
         23    2    1    2    0    0 -0.61695601460E+03  0.39738770742E+03  0.56849166025E+03  0.93263304196E+03  0.89832673458E+02 0.  0.
        254    2    1    2    0    0  0.61695601460E+03 -0.39738770742E+03  0.14121643575E+04  0.18275300108E+04  0.89839081355E+03 0.  0.
         23    2    4    4    0    0 -0.13574974035E+03  0.27720506849E+02  0.65359600064E+03  0.67394165447E+03  0.88392324731E+02 0.  0.
         23    2    4    4    0    0  0.75270575496E+03 -0.42510821426E+03  0.75856835683E+03  0.11535883563E+04  0.89761887673E+02 0.  0.
          1    1    3    3  502    0 -0.93114440422E+02  0.38505935405E+02  0.48121052056E+02  0.11166307235E+03  0.00000000000E+00 0. -1.
         -1    1    3    3    0  502 -0.52384157418E+03  0.35888177201E+03  0.52037060819E+03  0.82096996960E+03  0.00000000000E+00 0.  1.
         11    1    5    5    0    0 -0.13692314385E+03  0.46817813117E+02  0.59278271021E+03  0.61018947588E+03  0.00000000000E+00 0. -1.
        -11    1    5    5    0    0  0.11734034956E+01 -0.19097306269E+02  0.60813290423E+02  0.63752178587E+02  0.00000000000E+00 0.  1.
          3    1    6    6  503    0  0.68390138251E+03 -0.36037912557E+03  0.65305691513E+03  0.10119671682E+04  0.00000000000E+00 0. -1.
         -3    1    6    6    0  503  0.68804372443E+02 -0.64729088699E+02  0.10551144170E+03  0.14162118811E+03  0.00000000000E+00 0.  1.
<mgrwt>
<rscale>  0 0.19223688E+04</rscale>
<asrwt>0</asrwt>
<pdfrwt beam="1">  1        2 0.36467838E+00 0.19223688E+04</pdfrwt>
<pdfrwt beam="2">  1       -2 0.59962081E-01 0.19223688E+04</pdfrwt>
<totfact> 0.10026483E+01</totfact>
</mgrwt>
</event>
<event>
12    2  0.3561489E-008  0.2921002E+04  0.7818608E-02  0.8266656E-01
         -2   -1    0    0    0  501 -0.00000000000E+00  0.00000000000E+00  0.99104496011E+03  0.99104496011E+03  0.00000000000E+00 0.  1.
          2   -1    0    0  501    0  0.00000000000E+00 -0.00000000000E+00 -0.21523372281E+04  0.21523372281E+04  0.00000000000E+00 0. -1.
         23    2    1    2    0    0  0.43626064569E+03 -0.22274697701E+03 -0.18399552606E+04  0.19064647178E+04  0.96087420697E+02 0.  0.
        254    2    1    2    0    0 -0.43626064569E+03  0.22274697701E+03  0.67866299260E+03  0.12369174704E+04  0.91073695675E+03 0.  0.
         23    2    4    4    0    0  0.45843549470E+02 -0.29384538357E+03  0.13160647881E+03  0.33768004156E+03  0.90888969254E+02 0.  0.
         23    2    4    4    0    0 -0.48210419516E+03  0.51659236058E+03  0.54705651379E+03  0.89923742887E+03  0.10032448452E+03 0.  0.
          2    1    3    3  502    0  0.77928716540E+02 -0.67717005504E+02 -0.51194774091E+03  0.52225373825E+03  0.00000000000E+00 0.  1.
         -2    1    3    3    0  502  0.35833192915E+03 -0.15502997150E+03 -0.13280075197E+04  0.13842109795E+04  0.00000000000E+00 0. -1.
         11    1    5    5    0    0 -0.12245553956E+02 -0.13751877977E+02  0.27857150636E+02  0.33392942086E+02  0.00000000000E+00 0.  1.
        -11    1    5    5    0    0  0.58089103426E+02 -0.28009350559E+03  0.10374932817E+03  0.30428709948E+03  0.00000000000E+00 0. -1.
          3    1    6    6  503    0 -0.27675878106E+03  0.30461519992E+03  0.25574537372E+03  0.48455292703E+03  0.00000000000E+00 0. -1.
         -3    1    6    6    0  503 -0.20534541410E+03  0.21197716066E+03  0.29131114007E+03  0.41468450183E+03  0.00000000000E+00 0.  1.
<mgrwt>
<rscale>  0 0.29210019E+04</rscale>
<asrwt>0</asrwt>
<pdfrwt beam="1">  1        2 0.33112881E+00 0.29210019E+04</pdfrwt>
<pdfrwt beam="2">  1       -2 0.15246845E+00 0.29210019E+04</pdfrwt>
<totfact> 0.13575668E+00</totfact>
</mgrwt>
</event>
<event>
12    2  0.3561489E-008  0.1349193E+04  0.7818608E-02  0.8991439E-01
         -2   -1    0    0    0  501 -0.00000000000E+00  0.00000000000E+00  0.10433542360E+04  0.10433542360E+04  0.00000000000E+00 0.  1.
          2   -1    0    0  501    0  0.00000000000E+00 -0.00000000000E+00 -0.43617063412E+03  0.43617063412E+03  0.00000000000E+00 0. -1.
         23    2    1    2    0    0  0.33726937500E+03  0.73579245553E+02  0.20476736599E+03  0.41162041779E+03  0.91308036228E+02 0.  0.
        254    2    1    2    0    0 -0.33726937500E+03 -0.73579245553E+02  0.40241623594E+03  0.10679044524E+04  0.92699328789E+03 0.  0.
         23    2    4    4    0    0  0.17049841137E+03 -0.28169782364E+03  0.37994857478E+03  0.51091038757E+03  0.90802712131E+02 0.  0.
         23    2    4    4    0    0 -0.50776778636E+03  0.20811857809E+03  0.22467661162E+02  0.55699406482E+03  0.92715290182E+02 0.  0.
          3    1    3    3  502    0  0.90277558440E+02 -0.18082933417E+02  0.36646114249E+02  0.99095750304E+02  0.00000000000E+00 0. -1.
         -3    1    3    3    0  502  0.24699181656E+03  0.91662178971E+02  0.16812125174E+03  0.31252466748E+03  0.00000000000E+00 0.  1.
         11    1    5    5    0    0  0.16652989551E+03 -0.28503040421E+03  0.35235302373E+03  0.48283246655E+03  0.00000000000E+00 0. -1.
        -11    1    5    5    0    0  0.39685158597E+01  0.33325805701E+01  0.27595551043E+02  0.28077921019E+02  0.00000000000E+00 0.  1.
          4    1    6    6  503    0 -0.42499014513E+03  0.15900127830E+03 -0.14229042163E+02  0.45398292435E+03  0.00000000000E+00 0. -1.
         -4    1    6    6    0  503 -0.82777641233E+02  0.49117299782E+02  0.36696703326E+02  0.10301114047E+03  0.00000000000E+00 0.  1.
<mgrwt>
<rscale>  0 0.13491931E+04</rscale>
<asrwt>0</asrwt>
<pdfrwt beam="1">  1        2 0.67103175E-01 0.13491931E+04</pdfrwt>
<pdfrwt beam="2">  1       -2 0.16051604E+00 0.13491931E+04</pdfrwt>
<totfact> 0.17560017E+01</totfact>
</mgrwt>
</event>
<event>
12    2  0.3561489E-008  0.1825823E+04  0.7818608E-02  0.8692686E-01
          1   -1    0    0  501    0  0.00000000000E+00  0.00000000000E+00  0.36756962833E+03  0.36756962833E+03  0.00000000000E+00 0.  1.
         -1   -1    0    0    0  501 -0.00000000000E+00 -0.00000000000E+00 -0.22673458966E+04  0.22673458966E+04  0.00000000000E+00 0. -1.
         23    2    1    2    0    0 -0.31541435221E+03  0.20749099489E+03  0.10767136870E+03  0.40304343261E+03  0.91171039232E+02 0.  0.
        254    2    1    2    0    0  0.31541435221E+03 -0.20749099489E+03 -0.20074476370E+04  0.22318720923E+04  0.89937105508E+03 0.  0.
         23    2    4    4    0    0 -0.15579697541E+03 -0.26967716676E+03 -0.14838792435E+04  0.15189554925E+04  0.91267229730E+02 0.  0.
         23    2    4    4    0    0  0.47121132761E+03  0.62186171861E+02 -0.52356839348E+03  0.71291659978E+03  0.90658592222E+02 0.  0.
          4    1    3    3  502    0 -0.66177711254E+02  0.16565593305E+02  0.48123898864E+02  0.83485435797E+02  0.00000000000E+00 0. -1.
         -4    1    3    3    0  502 -0.24923664095E+03  0.19092540159E+03  0.59547469839E+02  0.31955799682E+03  0.00000000000E+00 0.  1.
         11    1    5    5    0    0 -0.12868317357E+03 -0.13566784025E+03 -0.80297376102E+03  0.82445859988E+03  0.00000000000E+00 0. -1.
        -11    1    5    5    0    0 -0.27113801836E+02 -0.13400932650E+03 -0.68090548248E+03  0.69449689266E+03  0.00000000000E+00 0.  1.
          3    1    6    6  503    0  0.34396837886E+03  0.55825329575E+02 -0.43681341183E+03  0.55878141508E+03  0.00000000000E+00 0. -1.
         -3    1    6    6    0  503  0.12724294875E+03  0.63608422862E+01 -0.86754981651E+02  0.15413518470E+03  0.00000000000E+00 0.  1.
<mgrwt>
<rscale>  0 0.18258231E+04</rscale>
<asrwt>0</asrwt>
<pdfrwt beam="1">  1        1 0.56549174E-01 0.18258231E+04</pdfrwt>
<pdfrwt beam="2">  1       -1 0.34882245E+00 0.18258231E+04</pdfrwt>
<totfact> 0.10022139E+00</totfact>
</mgrwt>
</event>
<event>
12    2  0.3561489E-008  0.1477126E+04  0.7818608E-02  0.8899808E-01
          2   -1    0    0  501    0  0.00000000000E+00  0.00000000000E+00  0.20324237669E+03  0.20324237669E+03  0.00000000000E+00 0. -1.
         -2   -1    0    0    0  501 -0.00000000000E+00 -0.00000000000E+00 -0.26838676956E+04  0.26838676956E+04  0.00000000000E+00 0.  1.
         23    2    1    2    0    0  0.15612379588E+03  0.27634327846E+03 -0.14424153824E+04  0.14797353234E+04  0.91182480865E+02 0.  0.
        254    2    1    2    0    0 -0.15612379588E+03 -0.27634327846E+03 -0.10382099365E+04  0.14073747488E+04  0.89559118144E+03 0.  0.
         23    2    4    4    0    0 -0.68902435134E+02  0.26041078737E+03 -0.69303016252E+02  0.29214816209E+03  0.89366194968E+02 0.  0.
         23    2    4    4    0    0 -0.87221360745E+02 -0.53675406583E+03 -0.96890692024E+03  0.11152265868E+04  0.96110492487E+02 0.  0.
          2    1    3    3  502    0  0.11578195556E+03  0.11960674048E+03 -0.65154111788E+03  0.67247086323E+03  0.00000000000E+00 0. -1.
         -2    1    3    3    0  502  0.40341840324E+02  0.15673653798E+03 -0.79087426453E+03  0.80726446021E+03  0.00000000000E+00 0.  1.
         11    1    5    5    0    0 -0.28556900763E+02  0.34002523777E+02 -0.41001533033E+02  0.60438348053E+02  0.00000000000E+00 0. -1.
        -11    1    5    5    0    0 -0.40345534371E+02  0.22640826359E+03 -0.28301483219E+02  0.23170981403E+03  0.00000000000E+00 0.  1.
          3    1    6    6  503    0 -0.39084599240E+01  0.30692903482E+01 -0.17304726104E+02  0.18004170288E+02  0.00000000000E+00 0. -1.
         -3    1    6    6    0  503 -0.83312900821E+02 -0.53982335618E+03 -0.95160219413E+03  0.10972224165E+04  0.00000000000E+00 0.  1.
<mgrwt>
<rscale>  0 0.14771265E+04</rscale>
<asrwt>0</asrwt>
<pdfrwt beam="1">  1        2 0.31268058E-01 0.14771265E+04</pdfrwt>
<pdfrwt beam="2">  1       -2 0.41290272E+00 0.14771265E+04</pdfrwt>
<totfact> 0.10146760E+00</totfact>
</mgrwt>
</event>
<event>
12    2  0.3561489E-008  0.2010857E+04  0.7818608E-02  0.8601562E-01
          2   -1    0    0  501    0  0.00000000000E+00  0.00000000000E+00  0.59049628411E+03  0.59049628411E+03  0.00000000000E+00 0. -1.
         -2   -1    0    0    0  501 -0.00000000000E+00 -0.00000000000E+00 -0.17119264149E+04  0.17119264149E+04  0.00000000000E+00 0.  1.
         23    2    1    2    0    0  0.44785595799E+03  0.18538904656E+03  0.27934354975E+03  0.56697194731E+03  0.92088612507E+02 0.  0.
        254    2    1    2    0    0 -0.44785595799E+03 -0.18538904656E+03 -0.14007736805E+04  0.17354507517E+04  0.90259534111E+03 0.  0.
         23    2    4    4    0    0 -0.47847558174E+03  0.26117978731E+03 -0.90543655046E+03  0.10616359803E+04  0.10050793044E+03 0.  0.
         23    2    4    4    0    0  0.30619623743E+02 -0.44656883387E+03 -0.49533713008E+03  0.67381477143E+03  0.91138296088E+02 0.  0.
          4    1    3    3  502    0  0.32130133099E+03  0.95405731502E+02  0.16156747890E+03  0.37207640229E+03  0.00000000000E+00 0. -1.
         -4    1    3    3    0  502  0.12655462700E+03  0.89983315062E+02  0.11777607085E+03  0.19489554502E+03  0.00000000000E+00 0.  1.
         11    1    5    5    0    0 -0.24889999268E+03  0.17025378079E+03 -0.57322695533E+03  0.64770880691E+03  0.00000000000E+00 0.  1.
        -11    1    5    5    0    0 -0.22957558906E+03  0.90926006515E+02 -0.33220959513E+03  0.41392717336E+03  0.00000000000E+00 0. -1.
          1    1    6    6  503    0  0.26138593037E+02 -0.11856732893E+03 -0.19115034387E+03  0.22645063810E+03  0.00000000000E+00 0. -1.
         -1    1    6    6    0  503  0.44810307057E+01 -0.32800150494E+03 -0.30418678621E+03  0.44736413333E+03  0.00000000000E+00 0.  1.
<mgrwt>
<rscale>  0 0.20108567E+04</rscale>
<asrwt>0</asrwt>
<pdfrwt beam="1">  1        2 0.90845583E-01 0.20108567E+04</pdfrwt>
<pdfrwt beam="2">  1       -2 0.26337329E+00 0.20108567E+04</pdfrwt>
<totfact> 0.24973310E+00</totfact>
</mgrwt>
</event>
<event>
12    2  0.3561489E-008  0.1220425E+04  0.7818608E-02  0.9095164E-01
          1   -1    0    0  501    0  0.00000000000E+00  0.00000000000E+00  0.15166146707E+04  0.15166146707E+04  0.00000000000E+00 0. -1.
         -1   -1    0    0    0  501 -0.00000000000E+00 -0.00000000000E+00 -0.24551995174E+03  0.24551995174E+03  0.00000000000E+00 0.  1.
         23    2    1    2    0    0  0.22303805111E+03 -0.13169771585E+03  0.14258851126E+03  0.30933558598E+03  0.90921727903E+02 0.  0.
        254    2    1    2    0    0 -0.22303805111E+03  0.13169771585E+03  0.11285062077E+04  0.14527990365E+04  0.87750129282E+03 0.  0.
         23    2    4    4    0    0  0.20133994698E+03  0.21616107035E+03  0.87632071744E+02  0.32161741084E+03  0.92168304588E+02 0.  0.
         23    2    4    4    0    0 -0.42437799810E+03 -0.84463354500E+02  0.10408741360E+04  0.11311816256E+04  0.94457184531E+02 0.  0.
          4    1    3    3  502    0  0.59018655192E+02 -0.13615855706E+02 -0.23801520523E+01  0.60615660609E+02  0.00000000000E+00 0.  1.
         -4    1    3    3    0  502  0.16401939592E+03 -0.11808186014E+03  0.14496866331E+03  0.24871992537E+03  0.00000000000E+00 0. -1.
         11    1    5    5    0    0  0.10918544966E+03  0.98656013802E+02 -0.25332281581E+01  0.14717638643E+03  0.00000000000E+00 0.  1.
        -11    1    5    5    0    0  0.92154497318E+02  0.11750505655E+03  0.90165299902E+02  0.17444102441E+03  0.00000000000E+00 0. -1.
          4    1    6    6  503    0 -0.40312616312E+03 -0.60599151668E+02  0.99503484208E+03  0.10753033514E+04  0.00000000000E+00 0. -1.
         -4    1    6    6    0  503 -0.21251834977E+02 -0.23864202832E+02  0.45839293880E+02  0.55878274223E+02  0.00000000000E+00 0.  1.
<mgrwt>
<rscale>  0 0.12204248E+04</rscale>
<asrwt>0</asrwt>
<pdfrwt beam="1">  1        1 0.23332533E+00 0.12204248E+04</pdfrwt>
<pdfrwt beam="2">  1       -1 0.37772301E-01 0.12204248E+04</pdfrwt>
<totfact> 0.42564781E+01</totfact>
</mgrwt>
</event>
<event>
12    2  0.3561489E-008  0.1940712E+04  0.7818608E-02  0.8634853E-01
         -1   -1    0    0    0  501 -0.00000000000E+00  0.00000000000E+00  0.33561720264E+03  0.33561720264E+03  0.00000000000E+00 0.  1.
          1   -1    0    0  501    0  0.00000000000E+00 -0.00000000000E+00 -0.28055498548E+04  0.28055498548E+04  0.00000000000E+00 0. -1.
         23    2    1    2    0    0  0.79113568107E+01 -0.58868545869E+03 -0.17289106112E+04  0.18284787710E+04  0.87118056372E+02 0.  0.
        254    2    1    2    0    0 -0.79113568107E+01  0.58868545869E+03 -0.74102204101E+03  0.13126882865E+04  0.90962833801E+03 0.  0.
         23    2    4    4    0    0  0.31416328583E+03  0.63516090382E+03 -0.64278977945E+03  0.96050792376E+03  0.85257416988E+02 0.  0.
         23    2    4    4    0    0 -0.32207464264E+03 -0.46475445126E+02 -0.98232261563E+02  0.35218036270E+03  0.92137876176E+02 0.  0.
          4    1    3    3  502    0  0.45365727941E+01 -0.58984520079E+03 -0.17255205128E+04  0.18235566845E+04  0.00000000000E+00 0. -1.
         -4    1    3    3    0  502  0.33747840166E+01  0.11597421009E+01 -0.33900983924E+01  0.49220865504E+01  0.00000000000E+00 0.  1.
         11    1    5    5    0    0 -0.46203280259E+01  0.73642314937E+01 -0.31386500724E+01  0.92428599923E+01  0.00000000000E+00 0. -1.
        -11    1    5    5    0    0  0.31878361385E+03  0.62779667232E+03 -0.63965112938E+03  0.95126506377E+03  0.00000000000E+00 0.  1.
          1    1    6    6  503    0 -0.26898329763E+03 -0.57169310486E+01 -0.94449927415E+02  0.28514116941E+03  0.00000000000E+00 0. -1.
         -1    1    6    6    0  503 -0.53091345009E+02 -0.40758514078E+02 -0.37823341485E+01  0.67039193285E+02  0.00000000000E+00 0.  1.
<mgrwt>
<rscale>  0 0.19407120E+04</rscale>
<asrwt>0</asrwt>
<pdfrwt beam="1">  1        1 0.43162305E+00 0.19407120E+04</pdfrwt>
<pdfrwt beam="2">  1       -1 0.51633416E-01 0.19407120E+04</pdfrwt>
<totfact> 0.29106141E+00</totfact>
</mgrwt>
</event>
<event>
12    2  0.3561489E-008  0.1391294E+04  0.7818608E-02  0.8960145E-01
          1   -1    0    0  501    0  0.00000000000E+00  0.00000000000E+00  0.11473971290E+04  0.11473971290E+04  0.00000000000E+00 0. -1.
         -1   -1    0    0    0  501 -0.00000000000E+00 -0.00000000000E+00 -0.42175847379E+03  0.42175847379E+03  0.00000000000E+00 0.  1.
         23    2    1    2    0    0 -0.28366725972E+03 -0.22147409210E+03  0.37194466277E+03  0.52598656734E+03  0.93814439943E+02 0.  0.
        254    2    1    2    0    0  0.28366725972E+03  0.22147409210E+03  0.35369399248E+03  0.10431690355E+04  0.91300838364E+03 0.  0.
         23    2    4    4    0    0  0.54201335930E+02 -0.74963884386E+02  0.58072787131E+03  0.59496538596E+03  0.90452093405E+02 0.  0.
         23    2    4    4    0    0  0.22946592379E+03  0.29643797649E+03 -0.22703387882E+03  0.44820364953E+03  0.93872494567E+02 0.  0.
          4    1    3    3  502    0 -0.23831352378E+03 -0.22260593572E+03  0.33454326859E+03  0.46718940141E+03  0.00000000000E+00 0. -1.
         -4    1    3    3    0  502 -0.45353735945E+02  0.11318436128E+01  0.37401394184E+02  0.58797165928E+02  0.00000000000E+00 0.  1.
         11    1    5    5    0    0  0.50820753162E+02  0.12400717018E+01  0.17993184108E+03  0.18697527688E+03  0.00000000000E+00 0. -1.
        -11    1    5    5    0    0  0.33805827678E+01 -0.76203956088E+02  0.40079603023E+03  0.40799010908E+03  0.00000000000E+00 0.  1.
          2    1    6    6  503    0  0.90831277118E+01 -0.46284992663E+01 -0.17586849244E+02  0.20327899075E+02  0.00000000000E+00 0. -1.
         -2    1    6    6    0  503  0.22038279608E+03  0.30106647575E+03 -0.20944702958E+03  0.42787575046E+03  0.00000000000E+00 0.  1.
<mgrwt>
<rscale>  0 0.13912936E+04</rscale>
<asrwt>0</asrwt>
<pdfrwt beam="1">  1        1 0.17652263E+00 0.13912936E+04</pdfrwt>
<pdfrwt beam="2">  1       -1 0.64885919E-01 0.13912936E+04</pdfrwt>
<totfact> 0.27455865E+01</totfact>
</mgrwt>
</event>
<event>
12    2  0.3561489E-008  0.1213536E+04  0.7818608E-02  0.9101091E-01
          2   -1    0    0  501    0  0.00000000000E+00  0.00000000000E+00  0.84155028427E+03  0.84155028427E+03  0.00000000000E+00 0. -1.
         -2   -1    0    0    0  501 -0.00000000000E+00 -0.00000000000E+00 -0.43748691719E+03  0.43748691719E+03  0.00000000000E+00 0.  1.
         23    2    1    2    0    0 -0.19612439612E+03 -0.13402891369E+03  0.26968903572E+03  0.37048889550E+03  0.90007317725E+02 0.  0.
        254    2    1    2    0    0  0.19612439612E+03  0.13402891369E+03  0.13437433135E+03  0.90854830595E+03  0.86658815758E+03 0.  0.
         23    2    4    4    0    0  0.17877258175E+03  0.41081779710E+03 -0.17106352541E+03  0.48734613356E+03  0.86675404647E+02 0.  0.
         23    2    4    4    0    0  0.17351814366E+02 -0.27678888341E+03  0.30543785676E+03  0.42120217239E+03  0.84887067599E+02 0.  0.
          4    1    3    3  502    0 -0.84893961166E+02 -0.72781502949E+02  0.64222270866E+02  0.12895205268E+03  0.00000000000E+00 0.  1.
         -4    1    3    3    0  502 -0.11123043495E+03 -0.61247410742E+02  0.20546676486E+03  0.24153684283E+03  0.00000000000E+00 0. -1.
         11    1    5    5    0    0  0.12207544598E+03  0.19684614078E+03 -0.11692738807E+03  0.25946643662E+03  0.00000000000E+00 0.  1.
        -11    1    5    5    0    0  0.56697135774E+02  0.21397165631E+03 -0.54136137344E+02  0.22787969694E+03  0.00000000000E+00 0. -1.
          2    1    6    6  503    0  0.17332355798E+02 -0.28278738712E+03  0.29405201056E+03  0.40833283212E+03  0.00000000000E+00 0. -1.
         -2    1    6    6    0  503  0.19458568046E-01  0.59985037108E+01  0.11385846200E+02  0.12869340274E+02  0.00000000000E+00 0.  1.
<mgrwt>
<rscale>  0 0.12135357E+04</rscale>
<asrwt>0</asrwt>
<pdfrwt beam="1">  1        2 0.12946927E+00 0.12135357E+04</pdfrwt>
<pdfrwt beam="2">  1       -2 0.67305680E-01 0.12135357E+04</pdfrwt>
<totfact> 0.64250642E+01</totfact>
</mgrwt>
</event>
<event>
12    2  0.3561489E-008  0.1131847E+04  0.7818608E-02  0.9174696E-01
         -1   -1    0    0    0  501 -0.00000000000E+00  0.00000000000E+00  0.79128454939E+03  0.79128454939E+03  0.00000000000E+00 0.  1.
          1   -1    0    0  501    0  0.00000000000E+00 -0.00000000000E+00 -0.40474603753E+03  0.40474603753E+03  0.00000000000E+00 0. -1.
         23    2    1    2    0    0 -0.15928124304E+03  0.55546765905E+02 -0.54681660649E+01  0.19121492038E+03  0.89873730016E+02 0.  0.
        254    2    1    2    0    0  0.15928124304E+03 -0.55546765905E+02  0.39200667792E+03  0.10048156665E+04  0.90968639135E+03 0.  0.
         23    2    4    4    0    0  0.39828226536E+02 -0.17981505703E+03  0.64997578023E+03  0.68167145053E+03  0.91036856330E+02 0.  0.
         23    2    4    4    0    0  0.11945301651E+03  0.12426829112E+03 -0.25796910231E+03  0.32314421601E+03  0.90346528781E+02 0.  0.
          4    1    3    3  502    0 -0.14434751367E+03  0.22259364180E+02 -0.27464030469E+02  0.14861344813E+03  0.00000000000E+00 0. -1.
         -4    1    3    3    0  502 -0.14933729375E+02  0.33287401725E+02  0.21995864404E+02  0.42601472245E+02  0.00000000000E+00 0.  1.
         11    1    5    5    0    0  0.38614905572E+02 -0.91931103582E+02  0.20336765129E+03  0.22649688812E+03  0.00000000000E+00 0. -1.
        -11    1    5    5    0    0  0.12133209641E+01 -0.87883953446E+02  0.44660812895E+03  0.45517456241E+03  0.00000000000E+00 0.  1.
          1    1    6    6  503    0  0.44603340471E+02  0.10792410799E+03 -0.13775214644E+03  0.18058993581E+03  0.00000000000E+00 0. -1.
         -1    1    6    6    0  503  0.74849676037E+02  0.16344183134E+02 -0.12021695587E+03  0.14255428021E+03  0.00000000000E+00 0.  1.
<mgrwt>
<rscale>  0 0.11318468E+04</rscale>
<asrwt>0</asrwt>
<pdfrwt beam="1">  1        1 0.62268622E-01 0.11318468E+04</pdfrwt>
<pdfrwt beam="2">  1       -1 0.12173608E+00 0.11318468E+04</pdfrwt>
<totfact> 0.35106982E+01</totfact>
</mgrwt>
</event>
<event>
12    2  0.3561489E-008  0.1723888E+04  0.7818608E-02  0.8747856E-01
          2   -1    0    0  501    0  0.00000000000E+00  0.00000000000E+00  0.12501339036E+04  0.12501339036E+04  0.00000000000E+00 0. -1.
         -2   -1    0    0    0  501 -0.00000000000E+00 -0.00000000000E+00 -0.59429422230E+03  0.59429422230E+03  0.00000000000E+00 0.  1.
         23    2    1    2    0    0 -0.32376661737E+03 -0.45211148149E+02  0.81461143047E+03  0.88286330596E+03  0.94799598749E+02 0.  0.
        254    2    1    2    0    0  0.32376661737E+03  0.45211148149E+02 -0.15877174917E+03  0.96156481994E+03  0.89024129547E+03 0.  0.
         23    2    4    4    0    0 -0.55383156572E+02  0.38076229791E+03 -0.20332184447E+03  0.44469110814E+03  0.91450465723E+02 0.  0.
         23    2    4    4    0    0  0.37914977394E+03 -0.33555114976E+03  0.44550095299E+02  0.51687371180E+03  0.93939330280E+02 0.  0.
          2    1    3    3  502    0 -0.19006020513E+03 -0.73348225105E+02  0.49210941018E+03  0.53261103564E+03  0.00000000000E+00 0. -1.
         -2    1    3    3    0  502 -0.13370641223E+03  0.28137076956E+02  0.32250202029E+03  0.35025227032E+03  0.00000000000E+00 0.  1.
         11    1    5    5    0    0 -0.65070582183E+02  0.37793212071E+03 -0.19000559759E+03  0.42798247119E+03  0.00000000000E+00 0. -1.
        -11    1    5    5    0    0  0.96874256110E+01  0.28301772028E+01 -0.13316246878E+02  0.16708636955E+02  0.00000000000E+00 0.  1.
          1    1    6    6  503    0  0.30578315856E+03 -0.21547045551E+03  0.38057831436E+02  0.37600432948E+03  0.00000000000E+00 0. -1.
         -1    1    6    6    0  503  0.73366615383E+02 -0.12008069425E+03  0.64922638627E+01  0.14086938232E+03  0.00000000000E+00 0.  1.
<mgrwt>
<rscale>  0 0.17238879E+04</rscale>
<asrwt>0</asrwt>
<pdfrwt beam="1">  1        2 0.19232829E+00 0.17238879E+04</pdfrwt>
<pdfrwt beam="2">  1       -2 0.91429881E-01 0.17238879E+04</pdfrwt>
<totfact> 0.17117138E+01</totfact>
</mgrwt>
</event>
<event>
12    2  0.3561489E-008  0.1144856E+04  0.7818608E-02  0.9162542E-01
         -1   -1    0    0    0  501 -0.00000000000E+00  0.00000000000E+00  0.28538524896E+03  0.28538524896E+03  0.00000000000E+00 0.  1.
          1   -1    0    0  501    0  0.00000000000E+00 -0.00000000000E+00 -0.11481812219E+04  0.11481812219E+04  0.00000000000E+00 0. -1.
         23    2    1    2    0    0 -0.11955457147E+03 -0.15684667626E+03 -0.15272308725E+03  0.27113978534E+03  0.10629330364E+03 0.  0.
        254    2    1    2    0    0  0.11955457147E+03  0.15684667626E+03 -0.71007288568E+03  0.11624266855E+04  0.89896502758E+03 0.  0.
         23    2    4    4    0    0  0.22546266382E+01  0.51573393738E+03 -0.48516215969E+03  0.71396351374E+03  0.91515027486E+02 0.  0.
         23    2    4    4    0    0  0.11729994483E+03 -0.35888726111E+03 -0.22491072599E+03  0.44846317178E+03  0.89303071221E+02 0.  0.
          1    1    3    3  502    0  0.14602359553E+02 -0.54873879579E+00 -0.24454790590E+02  0.28488011541E+02  0.00000000000E+00 0. -1.
         -1    1    3    3    0  502 -0.13415693102E+03 -0.15629793747E+03 -0.12826829666E+03  0.24265177379E+03  0.00000000000E+00 0.  1.
         11    1    5    5    0    0  0.15183182068E+02  0.14712380623E+02 -0.10208208787E+02  0.23477450627E+02  0.00000000000E+00 0. -1.
        -11    1    5    5    0    0 -0.12928555429E+02  0.50102155675E+03 -0.47495395090E+03  0.69048606311E+03  0.00000000000E+00 0.  1.
          3    1    6    6  503    0  0.88628235876E+02 -0.13965519877E+03 -0.11576752086E+03  0.20189268839E+03  0.00000000000E+00 0. -1.
         -3    1    6    6    0  503  0.28671708951E+02 -0.21923206234E+03 -0.10914320513E+03  0.24657048339E+03  0.00000000000E+00 0.  1.
<mgrwt>
<rscale>  0 0.11448563E+04</rscale>
<asrwt>0</asrwt>
<pdfrwt beam="1">  1        1 0.17664327E+00 0.11448563E+04</pdfrwt>
<pdfrwt beam="2">  1       -1 0.43905422E-01 0.11448563E+04</pdfrwt>
<totfact> 0.59414340E+01</totfact>
</mgrwt>
</event>
<event>
12    2  0.3561489E-008  0.1070474E+04  0.7818608E-02  0.9234457E-01
          2   -1    0    0  501    0  0.00000000000E+00  0.00000000000E+00  0.10683584728E+04  0.10683584728E+04  0.00000000000E+00 0.  1.
         -2   -1    0    0    0  501 -0.00000000000E+00 -0.00000000000E+00 -0.26814863373E+03  0.26814863373E+03  0.00000000000E+00 0. -1.
         23    2    1    2    0    0  0.43943094990E+02 -0.66985114430E+02  0.26072778496E+03  0.28674352212E+03  0.88458286654E+02 0.  0.
        254    2    1    2    0    0 -0.43943094990E+02  0.66985114430E+02  0.53948205412E+03  0.10497635844E+04  0.89696415497E+03 0.  0.
         23    2    4    4    0    0  0.75737752649E+02  0.45915897062E+03  0.22195525504E+03  0.52329332987E+03  0.89490817217E+02 0.  0.
         23    2    4    4    0    0 -0.11968084764E+03 -0.39217385619E+03  0.31752679908E+03  0.52647025455E+03  0.90685291076E+02 0.  0.
          4    1    3    3  502    0 -0.18222458649E+01 -0.27714141500E+02  0.11058621531E+02  0.29894603681E+02  0.00000000000E+00 0. -1.
         -4    1    3    3    0  502  0.45765340855E+02 -0.39270972930E+02  0.24966916343E+03  0.25684891844E+03  0.00000000000E+00 0.  1.
         11    1    5    5    0    0  0.36484335263E+02  0.50171583893E+02  0.40890751503E+02  0.74299045138E+02  0.00000000000E+00 0. -1.
        -11    1    5    5    0    0  0.39253417386E+02  0.40898738673E+03  0.18106450353E+03  0.44899428473E+03  0.00000000000E+00 0.  1.
          4    1    6    6  503    0 -0.10092267676E+03 -0.24489430261E+03  0.15743765448E+03  0.30813182436E+03  0.00000000000E+00 0. -1.
         -4    1    6    6    0  503 -0.18758170881E+02 -0.14727955358E+03  0.16008914460E+03  0.21833843019E+03  0.00000000000E+00 0.  1.
<mgrwt>
<rscale>  0 0.10704744E+04</rscale>
<asrwt>0</asrwt>
<pdfrwt beam="1">  1        2 0.16436284E+00 0.10704744E+04</pdfrwt>
<pdfrwt beam="2">  1       -2 0.41253636E-01 0.10704744E+04</pdfrwt>
<totfact> 0.12609961E+02</totfact>
</mgrwt>
</event>
<event>
12    2  0.3561489E-008  0.1706649E+04  0.7818608E-02  0.8757581E-01
          2   -1    0    0  501    0  0.00000000000E+00  0.00000000000E+00  0.22476201751E+04  0.22476201751E+04  0.00000000000E+00 0. -1.
         -2   -1    0    0    0  501 -0.00000000000E+00 -0.00000000000E+00 -0.32397038185E+03  0.32397038185E+03  0.00000000000E+00 0.  1.
         23    2    1    2    0    0 -0.37599362802E+03 -0.28856839429E+03  0.10291976328E+03  0.49347519361E+03  0.91007486160E+02 0.  0.
        254    2    1    2    0    0  0.37599362802E+03  0.28856839429E+03  0.18207300300E+04  0.20781153633E+04  0.88253197948E+03 0.  0.
         23    2    4    4    0    0  0.46386977480E+03 -0.12535814460E+03  0.55359478986E+03  0.73901380986E+03  0.93725062875E+02 0.  0.
         23    2    4    4    0    0 -0.87876146779E+02  0.41392653889E+03  0.12671352401E+04  0.13391015535E+04  0.92216359893E+02 0.  0.
          1    1    3    3  502    0 -0.27413898803E+03 -0.21634536983E+03  0.11586660155E+03  0.36794370923E+03  0.00000000000E+00 0. -1.
         -1    1    3    3    0  502 -0.10185463999E+03 -0.72223024454E+02 -0.12946838268E+02  0.12553148438E+03  0.00000000000E+00 0.  1.
         11    1    5    5    0    0  0.32634913920E+03 -0.11258096453E+03  0.44565104548E+03  0.56372252800E+03  0.00000000000E+00 0. -1.
        -11    1    5    5    0    0  0.13752063560E+03 -0.12777180072E+02  0.10794374438E+03  0.17529128187E+03  0.00000000000E+00 0.  1.
          3    1    6    6  503    0 -0.88556476953E+02  0.40139758771E+03  0.12583479030E+04  0.13237831084E+04  0.00000000000E+00 0. -1.
         -3    1    6    6    0  503  0.68033017411E+00  0.12528951180E+02  0.87873370953E+01  0.15318445092E+02  0.00000000000E+00 0.  1.
<mgrwt>
<rscale>  0 0.17066486E+04</rscale>
<asrwt>0</asrwt>
<pdfrwt beam="1">  1        2 0.34578771E+00 0.17066486E+04</pdfrwt>
<pdfrwt beam="2">  1       -2 0.49841599E-01 0.17066486E+04</pdfrwt>
<totfact> 0.17594981E+01</totfact>
</mgrwt>
</event>
<event>
12    2  0.3561489E-008  0.2209028E+04  0.7818608E-02  0.8514680E-01
         -1   -1    0    0    0  501 -0.00000000000E+00  0.00000000000E+00  0.69841989601E+03  0.69841989601E+03  0.00000000000E+00 0.  1.
          1   -1    0    0  501    0  0.00000000000E+00 -0.00000000000E+00 -0.17467307067E+04  0.17467307067E+04  0.00000000000E+00 0. -1.
         23    2    1    2    0    0  0.74563296452E+03 -0.16702739773E+03 -0.10082694531E+04  0.12681274908E+04  0.87597793891E+02 0.  0.
        254    2    1    2    0    0 -0.74563296452E+03  0.16702739773E+03 -0.40041357584E+02  0.11770231119E+04  0.89437879350E+03 0.  0.
         23    2    4    4    0    0 -0.24225599231E+03 -0.33722379693E+03 -0.15217675316E+03  0.45009746873E+03  0.83798043712E+02 0.  0.
         23    2    4    4    0    0 -0.50337697221E+03  0.50425119466E+03  0.11213539557E+03  0.72692564318E+03  0.90492542778E+02 0.  0.
          2    1    3    3  502    0  0.67335052950E+03 -0.14949077772E+03 -0.86160705720E+03  0.11036825401E+04  0.00000000000E+00 0. -1.
         -2    1    3    3    0  502  0.72282435021E+02 -0.17536620009E+02 -0.14666239593E+03  0.16444495077E+03  0.00000000000E+00 0.  1.
         11    1    5    5    0    0 -0.15409696152E+02  0.64031514248E+00 -0.12461067205E+02  0.19827933197E+02  0.00000000000E+00 0. -1.
        -11    1    5    5    0    0 -0.22684629616E+03 -0.33786411207E+03 -0.13971568595E+03  0.43026953553E+03  0.00000000000E+00 0.  1.
          1    1    6    6  503    0 -0.27964646544E+02  0.62877138866E+02  0.20285288857E+02  0.71742936881E+02  0.00000000000E+00 0. -1.
         -1    1    6    6    0  503 -0.47541232567E+03  0.44137405579E+03  0.91850106714E+02  0.65518270629E+03  0.00000000000E+00 0.  1.
<mgrwt>
<rscale>  0 0.22090283E+04</rscale>
<asrwt>0</asrwt>
<pdfrwt beam="1">  1        1 0.26872780E+00 0.22090283E+04</pdfrwt>
<pdfrwt beam="2">  1       -1 0.10744922E+00 0.22090283E+04</pdfrwt>
<totfact> 0.32540031E+00</totfact>
</mgrwt>
</event>
<event>
12    2  0.3561489E-008  0.2274106E+04  0.7818608E-02  0.8488201E-01
         -2   -1    0    0    0  501 -0.00000000000E+00  0.00000000000E+00  0.51456065160E+03  0.51456065160E+03  0.00000000000E+00 0.  1.
          2   -1    0    0  501    0  0.00000000000E+00 -0.00000000000E+00 -0.25126079476E+04  0.25126079476E+04  0.00000000000E+00 0. -1.
         23    2    1    2    0    0 -0.92240213162E+03 -0.29068132908E+03 -0.10644680120E+04  0.14410811435E+04  0.91111941607E+02 0.  0.
        254    2    1    2    0    0  0.92240213162E+03  0.29068132908E+03 -0.93357928395E+03  0.15860874557E+04  0.84189180438E+03 0.  0.
         23    2    4    4    0    0  0.43519723784E+03  0.21728378179E+03  0.33933727899E+02  0.49640381016E+03  0.93039600200E+02 0.  0.
         23    2    4    4    0    0  0.48720489378E+03  0.73397547290E+02 -0.96751301185E+03  0.10896836456E+04  0.92591634720E+02 0.  0.
          3    1    3    3  502    0 -0.74305029865E+03 -0.22168639130E+03 -0.79947511883E+03  0.11137455131E+04  0.00000000000E+00 0. -1.
         -3    1    3    3    0  502 -0.17935183297E+03 -0.68994937780E+02 -0.26499289321E+03  0.32733563033E+03  0.00000000000E+00 0.  1.
         11    1    5    5    0    0 -0.28538685765E+01  0.86529133998E+01  0.48855695611E+01  0.10338581435E+02  0.00000000000E+00 0. -1.
        -11    1    5    5    0    0  0.43805110642E+03  0.20863086839E+03  0.29048158338E+02  0.48606522873E+03  0.00000000000E+00 0.  1.
          3    1    6    6  503    0  0.21810954308E+03  0.67189974221E+02 -0.51247205256E+03  0.56099364530E+03  0.00000000000E+00 0. -1.
         -3    1    6    6    0  503  0.26909535070E+03  0.62075730685E+01 -0.45504095929E+03  0.52869000025E+03  0.00000000000E+00 0.  1.
<mgrwt>
<rscale>  0 0.22741057E+04</rscale>
<asrwt>0</asrwt>
<pdfrwt beam="1">  1        2 0.38655507E+00 0.22741057E+04</pdfrwt>
<pdfrwt beam="2">  1       -2 0.79163177E-01 0.22741057E+04</pdfrwt>
<totfact> 0.44016311E+00</totfact>
</mgrwt>
</event>
<event>
12    2  0.3561489E-008  0.3832044E+04  0.7818608E-02  0.8039313E-01
         -2   -1    0    0    0  501 -0.00000000000E+00  0.00000000000E+00  0.84376171632E+03  0.84376171632E+03  0.00000000000E+00 0.  1.
          2   -1    0    0  501    0  0.00000000000E+00 -0.00000000000E+00 -0.43509215686E+04  0.43509215686E+04  0.00000000000E+00 0. -1.
         23    2    1    2    0    0  0.24757794438E+03  0.11055019846E+04  0.25002238295E+03  0.11634348664E+04  0.87407207073E+02 0.  0.
        254    2    1    2    0    0 -0.24757794438E+03 -0.11055019846E+04 -0.37571822352E+04  0.40312484185E+04  0.92255947597E+03 0.  0.
         23    2    4    4    0    0 -0.39099320142E+02 -0.10107639997E+04 -0.18685756023E+04  0.21267277582E+04  0.90683825557E+02 0.  0.
         23    2    4    4    0    0 -0.20847862424E+03 -0.94737984936E+02 -0.18886066329E+04  0.19045206603E+04  0.89024204943E+02 0.  0.
          1    1    3    3  502    0  0.56582751341E+02  0.24861396830E+03  0.19263915286E+02  0.25569828199E+03  0.00000000000E+00 0. -1.
         -1    1    3    3    0  502  0.19099519304E+03  0.85688801631E+03  0.23075846766E+03  0.90773658440E+03  0.00000000000E+00 0.  1.
         11    1    5    5    0    0 -0.30046439947E+02 -0.13206811152E+03 -0.28933633873E+03  0.31946876458E+03  0.00000000000E+00 0. -1.
        -11    1    5    5    0    0 -0.90528801947E+01 -0.87869588815E+03 -0.15792392636E+04  0.18072589936E+04  0.00000000000E+00 0.  1.
          3    1    6    6  503    0 -0.15235689661E+02 -0.30096338314E+02 -0.48855877591E+03  0.48972195513E+03  0.00000000000E+00 0. -1.
         -3    1    6    6    0  503 -0.19324293458E+03 -0.64641646622E+02 -0.14000478570E+04  0.14147987051E+04  0.00000000000E+00 0.  1.
<mgrwt>
<rscale>  0 0.38320444E+04</rscale>
<asrwt>0</asrwt>
<pdfrwt beam="1">  1        2 0.66937255E+00 0.38320444E+04</pdfrwt>
<pdfrwt beam="2">  1       -2 0.12980949E+00 0.38320444E+04</pdfrwt>
<totfact> 0.59106558E-02</totfact>
</mgrwt>
</event>
<event>
12    2  0.3561489E-008  0.2636198E+04  0.7818608E-02  0.8356008E-01
          2   -1    0    0  501    0  0.00000000000E+00  0.00000000000E+00  0.32704069839E+04  0.32704069839E+04  0.00000000000E+00 0. -1.
         -2   -1    0    0    0  501 -0.00000000000E+00 -0.00000000000E+00 -0.53124433814E+03  0.53124433814E+03  0.00000000000E+00 0.  1.
         23    2    1    2    0    0  0.80432242160E+03 -0.83104540342E+03  0.10454564413E+04  0.15614975898E+04  0.87889315339E+02 0.  0.
        254    2    1    2    0    0 -0.80432242160E+03  0.83104540342E+03  0.16937062044E+04  0.22401537322E+04  0.90115315942E+03 0.  0.
         23    2    4    4    0    0 -0.18063394953E+03  0.10766002870E+03 -0.64455905892E+02  0.23728430013E+03  0.89050377778E+02 0.  0.
         23    2    4    4    0    0 -0.62368847207E+03  0.72338537472E+03  0.17581621103E+04  0.20028694321E+04  0.89879059684E+02 0.  0.
          2    1    3    3  502    0  0.24041435459E+02 -0.51468270496E+02  0.55125608719E+02  0.79156845714E+02  0.00000000000E+00 0. -1.
         -2    1    3    3    0  502  0.78028098614E+03 -0.77957713292E+03  0.99033083260E+03  0.14823407441E+04  0.00000000000E+00 0.  1.
         11    1    5    5    0    0 -0.16434932570E+03  0.81688551685E+02 -0.83032646880E+02  0.20144016676E+03  0.00000000000E+00 0. -1.
        -11    1    5    5    0    0 -0.16284623824E+02  0.25971477018E+02  0.18576740988E+02  0.35844133374E+02  0.00000000000E+00 0.  1.
          4    1    6    6  503    0 -0.50813629997E+03  0.54390067690E+03  0.14121885469E+04  0.15963417358E+04  0.00000000000E+00 0. -1.
         -4    1    6    6    0  503 -0.11555217210E+03  0.17948469781E+03  0.34597356345E+03  0.40652769627E+03  0.00000000000E+00 0.  1.
<mgrwt>
<rscale>  0 0.26361982E+04</rscale>
<asrwt>0</asrwt>
<pdfrwt beam="1">  1        2 0.50313953E+00 0.26361982E+04</pdfrwt>
<pdfrwt beam="2">  1       -2 0.81729900E-01 0.26361982E+04</pdfrwt>
<totfact> 0.13540620E+00</totfact>
</mgrwt>
</event>
<event>
12    2  0.3561489E-008  0.1083991E+04  0.7818608E-02  0.9220937E-01
          2   -1    0    0  501    0  0.00000000000E+00  0.00000000000E+00  0.10359487751E+04  0.10359487751E+04  0.00000000000E+00 0. -1.
         -2   -1    0    0    0  501 -0.00000000000E+00 -0.00000000000E+00 -0.28356525143E+03  0.28356525143E+03  0.00000000000E+00 0.  1.
         23    2    1    2    0    0  0.49399226277E+02 -0.69849143747E+01 -0.43844992106E+02  0.11156214749E+03  0.89636247317E+02 0.  0.
        254    2    1    2    0    0 -0.49399226277E+02  0.69849143747E+01  0.79622851575E+03  0.12079518790E+04  0.90701643874E+03 0.  0.
         23    2    4    4    0    0 -0.46304328370E+02 -0.43185957064E+03  0.51046682770E+03  0.67640532622E+03  0.91109843452E+02 0.  0.
         23    2    4    4    0    0 -0.30948979064E+01  0.43884448502E+03  0.28576168805E+03  0.53154655280E+03  0.91038096489E+02 0.  0.
          4    1    3    3  502    0 -0.79767820000E+01  0.13186953837E+02  0.18760303529E+02  0.24279081347E+02  0.00000000000E+00 0. -1.
         -4    1    3    3    0  502  0.57376008277E+02 -0.20171868212E+02 -0.62605295635E+02  0.87283066138E+02  0.00000000000E+00 0.  1.
         11    1    5    5    0    0 -0.18614335385E+02 -0.12411003232E+03  0.89210429423E+02  0.15397497953E+03  0.00000000000E+00 0.  1.
        -11    1    5    5    0    0 -0.27689992985E+02 -0.30774953832E+03  0.42125639827E+03  0.52243034668E+03  0.00000000000E+00 0. -1.
          1    1    6    6  503    0 -0.72717216686E+01  0.42082744432E+03  0.24554047804E+03  0.48727686400E+03  0.00000000000E+00 0. -1.
         -1    1    6    6    0  503  0.41768237622E+01  0.18017040698E+02  0.40221210008E+02  0.44269688803E+02  0.00000000000E+00 0.  1.
<mgrwt>
<rscale>  0 0.10839909E+04</rscale>
<asrwt>0</asrwt>
<pdfrwt beam="1">  1        2 0.15937673E+00 0.10839909E+04</pdfrwt>
<pdfrwt beam="2">  1       -2 0.43625424E-01 0.10839909E+04</pdfrwt>
<totfact> 0.11823497E+02</totfact>
</mgrwt>
</event>
<event>
12    2  0.3561489E-008  0.1003143E+04  0.7818608E-02  0.9305105E-01
         -1   -1    0    0    0  501 -0.00000000000E+00  0.00000000000E+00  0.35266466607E+03  0.35266466607E+03  0.00000000000E+00 0.  1.
          1   -1    0    0  501    0  0.00000000000E+00 -0.00000000000E+00 -0.71335111009E+03  0.71335111009E+03  0.00000000000E+00 0. -1.
         23    2    1    2    0    0  0.42475174228E+02  0.25069944112E+02 -0.64529879695E+02  0.12310595802E+03  0.92511237166E+02 0.  0.
        254    2    1    2    0    0 -0.42475174228E+02 -0.25069944112E+02 -0.29615656432E+03  0.94290981815E+03  0.89383307840E+03 0.  0.
         23    2    4    4    0    0  0.18375459770E+03  0.33609767798E+03 -0.31711797736E+03  0.50566002432E+03  0.91656136235E+02 0.  0.
         23    2    4    4    0    0 -0.22622977193E+03 -0.36116762210E+03  0.20961413032E+02  0.43724979383E+03  0.95530311503E+02 0.  0.
          4    1    3    3  502    0 -0.17085815712E+02  0.14039418070E+02 -0.58130902533E+02  0.62195113857E+02  0.00000000000E+00 0. -1.
         -4    1    3    3    0  502  0.59560989940E+02  0.11030526042E+02 -0.63989771614E+01  0.60910844158E+02  0.00000000000E+00 0.  1.
         11    1    5    5    0    0  0.29146602810E+00  0.66041038605E+02 -0.69710381523E+02  0.96026251747E+02  0.00000000000E+00 0. -1.
        -11    1    5    5    0    0  0.18346313167E+03  0.27005663938E+03 -0.24740759583E+03  0.40963377257E+03  0.00000000000E+00 0.  1.
          2    1    6    6  503    0 -0.11138356190E+03 -0.12692686250E+03  0.46413289372E+02  0.17513115004E+03  0.00000000000E+00 0. -1.
         -2    1    6    6    0  503 -0.11484621003E+03 -0.23424075959E+03 -0.25451876340E+02  0.26211864379E+03  0.00000000000E+00 0.  1.
<mgrwt>
<rscale>  0 0.10031425E+04</rscale>
<asrwt>0</asrwt>
<pdfrwt beam="1">  1        1 0.10974633E+00 0.10031425E+04</pdfrwt>
<pdfrwt beam="2">  1       -1 0.54256102E-01 0.10031425E+04</pdfrwt>
<totfact> 0.91012914E+01</totfact>
</mgrwt>
</event>
<event>
12    2  0.3561489E-008  0.1541316E+04  0.7818608E-02  0.8857434E-01
         -1   -1    0    0    0  501 -0.00000000000E+00  0.00000000000E+00  0.10308366661E+04  0.10308366661E+04  0.00000000000E+00 0.  1.
          1   -1    0    0  501    0  0.00000000000E+00 -0.00000000000E+00 -0.57614720192E+03  0.57614720192E+03  0.00000000000E+00 0. -1.
         23    2    1    2    0    0 -0.26580479146E+03  0.39817112945E+03 -0.69828865225E+01  0.48723010961E+03  0.90288335431E+02 0.  0.
        254    2    1    2    0    0  0.26580479146E+03 -0.39817112945E+03  0.46167235071E+03  0.11197537584E+04  0.90084109843E+03 0.  0.
         23    2    4    4    0    0  0.50877935688E+03 -0.51675269151E+02  0.44997099280E+03  0.68716645296E+03  0.90537684379E+02 0.  0.
         23    2    4    4    0    0 -0.24297456542E+03 -0.34649586030E+03  0.11701357908E+02  0.43258730546E+03  0.88875387073E+02 0.  0.
          3    1    3    3  502    0 -0.12865284987E+03  0.16965944788E+03 -0.46121817226E+02  0.21786029023E+03  0.00000000000E+00 0. -1.
         -3    1    3    3    0  502 -0.13715194159E+03  0.22851168157E+03  0.39138930703E+02  0.26936981938E+03  0.00000000000E+00 0.  1.
         11    1    5    5    0    0  0.47446543242E+03 -0.26086548212E+02  0.42558259489E+03  0.63790163790E+03  0.00000000000E+00 0. -1.
        -11    1    5    5    0    0  0.34313924460E+02 -0.25588720940E+02  0.24388397908E+02  0.49264815068E+02  0.00000000000E+00 0.  1.
          3    1    6    6  503    0 -0.23025647541E+03 -0.32353949100E+03  0.33432262508E+02  0.39851419408E+03  0.00000000000E+00 0. -1.
         -3    1    6    6    0  503 -0.12718090007E+02 -0.22956369298E+02 -0.21730904599E+02  0.34073111385E+02  0.00000000000E+00 0.  1.
<mgrwt>
<rscale>  0 0.15413159E+04</rscale>
<asrwt>0</asrwt>
<pdfrwt beam="1">  1        1 0.88638031E-01 0.15413159E+04</pdfrwt>
<pdfrwt beam="2">  1       -1 0.15859026E+00 0.15413159E+04</pdfrwt>
<totfact> 0.10485803E+01</totfact>
</mgrwt>
</event>
<event>
12    2  0.3561489E-008  0.1495076E+04  0.7818608E-02  0.8887734E-01
          2   -1    0    0  501    0  0.00000000000E+00  0.00000000000E+00  0.39189068992E+04  0.39189068992E+04  0.00000000000E+00 0. -1.
         -2   -1    0    0    0  501 -0.00000000000E+00 -0.00000000000E+00 -0.14259404369E+03  0.14259404369E+03  0.00000000000E+00 0.  1.
         23    2    1    2    0    0 -0.30080529994E+03  0.24028086369E+03  0.19307030408E+04  0.19706785366E+04  0.87982617953E+02 0.  0.
        254    2    1    2    0    0  0.30080529994E+03 -0.24028086369E+03  0.18456098147E+04  0.20908224062E+04  0.90390487575E+03 0.  0.
         23    2    4    4    0    0  0.60046849434E+03 -0.25605742929E+03  0.10940987106E+04  0.12773208749E+04  0.91481195364E+02 0.  0.
         23    2    4    4    0    0 -0.29966319440E+03  0.15776565596E+02  0.75151110412E+03  0.81350153138E+03  0.83479768987E+02 0.  0.
          3    1    3    3  502    0 -0.25390003707E+03  0.16908294451E+03  0.16210510292E+04  0.16495031707E+04  0.00000000000E+00 0. -1.
         -3    1    3    3    0  502 -0.46905262873E+02  0.71197919178E+02  0.30965201159E+03  0.32117536590E+03  0.00000000000E+00 0.  1.
         11    1    5    5    0    0  0.38476855498E+03 -0.13320241499E+03  0.61211870149E+03  0.73517278852E+03  0.00000000000E+00 0.  1.
        -11    1    5    5    0    0  0.21569993935E+03 -0.12285501430E+03  0.48198000908E+03  0.54214808634E+03  0.00000000000E+00 0. -1.
          4    1    6    6  503    0 -0.30733070605E+02 -0.24416929859E+02  0.10730412106E+03  0.11425796466E+03  0.00000000000E+00 0.  1.
         -4    1    6    6    0  503 -0.26893012379E+03  0.40193495455E+02  0.64420698307E+03  0.69924356671E+03  0.00000000000E+00 0. -1.
<mgrwt>
<rscale>  0 0.14950756E+04</rscale>
<asrwt>0</asrwt>
<pdfrwt beam="1">  1        2 0.60290867E+00 0.14950756E+04</pdfrwt>
<pdfrwt beam="2">  1       -2 0.21937548E-01 0.14950756E+04</pdfrwt>
<totfact> 0.71239168E+00</totfact>
</mgrwt>
</event>
<event>
12    2  0.3561489E-008  0.1086080E+04  0.7818608E-02  0.9218867E-01
          1   -1    0    0  501    0  0.00000000000E+00  0.00000000000E+00  0.23784316776E+04  0.23784316776E+04  0.00000000000E+00 0. -1.
         -1   -1    0    0    0  501 -0.00000000000E+00 -0.00000000000E+00 -0.12398602535E+03  0.12398602535E+03  0.00000000000E+00 0.  1.
         23    2    1    2    0    0  0.11655562704E+03 -0.20047706046E+02  0.16043593247E+03  0.22362325502E+03  0.10139303253E+03 0.  0.
        254    2    1    2    0    0 -0.11655562704E+03  0.20047706046E+02  0.20940097197E+04  0.22787944479E+04  0.89108939208E+03 0.  0.
         23    2    4    4    0    0 -0.37120925182E+03 -0.15936216625E+03  0.17780042797E+04  0.18255748346E+04  0.90728437024E+02 0.  0.
         23    2    4    4    0    0  0.25465362478E+03  0.17940987230E+03  0.31600544001E+03  0.45321961330E+03  0.92261632733E+02 0.  0.
          1    1    3    3  502    0  0.61936345310E+01  0.27896915347E+02  0.61611983705E+02  0.67916386319E+02  0.00000000000E+00 0. -1.
         -1    1    3    3    0  502  0.11036199251E+03 -0.47944621393E+02  0.98823948767E+02  0.15570686870E+03  0.00000000000E+00 0.  1.
         11    1    5    5    0    0  0.28229268719E+01  0.45085633003E+01  0.33080012234E+02  0.33504973788E+02  0.00000000000E+00 0. -1.
        -11    1    5    5    0    0 -0.37403217869E+03 -0.16387072956E+03  0.17449242675E+04  0.17920698608E+04  0.00000000000E+00 0.  1.
          1    1    6    6  503    0  0.13599949679E+03  0.10677130378E+03  0.23655421591E+03  0.29300831302E+03  0.00000000000E+00 0. -1.
         -1    1    6    6    0  503  0.11865412799E+03  0.72638568517E+02  0.79451224102E+02  0.16021130028E+03  0.00000000000E+00 0.  1.
<mgrwt>
<rscale>  0 0.10860797E+04</rscale>
<asrwt>0</asrwt>
<pdfrwt beam="1">  1        1 0.36591253E+00 0.10860797E+04</pdfrwt>
<pdfrwt beam="2">  1       -1 0.19074775E-01 0.10860797E+04</pdfrwt>
<totfact> 0.36579988E+01</totfact>
</mgrwt>
</event>
<event>
12    2  0.3561489E-008  0.1581351E+04  0.7818608E-02  0.8832087E-01
          1   -1    0    0  501    0  0.00000000000E+00  0.00000000000E+00  0.10213351627E+04  0.10213351627E+04  0.00000000000E+00 0. -1.
         -1   -1    0    0    0  501 -0.00000000000E+00 -0.00000000000E+00 -0.61210852886E+03  0.61210852886E+03  0.00000000000E+00 0.  1.
         23    2    1    2    0    0 -0.33541620734E+03  0.79178598393E+02 -0.27351439191E+03  0.44959936303E+03  0.92499632798E+02 0.  0.
        254    2    1    2    0    0  0.33541620734E+03 -0.79178598393E+02  0.68274102579E+03  0.11838443286E+04  0.90364749953E+03 0.  0.
         23    2    4    4    0    0  0.86797821614E+02 -0.24154531276E+03 -0.13788265466E+03  0.30584602899E+03  0.93017025540E+02 0.  0.
         23    2    4    4    0    0  0.24861838573E+03  0.16236671437E+03  0.82062368045E+03  0.87799829958E+03  0.96352153596E+02 0.  0.
          1    1    3    3  502    0 -0.64875278069E+02  0.54121824106E+02 -0.76658867532E+02  0.11408135483E+03  0.00000000000E+00 0. -1.
         -1    1    3    3    0  502 -0.27054092927E+03  0.25056774286E+02 -0.19685552438E+03  0.33551800820E+03  0.00000000000E+00 0.  1.
         11    1    5    5    0    0  0.73655506388E+02 -0.11446385626E+03 -0.31784641040E+02  0.13977614753E+03  0.00000000000E+00 0. -1.
        -11    1    5    5    0    0  0.13142315226E+02 -0.12708145649E+03 -0.10609801362E+03  0.16606988146E+03  0.00000000000E+00 0.  1.
          1    1    6    6  503    0  0.18597966436E+03  0.15340348180E+03  0.55788298679E+03  0.60774541605E+03  0.00000000000E+00 0. -1.
         -1    1    6    6    0  503  0.62638721369E+02  0.89632325687E+01  0.26274069366E+03  0.27025288353E+03  0.00000000000E+00 0.  1.
<mgrwt>
<rscale>  0 0.15813513E+04</rscale>
<asrwt>0</asrwt>
<pdfrwt beam="1">  1        1 0.15712849E+00 0.15813513E+04</pdfrwt>
<pdfrwt beam="2">  1       -1 0.94170543E-01 0.15813513E+04</pdfrwt>
<totfact> 0.15286297E+01</totfact>
</mgrwt>
</event>
<event>
12    2  0.3561489E-008  0.1326347E+04  0.7818608E-02  0.9008929E-01
         -2   -1    0    0    0  501 -0.00000000000E+00  0.00000000000E+00  0.16037872955E+03  0.16037872955E+03  0.00000000000E+00 0.  1.
          2   -1    0    0  501    0  0.00000000000E+00 -0.00000000000E+00 -0.27422538896E+04  0.27422538896E+04  0.00000000000E+00 0. -1.
         23    2    1    2    0    0 -0.75429065209E+02  0.25659458819E+03 -0.21646909387E+03  0.35576874890E+03  0.90455555545E+02 0.  0.
        254    2    1    2    0    0  0.75429065209E+02 -0.25659458819E+03 -0.23654060662E+04  0.25468638703E+04  0.90544982693E+03 0.  0.
         23    2    4    4    0    0 -0.86762787960E+02 -0.55237462447E+03 -0.17456472172E+04  0.18352742730E+04  0.91115000281E+02 0.  0.
         23    2    4    4    0    0  0.16219185317E+03  0.29578003628E+03 -0.61975884903E+03  0.71158959724E+03  0.92014655664E+02 0.  0.
          3    1    3    3  502    0 -0.46298393801E+02  0.11295004294E+03 -0.44776052852E+02  0.13002364545E+03  0.00000000000E+00 0. -1.
         -3    1    3    3    0  502 -0.29130671408E+02  0.14364454525E+03 -0.17169304102E+03  0.22574510345E+03  0.00000000000E+00 0.  1.
         11    1    5    5    0    0  0.38258694343E+01 -0.77902168656E+01 -0.81144535978E+02  0.81607355519E+02  0.00000000000E+00 0.  1.
        -11    1    5    5    0    0 -0.90588657394E+02 -0.54458440761E+03 -0.16645026812E+04  0.17536669175E+04  0.00000000000E+00 0. -1.
          1    1    6    6  503    0  0.77660042496E+01  0.78794550825E+02 -0.19216485096E+03  0.20783700826E+03  0.00000000000E+00 0. -1.
         -1    1    6    6    0  503  0.15442584892E+03  0.21698548546E+03 -0.42759399807E+03  0.50375258898E+03  0.00000000000E+00 0.  1.
<mgrwt>
<rscale>  0 0.13263472E+04</rscale>
<asrwt>0</asrwt>
<pdfrwt beam="1">  1        2 0.42188519E+00 0.13263472E+04</pdfrwt>
<pdfrwt beam="2">  1       -2 0.24673652E-01 0.13263472E+04</pdfrwt>
<totfact> 0.36273975E+01</totfact>
</mgrwt>
</event>
<event>
12    2  0.3561489E-008  0.1196039E+04  0.7818608E-02  0.9116330E-01
         -1   -1    0    0    0  501 -0.00000000000E+00  0.00000000000E+00  0.35925350250E+03  0.35925350250E+03  0.00000000000E+00 0.  1.
          1   -1    0    0  501    0  0.00000000000E+00 -0.00000000000E+00 -0.99547396908E+03  0.99547396908E+03  0.00000000000E+00 0. -1.
         23    2    1    2    0    0 -0.19220706795E+03 -0.15834372502E+03 -0.16166445987E+03  0.31021895756E+03  0.89911689025E+02 0.  0.
        254    2    1    2    0    0  0.19220706795E+03  0.15834372502E+03 -0.47455600671E+03  0.10445085140E+04  0.89653685932E+03 0.  0.
         23    2    4    4    0    0  0.39122400501E+03  0.29656490007E+03  0.59061064511E+01  0.49913310165E+03  0.89955594721E+02 0.  0.
         23    2    4    4    0    0 -0.19901693707E+03 -0.13822117505E+03 -0.48046211316E+03  0.54537541236E+03  0.88756204042E+02 0.  0.
          3    1    3    3  502    0 -0.10415104847E+03 -0.68980110306E+02 -0.13110690754E+03  0.18109311892E+03  0.00000000000E+00 0. -1.
         -3    1    3    3    0  502 -0.88056019477E+02 -0.89363614714E+02 -0.30557552333E+02  0.12912583864E+03  0.00000000000E+00 0.  1.
         11    1    5    5    0    0  0.28449869830E+02  0.48707272958E+02  0.19157605471E+02  0.59571867351E+02  0.00000000000E+00 0. -1.
        -11    1    5    5    0    0  0.36277413518E+03  0.24785762711E+03 -0.13251499020E+02  0.43956123430E+03  0.00000000000E+00 0.  1.
          2    1    6    6  503    0 -0.34257509407E+02 -0.69442402483E+02 -0.11507827008E+03  0.13870411839E+03  0.00000000000E+00 0. -1.
         -2    1    6    6    0  503 -0.16475942766E+03 -0.68778772564E+02 -0.36538384308E+03  0.40667129397E+03  0.00000000000E+00 0.  1.
<mgrwt>
<rscale>  0 0.11960393E+04</rscale>
<asrwt>0</asrwt>
<pdfrwt beam="1">  1        1 0.15314984E+00 0.11960393E+04</pdfrwt>
<pdfrwt beam="2">  1       -1 0.55269771E-01 0.11960393E+04</pdfrwt>
<totfact> 0.49974620E+01</totfact>
</mgrwt>
</event>
<event>
12    2  0.3561489E-008  0.4757286E+04  0.7818608E-02  0.7867079E-01
         -2   -1    0    0    0  501 -0.00000000000E+00  0.00000000000E+00  0.11042444818E+04  0.11042444818E+04  0.00000000000E+00 0. -1.
          2   -1    0    0  501    0  0.00000000000E+00 -0.00000000000E+00 -0.51238128640E+04  0.51238128640E+04  0.00000000000E+00 0.  1.
         23    2    1    2    0    0 -0.17289177922E+03  0.18931680424E+04 -0.26147516899E+03  0.19211366211E+04  0.91759733786E+02 0.  0.
        254    2    1    2    0    0  0.17289177922E+03 -0.18931680424E+04 -0.37580932132E+04  0.43069207246E+04  0.90129058859E+03 0.  0.
         23    2    4    4    0    0  0.64820972700E+02  0.15645259564E+02 -0.46516236955E+02  0.13093612197E+03  0.10263515523E+03 0.  0.
         23    2    4    4    0    0  0.10807080653E+03 -0.19088133020E+04 -0.37115769762E+04  0.41759846027E+04  0.88296263128E+02 0.  0.
          3    1    3    3  502    0 -0.96255807632E+02  0.91630770588E+03 -0.17125221087E+03  0.93712982669E+03  0.00000000000E+00 0. -1.
         -3    1    3    3    0  502 -0.76635971593E+02  0.97686033652E+03 -0.90222958126E+02  0.98400679438E+03  0.00000000000E+00 0.  1.
         11    1    5    5    0    0  0.46493751895E+02  0.92684697521E+01 -0.79561049436E+02  0.92614977645E+02  0.00000000000E+00 0.  1.
        -11    1    5    5    0    0  0.18327220805E+02  0.63767898117E+01  0.33044812481E+02  0.38321144328E+02  0.00000000000E+00 0. -1.
          3    1    6    6  503    0  0.59687855434E+02 -0.48843274975E+03 -0.10022722216E+04  0.11165477138E+04  0.00000000000E+00 0. -1.
         -3    1    6    6    0  503  0.48382951091E+02 -0.14203805522E+04 -0.27093047547E+04  0.30594368888E+04  0.00000000000E+00 0.  1.
<mgrwt>
<rscale>  0 0.47572858E+04</rscale>
<asrwt>0</asrwt>
<pdfrwt beam="1">  1        2 0.78827892E+00 0.47572858E+04</pdfrwt>
<pdfrwt beam="2">  1       -2 0.16988376E+00 0.47572858E+04</pdfrwt>
<totfact> 0.36705442E-03</totfact>
</mgrwt>
</event>
<event>
12    2  0.3561489E-008  0.1232691E+04  0.7818608E-02  0.9084714E-01
         -2   -1    0    0    0  501 -0.00000000000E+00  0.00000000000E+00  0.16666106452E+03  0.16666106452E+03  0.00000000000E+00 0.  1.
          2   -1    0    0  501    0  0.00000000000E+00 -0.00000000000E+00 -0.22793659628E+04  0.22793659628E+04  0.00000000000E+00 0. -1.
         23    2    1    2    0    0 -0.23619250563E+02 -0.22070325382E+03 -0.81633225760E+03  0.85150699245E+03  0.96943324427E+02 0.  0.
        254    2    1    2    0    0  0.23619250563E+02  0.22070325382E+03 -0.12963726407E+04  0.15945200349E+04  0.90146787121E+03 0.  0.
         23    2    4    4    0    0  0.28273585174E+03  0.27362467917E+03 -0.12477791885E+04  0.13114536528E+04  0.90264906638E+02 0.  0.
         23    2    4    4    0    0 -0.25911660118E+03 -0.52921425347E+02 -0.48593452216E+02  0.28306638206E+03  0.88448644916E+02 0.  0.
          4    1    3    3  502    0 -0.25678404488E+02 -0.64202649300E+01 -0.12289865231E+03  0.12571666158E+03  0.00000000000E+00 0.  1.
         -4    1    3    3    0  502  0.20591539249E+01 -0.21428298889E+03 -0.69343360529E+03  0.72579033087E+03  0.00000000000E+00 0. -1.
         11    1    5    5    0    0  0.20157298168E+03  0.24314816198E+03 -0.10176978281E+04  0.10655803888E+04  0.00000000000E+00 0.  1.
        -11    1    5    5    0    0  0.81162870068E+02  0.30476517190E+02 -0.23008136037E+03  0.24587326403E+03  0.00000000000E+00 0. -1.
          2    1    6    6  503    0 -0.16158483745E+03 -0.61243553344E+02 -0.63403070085E+02  0.18406624301E+03  0.00000000000E+00 0. -1.
         -2    1    6    6    0  503 -0.97531763730E+02  0.83221279974E+01  0.14809617869E+02  0.99000139051E+02  0.00000000000E+00 0.  1.
<mgrwt>
<rscale>  0 0.12326906E+04</rscale>
<asrwt>0</asrwt>
<pdfrwt beam="1">  1        2 0.35067166E+00 0.12326906E+04</pdfrwt>
<pdfrwt beam="2">  1       -2 0.25640166E-01 0.12326906E+04</pdfrwt>
<totfact> 0.63044481E+01</totfact>
</mgrwt>
</event>
<event>
12    2  0.3561489E-008  0.1947142E+04  0.7818608E-02  0.8631740E-01
          1   -1    0    0  501    0  0.00000000000E+00  0.00000000000E+00  0.11078365763E+04  0.11078365763E+04  0.00000000000E+00 0. -1.
         -1   -1    0    0    0  501 -0.00000000000E+00 -0.00000000000E+00 -0.85557811999E+03  0.85557811999E+03  0.00000000000E+00 0.  1.
         23    2    1    2    0    0 -0.69631405836E+02  0.75921378552E+03  0.16641356416E+03  0.78646515557E+03  0.97876768304E+02 0.  0.
        254    2    1    2    0    0  0.69631405836E+02 -0.75921378552E+03  0.85844892115E+02  0.11769495407E+04  0.89251709844E+03 0.  0.
         23    2    4    4    0    0 -0.10698108257E+01  0.29728399610E+02 -0.28257109928E+03  0.29850512246E+03  0.91509342427E+02 0.  0.
         23    2    4    4    0    0  0.70701216662E+02 -0.78894218513E+03  0.36841599139E+03  0.87844441822E+03  0.92227000756E+02 0.  0.
          4    1    3    3  502    0 -0.88443124192E+02  0.68089308882E+03  0.13360308532E+03  0.69949079267E+03  0.00000000000E+00 0. -1.
         -4    1    3    3    0  502  0.18811718356E+02  0.78320696700E+02  0.32810478841E+02  0.86974362894E+02  0.00000000000E+00 0.  1.
         11    1    5    5    0    0 -0.69079908466E+01  0.23808531217E+02 -0.11537016716E+02  0.27343541303E+02  0.00000000000E+00 0. -1.
        -11    1    5    5    0    0  0.58381800209E+01  0.59198683930E+01 -0.27103408256E+03  0.27116158116E+03  0.00000000000E+00 0.  1.
          3    1    6    6  503    0  0.93022290852E+01 -0.54239241323E+03  0.27022862874E+03  0.60605245085E+03  0.00000000000E+00 0.  1.
         -3    1    6    6    0  503  0.61398987577E+02 -0.24654977191E+03  0.98187362652E+02  0.27239196737E+03  0.00000000000E+00 0. -1.
<mgrwt>
<rscale>  0 0.19471422E+04</rscale>
<asrwt>0</asrwt>
<pdfrwt beam="1">  1        1 0.17043640E+00 0.19471422E+04</pdfrwt>
<pdfrwt beam="2">  1       -1 0.13162740E+00 0.19471422E+04</pdfrwt>
<totfact> 0.57280303E+00</totfact>
</mgrwt>
</event>
<event>
12    2  0.3561489E-008  0.1445917E+04  0.7818608E-02  0.8921236E-01
         -2   -1    0    0    0  501 -0.00000000000E+00  0.00000000000E+00  0.28808139030E+03  0.28808139030E+03  0.00000000000E+00 0.  1.
          2   -1    0    0  501    0  0.00000000000E+00 -0.00000000000E+00 -0.18143090000E+04  0.18143090000E+04  0.00000000000E+00 0. -1.
         23    2    1    2    0    0 -0.27607992309E+02 -0.37400755680E+03 -0.14705832397E+03  0.41342130764E+03  0.92990177838E+02 0.  0.
        254    2    1    2    0    0  0.27607992309E+02  0.37400755680E+03 -0.13791692857E+04  0.16889690826E+04  0.89992488003E+03 0.  0.
         23    2    4    4    0    0  0.46576041336E+02  0.55501788383E+03 -0.13737933153E+04  0.14852124577E+04  0.91289607883E+02 0.  0.
         23    2    4    4    0    0 -0.18968049027E+02 -0.18101032702E+03 -0.53759704527E+01  0.20375662493E+03  0.91451275396E+02 0.  0.
          1    1    3    3  502    0 -0.17508103650E+02 -0.29488394032E+02 -0.39612008905E+02  0.52394754752E+02  0.00000000000E+00 0. -1.
         -1    1    3    3    0  502 -0.10099888659E+02 -0.34451916277E+03 -0.10744631507E+03  0.36102655289E+03  0.00000000000E+00 0.  1.
         11    1    5    5    0    0  0.21917085019E+02  0.28181626590E+03 -0.57691675818E+03  0.64244354788E+03  0.00000000000E+00 0. -1.
        -11    1    5    5    0    0  0.24658956316E+02  0.27320161792E+03 -0.79687655708E+03  0.84276890984E+03  0.00000000000E+00 0.  1.
          2    1    6    6  503    0  0.98735619874E+01 -0.14621474102E+03 -0.33762350945E+02  0.15038661529E+03  0.00000000000E+00 0. -1.
         -2    1    6    6    0  503 -0.28841611014E+02 -0.34795586002E+02  0.28386380492E+02  0.53370009636E+02  0.00000000000E+00 0.  1.
<mgrwt>
<rscale>  0 0.14459165E+04</rscale>
<asrwt>0</asrwt>
<pdfrwt beam="1">  1        2 0.27912446E+00 0.14459165E+04</pdfrwt>
<pdfrwt beam="2">  1       -2 0.44320214E-01 0.14459165E+04</pdfrwt>
<totfact> 0.39681268E+01</totfact>
</mgrwt>
</event>
<event>
12    2  0.3561489E-008  0.1634038E+04  0.7818608E-02  0.8799906E-01
         -2   -1    0    0    0  501 -0.00000000000E+00  0.00000000000E+00  0.13446402807E+04  0.13446402807E+04  0.00000000000E+00 0.  1.
          2   -1    0    0  501    0  0.00000000000E+00 -0.00000000000E+00 -0.49643009453E+03  0.49643009453E+03  0.00000000000E+00 0. -1.
         23    2    1    2    0    0  0.41873088738E+03  0.49590140563E+02  0.73148971071E+03  0.84776605465E+03  0.76389452536E+02 0.  0.
        254    2    1    2    0    0 -0.41873088738E+03 -0.49590140563E+02  0.11672047552E+03  0.99330432063E+03  0.89175953366E+03 0.  0.
         23    2    4    4    0    0  0.13148111438E+03  0.28820056882E+03  0.78869538351E+02  0.33945023314E+03  0.93054851521E+02 0.  0.
         23    2    4    4    0    0 -0.55021200176E+03 -0.33779070938E+03  0.37850937164E+02  0.65385408749E+03  0.96211558884E+02 0.  0.
          1    1    3    3  502    0  0.11636581048E+03 -0.15099312014E+02  0.23905781302E+03  0.26630364068E+03  0.00000000000E+00 0. -1.
         -1    1    3    3    0  502  0.30236507690E+03  0.64689452576E+02  0.49243189768E+03  0.58146241397E+03  0.00000000000E+00 0.  1.
         11    1    5    5    0    0  0.53708912360E+02  0.17650324010E+03  0.85157867311E+02  0.20319917174E+03  0.00000000000E+00 0.  1.
        -11    1    5    5    0    0  0.77772202016E+02  0.11169732872E+03 -0.62883289599E+01  0.13625106139E+03  0.00000000000E+00 0. -1.
          3    1    6    6  503    0 -0.29877716916E+03 -0.22123728309E+03 -0.13431349691E+02  0.37201361990E+03  0.00000000000E+00 0. -1.
         -3    1    6    6    0  503 -0.25143483260E+03 -0.11655342629E+03  0.51282286855E+02  0.28184046759E+03  0.00000000000E+00 0.  1.
<mgrwt>
<rscale>  0 0.16340378E+04</rscale>
<asrwt>0</asrwt>
<pdfrwt beam="1">  1        2 0.76373861E-01 0.16340378E+04</pdfrwt>
<pdfrwt beam="2">  1       -2 0.20686773E+00 0.16340378E+04</pdfrwt>
<totfact> 0.71183801E+00</totfact>
</mgrwt>
</event>
<event>
12    2  0.3561489E-008  0.2750492E+04  0.7818608E-02  0.8318806E-01
          2   -1    0    0  501    0  0.00000000000E+00  0.00000000000E+00  0.35866318289E+04  0.35866318289E+04  0.00000000000E+00 0. -1.
         -2   -1    0    0    0  501 -0.00000000000E+00 -0.00000000000E+00 -0.52731966282E+03  0.52731966282E+03  0.00000000000E+00 0.  1.
         23    2    1    2    0    0  0.34554335133E+03  0.11473459390E+04  0.16695433765E+04  0.20570923540E+04  0.91929077490E+02 0.  0.
        254    2    1    2    0    0 -0.34554335133E+03 -0.11473459390E+04  0.13897687896E+04  0.20568591378E+04  0.92919820953E+03 0.  0.
         23    2    4    4    0    0  0.17436112139E+03 -0.15424521121E+03 -0.22925598874E+02  0.25111541760E+03  0.91323513074E+02 0.  0.
         23    2    4    4    0    0 -0.51990447273E+03 -0.99310072784E+03  0.14126943885E+04  0.18057437202E+04  0.91952331717E+02 0.  0.
          2    1    3    3  502    0  0.34215963938E+03  0.10514054495E+04  0.15429513685E+04  0.18982164164E+04  0.00000000000E+00 0. -1.
         -2    1    3    3    0  502  0.33837119575E+01  0.95940489594E+02  0.12659200795E+03  0.15887593753E+03  0.00000000000E+00 0.  1.
         11    1    5    5    0    0  0.74939429676E+02 -0.95863920694E+02  0.28340471953E+02  0.12493595064E+03  0.00000000000E+00 0. -1.
        -11    1    5    5    0    0  0.99421691715E+02 -0.58381290513E+02 -0.51266070827E+02  0.12617946696E+03  0.00000000000E+00 0.  1.
          2    1    6    6  503    0 -0.12366329199E+03 -0.16329637263E+03  0.24069675419E+03  0.31605892264E+03  0.00000000000E+00 0. -1.
         -2    1    6    6    0  503 -0.39624118074E+03 -0.82980435521E+03  0.11719976343E+04  0.14896847976E+04  0.00000000000E+00 0.  1.
<mgrwt>
<rscale>  0 0.27504919E+04</rscale>
<asrwt>0</asrwt>
<pdfrwt beam="1">  1        2 0.55178950E+00 0.27504919E+04</pdfrwt>
<pdfrwt beam="2">  1       -2 0.81126104E-01 0.27504919E+04</pdfrwt>
<totfact> 0.82609341E-01</totfact>
</mgrwt>
</event>
<event>
12    2  0.3561489E-008  0.1604015E+04  0.7818608E-02  0.8818085E-01
         -2   -1    0    0    0  501 -0.00000000000E+00  0.00000000000E+00  0.13678987827E+04  0.13678987827E+04  0.00000000000E+00 0.  1.
          2   -1    0    0  501    0  0.00000000000E+00 -0.00000000000E+00 -0.47022189679E+03  0.47022189679E+03  0.00000000000E+00 0. -1.
         23    2    1    2    0    0  0.18891809054E+03 -0.36141036852E+03  0.70711150686E+03  0.82100373580E+03  0.87937202915E+02 0.  0.
        254    2    1    2    0    0 -0.18891809054E+03  0.36141036852E+03  0.19056537910E+03  0.10171169437E+04  0.91208783245E+03 0.  0.
         23    2    4    4    0    0 -0.70778866144E+02  0.12537593845E+02  0.50838906072E+03  0.52205829147E+03  0.94438252221E+02 0.  0.
         23    2    4    4    0    0 -0.11813922440E+03  0.34887277468E+03 -0.31782368163E+03  0.49505865226E+03  0.91662900466E+02 0.  0.
          2    1    3    3  502    0  0.10544765022E+02  0.67467717567E-01  0.41781076670E+02  0.43091240281E+02  0.00000000000E+00 0. -1.
         -2    1    3    3    0  502  0.17837332552E+03 -0.36147783624E+03  0.66533043019E+03  0.77791249552E+03  0.00000000000E+00 0.  1.
         11    1    5    5    0    0 -0.66542037289E+02 -0.11721713450E+00  0.15832696578E+03  0.17174191265E+03  0.00000000000E+00 0.  1.
        -11    1    5    5    0    0 -0.42368288556E+01  0.12654810980E+02  0.35006209494E+03  0.35031637882E+03  0.00000000000E+00 0. -1.
          2    1    6    6  503    0 -0.60370080258E+02  0.61723196295E+02 -0.81107132981E+02  0.11845955669E+03  0.00000000000E+00 0. -1.
         -2    1    6    6    0  503 -0.57769144142E+02  0.28714957838E+03 -0.23671654864E+03  0.37659909557E+03  0.00000000000E+00 0.  1.
<mgrwt>
<rscale>  0 0.16040149E+04</rscale>
<asrwt>0</asrwt>
<pdfrwt beam="1">  1        2 0.72341831E-01 0.16040149E+04</pdfrwt>
<pdfrwt beam="2">  1       -2 0.21044597E+00 0.16040149E+04</pdfrwt>
<totfact> 0.72043072E+00</totfact>
</mgrwt>
</event>
<event>
12    2  0.3561489E-008  0.3558451E+04  0.7818608E-02  0.8100076E-01
          2   -1    0    0  501    0  0.00000000000E+00  0.00000000000E+00  0.19916176814E+04  0.19916176814E+04  0.00000000000E+00 0. -1.
         -2   -1    0    0    0  501 -0.00000000000E+00 -0.00000000000E+00 -0.15894833516E+04  0.15894833516E+04  0.00000000000E+00 0.  1.
         23    2    1    2    0    0 -0.11139992969E+04 -0.11090180528E+04 -0.35589982290E+03  0.16141910637E+04  0.89624946548E+02 0.  0.
        254    2    1    2    0    0  0.11139992969E+04  0.11090180528E+04  0.75803415269E+03  0.19669099693E+04  0.90730566832E+03 0.  0.
         23    2    4    4    0    0  0.35243327743E+03 -0.67161458680E+02  0.33783381340E+03  0.50120154720E+03  0.91386152500E+02 0.  0.
         23    2    4    4    0    0  0.76156601951E+03  0.11761795115E+04  0.42020033929E+03  0.14657084221E+04  0.91388228081E+02 0.  0.
          3    1    3    3  502    0 -0.86275428683E+03 -0.85315513709E+03 -0.31275838582E+03  0.12530109558E+04  0.00000000000E+00 0. -1.
         -3    1    3    3    0  502 -0.25124501010E+03 -0.25586291573E+03 -0.43141437085E+02  0.36118010789E+03  0.00000000000E+00 0.  1.
         11    1    5    5    0    0  0.17341331772E+03  0.11396670747E+02  0.17690781271E+03  0.24798878416E+03  0.00000000000E+00 0. -1.
        -11    1    5    5    0    0  0.17901995970E+03 -0.78558129427E+02  0.16092600069E+03  0.25321276305E+03  0.00000000000E+00 0.  1.
          4    1    6    6  503    0  0.47048698460E+03  0.80540739352E+03  0.28469417205E+03  0.97523835231E+03  0.00000000000E+00 0. -1.
         -4    1    6    6    0  503  0.29107903490E+03  0.37077211798E+03  0.13550616724E+03  0.49047006982E+03  0.00000000000E+00 0.  1.
<mgrwt>
<rscale>  0 0.35584509E+04</rscale>
<asrwt>0</asrwt>
<pdfrwt beam="1">  1        2 0.30640272E+00 0.35584509E+04</pdfrwt>
<pdfrwt beam="2">  1       -2 0.24453590E+00 0.35584509E+04</pdfrwt>
<totfact> 0.38355440E-01</totfact>
</mgrwt>
</event>
<event>
12    2  0.3561489E-008  0.2373129E+04  0.7818608E-02  0.8449633E-01
          2   -1    0    0  501    0  0.00000000000E+00  0.00000000000E+00  0.18846100285E+04  0.18846100285E+04  0.00000000000E+00 0. -1.
         -2   -1    0    0    0  501 -0.00000000000E+00 -0.00000000000E+00 -0.74707011034E+03  0.74707011034E+03  0.00000000000E+00 0.  1.
         23    2    1    2    0    0 -0.13169631460E+03 -0.48469787919E+03 -0.49184580196E+03  0.70900236544E+03  0.92174334465E+02 0.  0.
        254    2    1    2    0    0  0.13169631460E+03  0.48469787919E+03  0.16293857201E+04  0.19226777733E+04  0.88854715236E+03 0.  0.
         23    2    4    4    0    0  0.66125909720E+01  0.67420976552E+03  0.76176308397E+03  0.10213506018E+04  0.90947905553E+02 0.  0.
         23    2    4    4    0    0  0.12508372362E+03 -0.18951188633E+03  0.86762263611E+03  0.90132717150E+03  0.89782728917E+02 0.  0.
          4    1    3    3  502    0 -0.23691805510E+02 -0.21088839113E+03 -0.16242898565E+03  0.26724219454E+03  0.00000000000E+00 0. -1.
         -4    1    3    3    0  502 -0.10800450909E+03 -0.27380948806E+03 -0.32941681631E+03  0.44176017091E+03  0.00000000000E+00 0.  1.
         11    1    5    5    0    0  0.42610924001E+02  0.47933882697E+03  0.51457677341E+03  0.70453577454E+03  0.00000000000E+00 0.  1.
        -11    1    5    5    0    0 -0.35998333029E+02  0.19487093855E+03  0.24718631056E+03  0.31681482731E+03  0.00000000000E+00 0. -1.
          1    1    6    6  503    0  0.66268660135E+02 -0.72384291164E+02  0.22493544261E+03  0.24541184622E+03  0.00000000000E+00 0. -1.
         -1    1    6    6    0  503  0.58815063488E+02 -0.11712759517E+03  0.64268719350E+03  0.65591532528E+03  0.00000000000E+00 0.  1.
<mgrwt>
<rscale>  0 0.23731294E+04</rscale>
<asrwt>0</asrwt>
<pdfrwt beam="1">  1        2 0.28994000E+00 0.23731294E+04</pdfrwt>
<pdfrwt beam="2">  1       -2 0.11493386E+00 0.23731294E+04</pdfrwt>
<totfact> 0.41212385E+00</totfact>
</mgrwt>
</event>
<event>
12    2  0.3561489E-008  0.1999684E+04  0.7818608E-02  0.8606768E-01
          2   -1    0    0  501    0  0.00000000000E+00  0.00000000000E+00  0.18125192375E+04  0.18125192375E+04  0.00000000000E+00 0.  1.
         -2   -1    0    0    0  501 -0.00000000000E+00 -0.00000000000E+00 -0.55154401113E+03  0.55154401113E+03  0.00000000000E+00 0. -1.
         23    2    1    2    0    0  0.41353254434E+01  0.62360293298E+03 -0.74793544382E+02  0.63441982318E+03  0.89424374871E+02 0.  0.
        254    2    1    2    0    0 -0.41353254434E+01 -0.62360293298E+03  0.13357687708E+04  0.17296434255E+04  0.90470462105E+03 0.  0.
         23    2    4    4    0    0  0.33509409928E+03  0.34438187579E+02  0.49570925765E+03  0.60629707413E+03  0.91621121171E+02 0.  0.
         23    2    4    4    0    0 -0.33922942472E+03 -0.65804112056E+03  0.84005951312E+03  0.11233463513E+04  0.90068421393E+02 0.  0.
          1    1    3    3  502    0 -0.81515970521E+01  0.59715842693E+03 -0.85609694899E+02  0.60331886698E+03  0.00000000000E+00 0. -1.
         -1    1    3    3    0  502  0.12286922496E+02  0.26444506048E+02  0.10816150516E+02  0.31100956199E+02  0.00000000000E+00 0.  1.
         11    1    5    5    0    0  0.26116915963E+01 -0.12672572497E+01 -0.40499900645E+01  0.49829001047E+01  0.00000000000E+00 0. -1.
        -11    1    5    5    0    0  0.33248240768E+03  0.35705444829E+02  0.49975924771E+03  0.60131417402E+03  0.00000000000E+00 0.  1.
          2    1    6    6  503    0 -0.46186789774E+02 -0.72604295557E+02  0.59687676802E+02  0.10472450547E+03  0.00000000000E+00 0. -1.
         -2    1    6    6    0  503 -0.29304263495E+03 -0.58543682500E+03  0.78037183632E+03  0.10186218459E+04  0.00000000000E+00 0.  1.
<mgrwt>
<rscale>  0 0.19996841E+04</rscale>
<asrwt>0</asrwt>
<pdfrwt beam="1">  1        2 0.27884911E+00 0.19996841E+04</pdfrwt>
<pdfrwt beam="2">  1       -2 0.84852925E-01 0.19996841E+04</pdfrwt>
<totfact> 0.95432740E+00</totfact>
</mgrwt>
</event>
<event>
12    2  0.3561489E-008  0.2057219E+04  0.7818608E-02  0.8580327E-01
         -1   -1    0    0    0  501 -0.00000000000E+00  0.00000000000E+00  0.11691786490E+04  0.11691786490E+04  0.00000000000E+00 0.  1.
          1   -1    0    0  501    0  0.00000000000E+00 -0.00000000000E+00 -0.90494063323E+03  0.90494063323E+03  0.00000000000E+00 0. -1.
         23    2    1    2    0    0 -0.79783981520E+03 -0.15903681872E+03 -0.57049795874E+02  0.82041330220E+03  0.89343308652E+02 0.  0.
        254    2    1    2    0    0  0.79783981520E+03  0.15903681872E+03  0.32128781169E+03  0.12537059801E+04  0.89817133449E+03 0.  0.
         23    2    4    4    0    0 -0.66646007258E+02 -0.89825796248E+01  0.35009470109E+03  0.36797919432E+03  0.91214092702E+02 0.  0.
         23    2    4    4    0    0  0.86448582246E+03  0.16801939835E+03 -0.28806889398E+02  0.88572678575E+03  0.90087994028E+02 0.  0.
          4    1    3    3  502    0 -0.46654767277E+03 -0.76694397743E+02 -0.74271132367E+02  0.47860731578E+03  0.00000000000E+00 0. -1.
         -4    1    3    3    0  502 -0.33129214243E+03 -0.82342420980E+02  0.17221336492E+02  0.34180598643E+03  0.00000000000E+00 0.  1.
         11    1    5    5    0    0  0.19070231649E+02  0.95659834818E+00  0.24045637726E+02  0.30704747340E+02  0.00000000000E+00 0. -1.
        -11    1    5    5    0    0 -0.85716238907E+02 -0.99391779730E+01  0.32604906336E+03  0.33727444699E+03  0.00000000000E+00 0.  1.
          3    1    6    6  503    0  0.18337544919E+03  0.71876367181E+02 -0.17997371808E+02  0.19777935412E+03  0.00000000000E+00 0. -1.
         -3    1    6    6    0  503  0.68111037326E+03  0.96143031167E+02 -0.10809517589E+02  0.68794743162E+03  0.00000000000E+00 0.  1.
<mgrwt>
<rscale>  0 0.20572188E+04</rscale>
<asrwt>0</asrwt>
<pdfrwt beam="1">  1        1 0.13922164E+00 0.20572188E+04</pdfrwt>
<pdfrwt beam="2">  1       -1 0.17987364E+00 0.20572188E+04</pdfrwt>
<totfact> 0.34703522E+00</totfact>
</mgrwt>
</event>
<event>
12    2  0.3561489E-008  0.2453864E+04  0.7818608E-02  0.8419609E-01
         -1   -1    0    0    0  501 -0.00000000000E+00  0.00000000000E+00  0.53531167349E+03  0.53531167349E+03  0.00000000000E+00 0.  1.
          1   -1    0    0  501    0  0.00000000000E+00 -0.00000000000E+00 -0.28121220537E+04  0.28121220537E+04  0.00000000000E+00 0. -1.
         23    2    1    2    0    0  0.38043422008E+03  0.86021547673E+03 -0.16678865425E+04  0.19170304308E+04  0.91974408263E+02 0.  0.
        254    2    1    2    0    0 -0.38043422008E+03 -0.86021547673E+03 -0.60892383775E+03  0.14304032964E+04  0.88913693436E+03 0.  0.
         23    2    4    4    0    0 -0.63165964885E+03 -0.60244892873E+03 -0.24697733694E+03  0.91186845522E+03  0.92561606193E+02 0.  0.
         23    2    4    4    0    0  0.25122542877E+03 -0.25776654800E+03 -0.36194650081E+03  0.51853484121E+03  0.91188282001E+02 0.  0.
          3    1    3    3  502    0  0.14976377109E+03  0.30809565124E+03 -0.69543952359E+03  0.77523431839E+03  0.00000000000E+00 0. -1.
         -3    1    3    3    0  502  0.23067044898E+03  0.55211982549E+03 -0.97244701891E+03  0.11417961124E+04  0.00000000000E+00 0.  1.
         11    1    5    5    0    0 -0.40213478835E+02 -0.30945475925E+02 -0.37686952543E+02  0.63206429675E+02  0.00000000000E+00 0. -1.
        -11    1    5    5    0    0 -0.59144617002E+03 -0.57150345280E+03 -0.20929038440E+03  0.84866202554E+03  0.00000000000E+00 0.  1.
          4    1    6    6  503    0  0.23632294909E+03 -0.19416498845E+03 -0.30341941575E+03  0.43082701965E+03  0.00000000000E+00 0.  1.
         -4    1    6    6    0  503  0.14902479679E+02 -0.63601559544E+02 -0.58527085058E+02  0.87707821557E+02  0.00000000000E+00 0. -1.
<mgrwt>
<rscale>  0 0.24538637E+04</rscale>
<asrwt>0</asrwt>
<pdfrwt beam="1">  1        1 0.43263416E+00 0.24538637E+04</pdfrwt>
<pdfrwt beam="2">  1       -1 0.82355643E-01 0.24538637E+04</pdfrwt>
<totfact> 0.10680492E+00</totfact>
</mgrwt>
</event>
<event>
12    2  0.3561489E-008  0.1567058E+04  0.7818608E-02  0.8841045E-01
         -2   -1    0    0    0  501 -0.00000000000E+00  0.00000000000E+00  0.46401606167E+03  0.46401606167E+03  0.00000000000E+00 0.  1.
          2   -1    0    0  501    0  0.00000000000E+00 -0.00000000000E+00 -0.13230528962E+04  0.13230528962E+04  0.00000000000E+00 0. -1.
         23    2    1    2    0    0 -0.36296494154E+03  0.20483890290E+02  0.13203327947E+03  0.39826110962E+03  0.94952546080E+02 0.  0.
        254    2    1    2    0    0  0.36296494154E+03 -0.20483890290E+02 -0.99107011403E+03  0.13888078483E+04  0.90244342203E+03 0.  0.
         23    2    4    4    0    0 -0.27650931114E+03 -0.80158681746E+02 -0.46355506622E+03  0.55310698332E+03  0.90339482935E+02 0.  0.
         23    2    4    4    0    0  0.63947425268E+03  0.59674791456E+02 -0.52751504781E+03  0.83570086495E+03  0.87380829949E+02 0.  0.
          4    1    3    3  502    0 -0.75034461876E+02 -0.98237123583E+01 -0.90146220457E+01  0.76209836662E+02  0.00000000000E+00 0. -1.
         -4    1    3    3    0  502 -0.28793047966E+03  0.30307602648E+02  0.14104790151E+03  0.32205127296E+03  0.00000000000E+00 0.  1.
         11    1    5    5    0    0 -0.98358525906E+02 -0.74602068590E+02 -0.19453772399E+03  0.23040137654E+03  0.00000000000E+00 0. -1.
        -11    1    5    5    0    0 -0.17815078523E+03 -0.55566131557E+01 -0.26901734223E+03  0.32270560679E+03  0.00000000000E+00 0.  1.
          1    1    6    6  503    0  0.30887689500E+03  0.40823089635E+02 -0.20170325575E+03  0.37115450192E+03  0.00000000000E+00 0. -1.
         -1    1    6    6    0  503  0.33059735767E+03  0.18851701821E+02 -0.32581179206E+03  0.46454636303E+03  0.00000000000E+00 0.  1.
<mgrwt>
<rscale>  0 0.15670581E+04</rscale>
<asrwt>0</asrwt>
<pdfrwt beam="1">  1        2 0.20354660E+00 0.15670581E+04</pdfrwt>
<pdfrwt beam="2">  1       -2 0.71387087E-01 0.15670581E+04</pdfrwt>
<totfact> 0.27438023E+01</totfact>
</mgrwt>
</event>
<event>
12    2  0.3561489E-008  0.1857693E+04  0.7818608E-02  0.8676207E-01
         -2   -1    0    0    0  501 -0.00000000000E+00  0.00000000000E+00  0.65031338985E+03  0.65031338985E+03  0.00000000000E+00 0.  1.
          2   -1    0    0  501    0  0.00000000000E+00 -0.00000000000E+00 -0.13266771731E+04  0.13266771731E+04  0.00000000000E+00 0. -1.
         23    2    1    2    0    0  0.27307593011E+03  0.57201732128E+03  0.73427227805E+02  0.64409759291E+03  0.87726119042E+02 0.  0.
        254    2    1    2    0    0 -0.27307593011E+03 -0.57201732128E+03 -0.74979101103E+03  0.13328929700E+04  0.90146704312E+03 0.  0.
         23    2    4    4    0    0 -0.30871203184E+03  0.16004588938E+03 -0.29870729918E+03  0.46749125466E+03  0.91674518221E+02 0.  0.
         23    2    4    4    0    0  0.35636101726E+02 -0.73206321066E+03 -0.45108371185E+03  0.86540171535E+03  0.90868793826E+02 0.  0.
          2    1    3    3  502    0  0.46572735561E+02  0.80155834543E+02 -0.19342398694E+02  0.94700083929E+02  0.00000000000E+00 0.  1.
         -2    1    3    3    0  502  0.22650319455E+03  0.49186148674E+03  0.92769626500E+02  0.54939750898E+03  0.00000000000E+00 0. -1.
         11    1    5    5    0    0 -0.25841815697E+03  0.14024531108E+03 -0.20206868993E+03  0.35676385268E+03  0.00000000000E+00 0.  1.
        -11    1    5    5    0    0 -0.50293874867E+02  0.19800578299E+02 -0.96638609254E+02  0.11072740198E+03  0.00000000000E+00 0. -1.
          1    1    6    6  503    0 -0.28230097652E+02 -0.13130201736E+03 -0.76787657223E+02  0.15470456515E+03  0.00000000000E+00 0. -1.
         -1    1    6    6    0  503  0.63866199378E+02 -0.60076119329E+03 -0.37429605463E+03  0.71069715020E+03  0.00000000000E+00 0.  1.
<mgrwt>
<rscale>  0 0.18576931E+04</rscale>
<asrwt>0</asrwt>
<pdfrwt beam="1">  1        2 0.20410418E+00 0.18576931E+04</pdfrwt>
<pdfrwt beam="2">  1       -2 0.10004822E+00 0.18576931E+04</pdfrwt>
<totfact> 0.12369100E+01</totfact>
</mgrwt>
</event>
<event>
12    2  0.3561489E-008  0.1348681E+04  0.7818608E-02  0.8991827E-01
         -2   -1    0    0    0  501 -0.00000000000E+00  0.00000000000E+00  0.52962895014E+03  0.52962895014E+03  0.00000000000E+00 0.  1.
          2   -1    0    0  501    0  0.00000000000E+00 -0.00000000000E+00 -0.85859246764E+03  0.85859246764E+03  0.00000000000E+00 0. -1.
         23    2    1    2    0    0 -0.23289865649E+03 -0.66759936789E+02  0.20232089032E+03  0.32865810926E+03  0.91562747678E+02 0.  0.
        254    2    1    2    0    0  0.23289865649E+03  0.66759936789E+02 -0.53128440783E+03  0.10595633085E+04  0.88414512916E+03 0.  0.
         23    2    4    4    0    0  0.25004898205E+03 -0.37801186249E+03 -0.27082657494E+03  0.53570277137E+03  0.90625404566E+02 0.  0.
         23    2    4    4    0    0 -0.17150325558E+02  0.44477179928E+03 -0.26045783289E+03  0.52386053715E+03  0.92062438457E+02 0.  0.
          2    1    3    3  502    0 -0.84116123546E+01  0.57342918618E+01  0.42531006246E+02  0.43732411526E+02  0.00000000000E+00 0. -1.
         -2    1    3    3    0  502 -0.22448704414E+03 -0.72494228651E+02  0.15978988408E+03  0.28492569773E+03  0.00000000000E+00 0.  1.
         11    1    5    5    0    0 -0.68151279042E+01 -0.51325039548E+01 -0.94462130521E+00  0.85837564392E+01  0.00000000000E+00 0.  1.
        -11    1    5    5    0    0  0.25686410996E+03 -0.37287935853E+03 -0.26988195363E+03  0.52711901493E+03  0.00000000000E+00 0. -1.
          2    1    6    6  503    0  0.26194237937E+02  0.32107523852E+03 -0.20285110812E+03  0.38068887422E+03  0.00000000000E+00 0. -1.
         -2    1    6    6    0  503 -0.43344563495E+02  0.12369656076E+03 -0.57606724770E+02  0.14317166293E+03  0.00000000000E+00 0.  1.
<mgrwt>
<rscale>  0 0.13486815E+04</rscale>
<asrwt>0</asrwt>
<pdfrwt beam="1">  1        2 0.13209115E+00 0.13486815E+04</pdfrwt>
<pdfrwt beam="2">  1       -2 0.81481378E-01 0.13486815E+04</pdfrwt>
<totfact> 0.40571434E+01</totfact>
</mgrwt>
</event>
<event>
12    2  0.3561489E-008  0.2231872E+04  0.7818608E-02  0.8505278E-01
          2   -1    0    0  501    0  0.00000000000E+00  0.00000000000E+00  0.10782457864E+04  0.10782457864E+04  0.00000000000E+00 0. -1.
         -2   -1    0    0    0  501 -0.00000000000E+00 -0.00000000000E+00 -0.11549441855E+04  0.11549441855E+04  0.00000000000E+00 0.  1.
         23    2    1    2    0    0 -0.33047577268E+03 -0.48393626212E+03 -0.76976005383E+03  0.97127664903E+03  0.86251065819E+02 0.  0.
        254    2    1    2    0    0  0.33047577268E+03  0.48393626212E+03  0.69306165473E+03  0.12619133229E+04  0.87674525100E+03 0.  0.
         23    2    4    4    0    0 -0.19551242010E+03  0.47350599135E+03  0.36414318796E+03  0.63489929618E+03  0.89798801197E+02 0.  0.
         23    2    4    4    0    0  0.52598819278E+03  0.10430270769E+02  0.32891846678E+03  0.62701402673E+03  0.90481282253E+02 0.  0.
          4    1    3    3  502    0 -0.22419788323E+03 -0.37803126748E+03 -0.61305374843E+03  0.75432567801E+03  0.00000000000E+00 0.  1.
         -4    1    3    3    0  502 -0.10627788944E+03 -0.10590499463E+03 -0.15670630540E+03  0.21695097102E+03  0.00000000000E+00 0. -1.
         11    1    5    5    0    0 -0.19762904716E+03  0.42023662235E+03  0.30667960447E+03  0.55651454504E+03  0.00000000000E+00 0.  1.
        -11    1    5    5    0    0  0.21166270587E+01  0.53269369004E+02  0.57463583490E+02  0.78384751142E+02  0.00000000000E+00 0. -1.
          2    1    6    6  503    0  0.39955466287E+02  0.25755121053E+02  0.28562236360E+02  0.55457793794E+02  0.00000000000E+00 0. -1.
         -2    1    6    6    0  503  0.48603272649E+03 -0.15324850283E+02  0.30035623042E+03  0.57155623294E+03  0.00000000000E+00 0.  1.
<mgrwt>
<rscale>  0 0.22318725E+04</rscale>
<asrwt>0</asrwt>
<pdfrwt beam="1">  1        2 0.16588397E+00 0.22318725E+04</pdfrwt>
<pdfrwt beam="2">  1       -2 0.17768372E+00 0.22318725E+04</pdfrwt>
<totfact> 0.38548272E+00</totfact>
</mgrwt>
</event>
<event>
12    2  0.3561489E-008  0.2115398E+04  0.7818608E-02  0.8554491E-01
          2   -1    0    0  501    0  0.00000000000E+00  0.00000000000E+00  0.78512030636E+03  0.78512030636E+03  0.00000000000E+00 0.  1.
         -2   -1    0    0    0  501 -0.00000000000E+00 -0.00000000000E+00 -0.14249120314E+04  0.14249120314E+04  0.00000000000E+00 0. -1.
         23    2    1    2    0    0  0.41911809490E+03 -0.66290558917E+03  0.12355194874E+03  0.79919712702E+03  0.91362827086E+02 0.  0.
        254    2    1    2    0    0 -0.41911809490E+03  0.66290558917E+03 -0.76334367383E+03  0.14108352108E+04  0.89031378177E+03 0.  0.
         23    2    4    4    0    0 -0.35798524763E+03  0.10483814228E+03  0.81344482468E+02  0.39237701637E+03  0.90544599788E+02 0.  0.
         23    2    4    4    0    0 -0.61132847267E+02  0.55806744689E+03 -0.84468815630E+03  0.10184581944E+04  0.92641848501E+02 0.  0.
          2    1    3    3  502    0  0.23060471521E+03 -0.36336430371E+03  0.21702145564E+02  0.43090965992E+03  0.00000000000E+00 0. -1.
         -2    1    3    3    0  502  0.18851337968E+03 -0.29954128546E+03  0.10184980318E+03  0.36828746710E+03  0.00000000000E+00 0.  1.
         11    1    5    5    0    0 -0.10123950162E+03 -0.11034413108E+02  0.14432546666E+02  0.10285666417E+03  0.00000000000E+00 0. -1.
        -11    1    5    5    0    0 -0.25674574601E+03  0.11587255538E+03  0.66911935803E+02  0.28952035220E+03  0.00000000000E+00 0.  1.
          4    1    6    6  503    0 -0.18503145766E+02  0.43351482425E+03 -0.59795571109E+03  0.73880207206E+03  0.00000000000E+00 0. -1.
         -4    1    6    6    0  503 -0.42629701501E+02  0.12455262264E+03 -0.24673244521E+03  0.27965612236E+03  0.00000000000E+00 0.  1.
<mgrwt>
<rscale>  0 0.21153982E+04</rscale>
<asrwt>0</asrwt>
<pdfrwt beam="1">  1        2 0.12078774E+00 0.21153982E+04</pdfrwt>
<pdfrwt beam="2">  1       -2 0.21921723E+00 0.21153982E+04</pdfrwt>
<totfact> 0.32481165E+00</totfact>
</mgrwt>
</event>
<event>
12    2  0.3561489E-008  0.1720643E+04  0.7818608E-02  0.8749678E-01
          2   -1    0    0  501    0  0.00000000000E+00  0.00000000000E+00  0.15489711575E+04  0.15489711575E+04  0.00000000000E+00 0. -1.
         -2   -1    0    0    0  501 -0.00000000000E+00 -0.00000000000E+00 -0.47783509419E+03  0.47783509419E+03  0.00000000000E+00 0.  1.
         23    2    1    2    0    0 -0.19401352196E+03 -0.52742189405E+03  0.86675164554E+02  0.57603131189E+03  0.92110732853E+02 0.  0.
        254    2    1    2    0    0  0.19401352196E+03  0.52742189405E+03  0.98446089872E+03  0.14507749398E+04  0.90541126772E+03 0.  0.
         23    2    4    4    0    0  0.46750927487E+03  0.27161054094E+03  0.21232287929E+03  0.58773023850E+03  0.89490894168E+02 0.  0.
         23    2    4    4    0    0 -0.27349575291E+03  0.25581135311E+03  0.77213801943E+03  0.86304470126E+03  0.91704198904E+02 0.  0.
          4    1    3    3  502    0 -0.72695753795E+01 -0.68181101278E+02 -0.14429264572E+02  0.70069344037E+02  0.00000000000E+00 0. -1.
         -4    1    3    3    0  502 -0.18674394658E+03 -0.45924079277E+03  0.10110442913E+03  0.50596196786E+03  0.00000000000E+00 0.  1.
         11    1    5    5    0    0  0.46860029962E+03  0.26455754939E+03  0.20118471885E+03  0.57450172223E+03  0.00000000000E+00 0. -1.
        -11    1    5    5    0    0 -0.10910247527E+01  0.70529915539E+01  0.11138160435E+02  0.13228516272E+02  0.00000000000E+00 0.  1.
          4    1    6    6  503    0 -0.26219041226E+03  0.23046170205E+03  0.75096931081E+03  0.82813725563E+03  0.00000000000E+00 0. -1.
         -4    1    6    6    0  503 -0.11305340650E+02  0.25349651056E+02  0.21168708621E+02  0.34907445632E+02  0.00000000000E+00 0.  1.
<mgrwt>
<rscale>  0 0.17206426E+04</rscale>
<asrwt>0</asrwt>
<pdfrwt beam="1">  1        2 0.23830325E+00 0.17206426E+04</pdfrwt>
<pdfrwt beam="2">  1       -2 0.73513092E-01 0.17206426E+04</pdfrwt>
<totfact> 0.18888548E+01</totfact>
</mgrwt>
</event>
<event>
12    2  0.3561489E-008  0.1698817E+04  0.7818608E-02  0.8762039E-01
         -1   -1    0    0    0  501 -0.00000000000E+00  0.00000000000E+00  0.83625267845E+03  0.83625267845E+03  0.00000000000E+00 0.  1.
          1   -1    0    0  501    0  0.00000000000E+00 -0.00000000000E+00 -0.86277109028E+03  0.86277109028E+03  0.00000000000E+00 0. -1.
         23    2    1    2    0    0  0.35328978658E+03  0.44767156201E+03  0.12791961948E+03  0.59038807320E+03  0.83493396078E+02 0.  0.
        254    2    1    2    0    0 -0.35328978658E+03 -0.44767156201E+03 -0.15443803130E+03  0.11086356955E+04  0.93808235201E+03 0.  0.
         23    2    4    4    0    0 -0.16135958696E+03 -0.71419850490E+03 -0.20064136474E+03  0.76468735883E+03  0.91506168096E+02 0.  0.
         23    2    4    4    0    0 -0.19193019962E+03  0.26652694289E+03  0.46203333437E+02  0.34394833670E+03  0.91059856605E+02 0.  0.
          4    1    3    3  502    0  0.16505002796E+03  0.22568209354E+03  0.10414660960E+03  0.29836292559E+03  0.00000000000E+00 0. -1.
         -4    1    3    3    0  502  0.18823975862E+03  0.22198946847E+03  0.23773009884E+02  0.29202514761E+03  0.00000000000E+00 0.  1.
         11    1    5    5    0    0 -0.63660499579E+02 -0.42550841354E+03 -0.84070684103E+02  0.43838105471E+03  0.00000000000E+00 0. -1.
        -11    1    5    5    0    0 -0.97699087380E+02 -0.28869009136E+03 -0.11657068064E+03  0.32630630412E+03  0.00000000000E+00 0.  1.
          1    1    6    6  503    0 -0.16416927810E+03  0.18780681844E+03  0.19097981606E+01  0.24945260122E+03  0.00000000000E+00 0. -1.
         -1    1    6    6    0  503 -0.27760921520E+02  0.78720124454E+02  0.44293535277E+02  0.94495735486E+02  0.00000000000E+00 0.  1.
<mgrwt>
<rscale>  0 0.16988168E+04</rscale>
<asrwt>0</asrwt>
<pdfrwt beam="1">  1        1 0.13273401E+00 0.16988168E+04</pdfrwt>
<pdfrwt beam="2">  1       -1 0.12865426E+00 0.16988168E+04</pdfrwt>
<totfact> 0.96829986E+00</totfact>
</mgrwt>
</event>
<event>
12    2  0.3561489E-008  0.1622850E+04  0.7818608E-02  0.8806632E-01
          2   -1    0    0  501    0  0.00000000000E+00  0.00000000000E+00  0.32862253339E+04  0.32862253339E+04  0.00000000000E+00 0. -1.
         -2   -1    0    0    0  501 -0.00000000000E+00 -0.00000000000E+00 -0.20035464717E+03  0.20035464717E+03  0.00000000000E+00 0.  1.
         23    2    1    2    0    0 -0.13297377649E+03 -0.24931161006E+03  0.40163615431E+02  0.29988421659E+03  0.92082154665E+02 0.  0.
        254    2    1    2    0    0  0.13297377649E+03  0.24931161006E+03  0.30457070713E+04  0.31866957645E+04  0.89378969954E+03 0.  0.
         23    2    4    4    0    0  0.19558701143E+03  0.56290091219E+03  0.18593645386E+04  0.19545850480E+04  0.89746901362E+02 0.  0.
         23    2    4    4    0    0 -0.62613234934E+02 -0.31358930213E+03  0.11863425327E+04  0.12321107165E+04  0.91812555069E+02 0.  0.
          4    1    3    3  502    0 -0.85370967242E+01 -0.35707845121E+02  0.37759471439E+02  0.52666022320E+02  0.00000000000E+00 0. -1.
         -4    1    3    3    0  502 -0.12443667977E+03 -0.21360376494E+03  0.24041439923E+01  0.24721819427E+03  0.00000000000E+00 0.  1.
         11    1    5    5    0    0  0.49055478203E+02  0.27705990599E+03  0.85536003566E+03  0.90044956663E+03  0.00000000000E+00 0.  1.
        -11    1    5    5    0    0  0.14653153322E+03  0.28584100620E+03  0.10040045029E+04  0.10541354813E+04  0.00000000000E+00 0. -1.
          2    1    6    6  503    0 -0.13472486868E+02 -0.21538662581E+02  0.34748894636E+02  0.43045412841E+02  0.00000000000E+00 0. -1.
         -2    1    6    6    0  503 -0.49140748066E+02 -0.29205063955E+03  0.11515936381E+04  0.11890653037E+04  0.00000000000E+00 0.  1.
<mgrwt>
<rscale>  0 0.16228500E+04</rscale>
<asrwt>0</asrwt>
<pdfrwt beam="1">  1        2 0.50557309E+00 0.16228500E+04</pdfrwt>
<pdfrwt beam="2">  1       -2 0.30823794E-01 0.16228500E+04</pdfrwt>
<totfact> 0.10707988E+01</totfact>
</mgrwt>
</event>
<event>
12    2  0.3561489E-008  0.1799141E+04  0.7818608E-02  0.8706756E-01
          1   -1    0    0  501    0  0.00000000000E+00  0.00000000000E+00  0.15654917418E+04  0.15654917418E+04  0.00000000000E+00 0. -1.
         -1   -1    0    0    0  501 -0.00000000000E+00 -0.00000000000E+00 -0.51691556403E+03  0.51691556403E+03  0.00000000000E+00 0.  1.
         23    2    1    2    0    0  0.11363506038E+03 -0.54352489359E+03 -0.44989656008E+02  0.56460343250E+03  0.91764535301E+02 0.  0.
        254    2    1    2    0    0 -0.11363506038E+03  0.54352489359E+03  0.10935658338E+04  0.15178038734E+04  0.89415330242E+03 0.  0.
         23    2    4    4    0    0  0.38056314815E+02 -0.23394839802E+03  0.23336547717E+03  0.34484212052E+03  0.90975304961E+02 0.  0.
         23    2    4    4    0    0 -0.15169137519E+03  0.77747329162E+03  0.86020035665E+03  0.11729617529E+04  0.91758528751E+02 0.  0.
          3    1    3    3  502    0  0.10678691672E+03 -0.33755358669E+03 -0.18274495922E+01  0.35404690232E+03  0.00000000000E+00 0. -1.
         -3    1    3    3    0  502  0.68481436600E+01 -0.20597130690E+03 -0.43162206415E+02  0.21055653018E+03  0.00000000000E+00 0.  1.
         11    1    5    5    0    0  0.24358599195E+02 -0.23494387065E+03  0.20274841025E+03  0.31128585187E+03  0.00000000000E+00 0.  1.
        -11    1    5    5    0    0  0.13697715620E+02  0.99547263268E+00  0.30617066917E+02  0.33556268648E+02  0.00000000000E+00 0. -1.
          4    1    6    6  503    0 -0.36168592743E+02  0.24698294414E+03  0.21257122943E+03  0.32786471200E+03  0.00000000000E+00 0. -1.
         -4    1    6    6    0  503 -0.11552278245E+03  0.53049034748E+03  0.64762912723E+03  0.84509704085E+03  0.00000000000E+00 0.  1.
<mgrwt>
<rscale>  0 0.17991410E+04</rscale>
<asrwt>0</asrwt>
<pdfrwt beam="1">  1        1 0.24084488E+00 0.17991410E+04</pdfrwt>
<pdfrwt beam="2">  1       -1 0.79525472E-01 0.17991410E+04</pdfrwt>
<totfact> 0.87860936E+00</totfact>
</mgrwt>
</event>
<event>
12    2  0.3561489E-008  0.1092300E+04  0.7818608E-02  0.9212729E-01
          2   -1    0    0  501    0  0.00000000000E+00  0.00000000000E+00  0.16142074087E+04  0.16142074087E+04  0.00000000000E+00 0. -1.
         -2   -1    0    0    0  501 -0.00000000000E+00 -0.00000000000E+00 -0.18478413729E+03  0.18478413729E+03  0.00000000000E+00 0.  1.
         23    2    1    2    0    0 -0.48818820618E+02  0.73821362271E+02  0.45312280134E+03  0.47004413853E+03  0.88251619278E+02 0.  0.
        254    2    1    2    0    0  0.48818820618E+02 -0.73821362271E+02  0.97630047011E+03  0.13289474075E+04  0.89727684312E+03 0.  0.
         23    2    4    4    0    0  0.90306809387E+02 -0.27530056311E+03 -0.22683386743E+02  0.30482644144E+03  0.91972297416E+02 0.  0.
         23    2    4    4    0    0 -0.41487988769E+02  0.20147920084E+03  0.99898385685E+03  0.10241209661E+04  0.92411499805E+02 0.  0.
          1    1    3    3  502    0 -0.23058931227E+02  0.90474923911E+02  0.31441371764E+03  0.32798385937E+03  0.00000000000E+00 0. -1.
         -1    1    3    3    0  502 -0.25759889391E+02 -0.16653561640E+02  0.13870908370E+03  0.14206027917E+03  0.00000000000E+00 0.  1.
         11    1    5    5    0    0 -0.63885708078E+01 -0.32701679806E+02  0.21922738934E+02  0.39885087206E+02  0.00000000000E+00 0. -1.
        -11    1    5    5    0    0  0.96695380195E+02 -0.24259888331E+03 -0.44606125677E+02  0.26494135423E+03  0.00000000000E+00 0.  1.
          2    1    6    6  503    0 -0.73083825967E+01  0.70935613977E+01  0.62324438161E+01  0.11940453316E+02  0.00000000000E+00 0. -1.
         -2    1    6    6    0  503 -0.34179606173E+02  0.19438563944E+03  0.99275141304E+03  0.10121805127E+04  0.00000000000E+00 0.  1.
<mgrwt>
<rscale>  0 0.10923002E+04</rscale>
<asrwt>0</asrwt>
<pdfrwt beam="1">  1        2 0.24833959E+00 0.10923002E+04</pdfrwt>
<pdfrwt beam="2">  1       -2 0.28428330E-01 0.10923002E+04</pdfrwt>
<totfact> 0.12322350E+02</totfact>
</mgrwt>
</event>
<event>
12    2  0.3561489E-008  0.1258960E+04  0.7818608E-02  0.9062758E-01
         -2   -1    0    0    0  501 -0.00000000000E+00  0.00000000000E+00  0.11189162468E+03  0.11189162468E+03  0.00000000000E+00 0.  1.
          2   -1    0    0  501    0  0.00000000000E+00 -0.00000000000E+00 -0.35413304063E+04  0.35413304063E+04  0.00000000000E+00 0. -1.
         23    2    1    2    0    0  0.17369557489E+03  0.16765838798E+03 -0.36973561516E+03  0.45487624101E+03  0.10921758888E+03 0.  0.
        254    2    1    2    0    0 -0.17369557489E+03 -0.16765838798E+03 -0.30597031664E+04  0.31983457899E+04  0.89964039348E+03 0.  0.
         23    2    4    4    0    0 -0.34420739513E+03  0.14535889649E+03 -0.61135548292E+03  0.72245995006E+03  0.92654807164E+02 0.  0.
         23    2    4    4    0    0  0.17051182024E+03 -0.31301728447E+03 -0.24483476835E+04  0.24758858399E+04  0.92467354019E+02 0.  0.
          3    1    3    3  502    0  0.56723385166E+02  0.12917615279E+03 -0.18032823831E+03  0.22895915445E+03  0.00000000000E+00 0. -1.
         -3    1    3    3    0  502  0.11697218972E+03  0.38482235186E+02 -0.18940737685E+03  0.22591708656E+03  0.00000000000E+00 0.  1.
         11    1    5    5    0    0 -0.32005346532E+03  0.10353675061E+03 -0.52515870762E+03  0.62365515117E+03  0.00000000000E+00 0. -1.
        -11    1    5    5    0    0 -0.24153929812E+02  0.41822145885E+02 -0.86196775302E+02  0.98804798893E+02  0.00000000000E+00 0.  1.
          3    1    6    6  503    0  0.17970870078E+03 -0.30954615771E+03 -0.24005669263E+04  0.24271043670E+04  0.00000000000E+00 0. -1.
         -3    1    6    6    0  503 -0.91968805318E+01 -0.34711267567E+01 -0.47780757229E+02  0.48781472855E+02  0.00000000000E+00 0.  1.
<mgrwt>
<rscale>  0 0.12589602E+04</rscale>
<asrwt>0</asrwt>
<pdfrwt beam="1">  1        2 0.54481997E+00 0.12589602E+04</pdfrwt>
<pdfrwt beam="2">  1       -2 0.17214099E-01 0.12589602E+04</pdfrwt>
<totfact> 0.21236458E+01</totfact>
</mgrwt>
</event>
<event>
12    2  0.3561489E-008  0.1597320E+04  0.7818608E-02  0.8822196E-01
         -1   -1    0    0    0  501 -0.00000000000E+00  0.00000000000E+00  0.32696861392E+03  0.32696861392E+03  0.00000000000E+00 0.  1.
          1   -1    0    0  501    0  0.00000000000E+00 -0.00000000000E+00 -0.19508231456E+04  0.19508231456E+04  0.00000000000E+00 0. -1.
         23    2    1    2    0    0  0.54175702894E+03  0.46196253870E+01 -0.54314691272E+03  0.77351692088E+03  0.98984032718E+02 0.  0.
        254    2    1    2    0    0 -0.54175702894E+03 -0.46196253870E+01 -0.10807076189E+04  0.15042748386E+04  0.89520490010E+03 0.  0.
         23    2    4    4    0    0 -0.57753030304E+03 -0.49013197487E+02 -0.20432492822E+03  0.62136755347E+03  0.91681054566E+02 0.  0.
         23    2    4    4    0    0  0.35773274094E+02  0.44393572100E+02 -0.87638269073E+03  0.88290728516E+03  0.90709080030E+02 0.  0.
          3    1    3    3  502    0  0.32722449518E+02  0.13274200777E+02 -0.70422114882E+02  0.78779676143E+02  0.00000000000E+00 0. -1.
         -3    1    3    3    0  502  0.50903457943E+03 -0.86545753901E+01 -0.47272479784E+03  0.69473724473E+03  0.00000000000E+00 0.  1.
         11    1    5    5    0    0 -0.20729302065E+02 -0.10766382997E+02 -0.27131658263E+02  0.35801478280E+02  0.00000000000E+00 0. -1.
        -11    1    5    5    0    0 -0.55680100097E+03 -0.38246814490E+02 -0.17719326995E+03  0.58556607519E+03  0.00000000000E+00 0.  1.
          2    1    6    6  503    0  0.44840126483E+02  0.20122010927E+02 -0.19726032016E+03  0.20329084135E+03  0.00000000000E+00 0. -1.
         -2    1    6    6    0  503 -0.90668523895E+01  0.24271561173E+02 -0.67912237057E+03  0.67961644381E+03  0.00000000000E+00 0.  1.
<mgrwt>
<rscale>  0 0.15973202E+04</rscale>
<asrwt>0</asrwt>
<pdfrwt beam="1">  1        1 0.30012664E+00 0.15973202E+04</pdfrwt>
<pdfrwt beam="2">  1       -1 0.50302863E-01 0.15973202E+04</pdfrwt>
<totfact> 0.12259076E+01</totfact>
</mgrwt>
</event>
<event>
12    2  0.3561489E-008  0.2717095E+04  0.7818608E-02  0.8329480E-01
         -1   -1    0    0    0  501 -0.00000000000E+00  0.00000000000E+00  0.23602608238E+04  0.23602608238E+04  0.00000000000E+00 0.  1.
          1   -1    0    0  501    0  0.00000000000E+00 -0.00000000000E+00 -0.78196912584E+03  0.78196912584E+03  0.00000000000E+00 0. -1.
         23    2    1    2    0    0 -0.38684653049E+03  0.10267253132E+04  0.11869954172E+03  0.11077124552E+04  0.95510184317E+02 0.  0.
        254    2    1    2    0    0  0.38684653049E+03 -0.10267253132E+04  0.14595921563E+04  0.20345174945E+04  0.89723857793E+03 0.  0.
         23    2    4    4    0    0  0.20066784143E+03  0.67791351888E+02  0.46466812343E+02  0.23560682304E+03  0.92131213154E+02 0.  0.
         23    2    4    4    0    0  0.18617868906E+03 -0.10945166651E+04  0.14131253439E+04  0.17989106714E+04  0.80790665930E+02 0.  0.
          4    1    3    3  502    0 -0.63272608157E+02  0.10107205097E+03 -0.50856946793E+01  0.11935177720E+03  0.00000000000E+00 0.  1.
         -4    1    3    3    0  502 -0.32357392233E+03  0.92565326222E+03  0.12378523640E+03  0.98836067800E+03  0.00000000000E+00 0. -1.
         11    1    5    5    0    0  0.53096803762E+02  0.42805492009E+02  0.52106485321E+02  0.85829287125E+02  0.00000000000E+00 0.  1.
        -11    1    5    5    0    0  0.14757103767E+03  0.24985859879E+02 -0.56396729787E+01  0.14977753591E+03  0.00000000000E+00 0. -1.
          4    1    6    6  503    0  0.15592729850E+03 -0.89529257614E+03  0.12043882544E+04  0.15087787070E+04  0.00000000000E+00 0. -1.
         -4    1    6    6    0  503  0.30251390558E+02 -0.19922408894E+03  0.20873708955E+03  0.29013196445E+03  0.00000000000E+00 0.  1.
<mgrwt>
<rscale>  0 0.27170948E+04</rscale>
<asrwt>0</asrwt>
<pdfrwt beam="1">  1        1 0.12030294E+00 0.27170948E+04</pdfrwt>
<pdfrwt beam="2">  1       -1 0.36311705E+00 0.27170948E+04</pdfrwt>
<totfact> 0.25402451E-01</totfact>
</mgrwt>
</event>
<event>
12    2  0.3561489E-008  0.2649438E+04  0.7818608E-02  0.8351599E-01
          2   -1    0    0  501    0  0.00000000000E+00  0.00000000000E+00  0.35782281284E+04  0.35782281284E+04  0.00000000000E+00 0. -1.
         -2   -1    0    0    0  501 -0.00000000000E+00 -0.00000000000E+00 -0.49043289021E+03  0.49043289021E+03  0.00000000000E+00 0.  1.
         23    2    1    2    0    0 -0.97829896115E+03  0.62239180290E+03  0.10957905907E+04  0.15980319415E+04  0.92242362872E+02 0.  0.
        254    2    1    2    0    0  0.97829896115E+03 -0.62239180290E+03  0.19920046475E+04  0.24706290771E+04  0.88965448774E+03 0.  0.
         23    2    4    4    0    0  0.78622453240E+03 -0.84182246973E+03  0.15854366498E+04  0.19619004272E+04  0.92896877461E+02 0.  0.
         23    2    4    4    0    0  0.19207442876E+03  0.21943066683E+03  0.40656799771E+03  0.50872864997E+03  0.92004884699E+02 0.  0.
          1    1    3    3  502    0 -0.67859756762E+03  0.38482381311E+03  0.71087372022E+03  0.10554266777E+04  0.00000000000E+00 0. -1.
         -1    1    3    3    0  502 -0.29970139354E+03  0.23756798979E+03  0.38491687049E+03  0.54260526375E+03  0.00000000000E+00 0.  1.
         11    1    5    5    0    0  0.12867297795E+03 -0.17705578645E+03  0.26035149343E+03  0.34012995590E+03  0.00000000000E+00 0. -1.
        -11    1    5    5    0    0  0.65755155445E+03 -0.66476668328E+03  0.13250851563E+04  0.16217704713E+04  0.00000000000E+00 0.  1.
          3    1    6    6  503    0  0.44069799567E+01 -0.86549314999E+01  0.20005730746E+02  0.22238672943E+02  0.00000000000E+00 0. -1.
         -3    1    6    6    0  503  0.18766744880E+03  0.22808559833E+03  0.38656226696E+03  0.48648997703E+03  0.00000000000E+00 0.  1.
<mgrwt>
<rscale>  0 0.26494383E+04</rscale>
<asrwt>0</asrwt>
<pdfrwt beam="1">  1        2 0.55049662E+00 0.26494383E+04</pdfrwt>
<pdfrwt beam="2">  1       -2 0.75451216E-01 0.26494383E+04</pdfrwt>
<totfact> 0.99403847E-01</totfact>
</mgrwt>
</event>
<event>
12    2  0.3561489E-008  0.1306273E+04  0.7818608E-02  0.9024605E-01
          1   -1    0    0  501    0  0.00000000000E+00  0.00000000000E+00  0.80564554723E+03  0.80564554723E+03  0.00000000000E+00 0. -1.
         -1   -1    0    0    0  501 -0.00000000000E+00 -0.00000000000E+00 -0.52949770663E+03  0.52949770663E+03  0.00000000000E+00 0.  1.
         23    2    1    2    0    0 -0.69040885247E+02  0.17946615254E+01  0.38743383839E+03  0.40367195129E+03  0.89867683204E+02 0.  0.
        254    2    1    2    0    0  0.69040885247E+02 -0.17946615254E+01 -0.11128599780E+03  0.93147130257E+03  0.92221708375E+03 0.  0.
         23    2    4    4    0    0  0.21829780382E+03  0.26752848625E+03 -0.37301452563E+03  0.51640904321E+03  0.91175882055E+02 0.  0.
         23    2    4    4    0    0 -0.14925691857E+03 -0.26932314777E+03  0.26172852784E+03  0.41506225936E+03  0.94669272700E+02 0.  0.
          1    1    3    3  502    0 -0.47961632670E+02  0.14751754803E+02  0.37004022733E+03  0.37342697054E+03  0.00000000000E+00 0. -1.
         -1    1    3    3    0  502 -0.21079252577E+02 -0.12957093278E+02  0.17393611058E+02  0.30244980758E+02  0.00000000000E+00 0.  1.
         11    1    5    5    0    0  0.11073455813E+03  0.96572994254E+02 -0.10401195884E+03  0.18001936886E+03  0.00000000000E+00 0. -1.
        -11    1    5    5    0    0  0.10756324568E+03  0.17095549200E+03 -0.26900256679E+03  0.33638967434E+03  0.00000000000E+00 0.  1.
          4    1    6    6  503    0 -0.15653936879E+03 -0.21212797752E+03  0.22590316267E+03  0.34718164084E+03  0.00000000000E+00 0.  1.
         -4    1    6    6    0  503  0.72824502266E+01 -0.57195170256E+02  0.35825365166E+02  0.67880618523E+02  0.00000000000E+00 0. -1.
<mgrwt>
<rscale>  0 0.13062733E+04</rscale>
<asrwt>0</asrwt>
<pdfrwt beam="1">  1        1 0.12394547E+00 0.13062733E+04</pdfrwt>
<pdfrwt beam="2">  1       -1 0.81461186E-01 0.13062733E+04</pdfrwt>
<totfact> 0.32230007E+01</totfact>
</mgrwt>
</event>
<event>
12    2  0.3561489E-008  0.1154981E+04  0.7818608E-02  0.9153200E-01
          2   -1    0    0  501    0  0.00000000000E+00  0.00000000000E+00  0.85292394509E+03  0.85292394509E+03  0.00000000000E+00 0. -1.
         -2   -1    0    0    0  501 -0.00000000000E+00 -0.00000000000E+00 -0.39100258563E+03  0.39100258563E+03  0.00000000000E+00 0.  1.
         23    2    1    2    0    0 -0.70015214704E+02 -0.11773726015E+03 -0.52687130527E+02  0.17245439736E+03  0.90556019841E+02 0.  0.
        254    2    1    2    0    0  0.70015214704E+02  0.11773726015E+03  0.51460848998E+03  0.10714721334E+04  0.92976687502E+03 0.  0.
         23    2    4    4    0    0  0.26931927724E+03  0.71193471122E+01 -0.17835205974E+03  0.33635366486E+03  0.93492098338E+02 0.  0.
         23    2    4    4    0    0 -0.19930406253E+03  0.11061791303E+03  0.69296054972E+03  0.73511846850E+03  0.90809730934E+02 0.  0.
          3    1    3    3  502    0 -0.71682340667E+02 -0.32655988566E+02 -0.30880518598E+02  0.84607198166E+02  0.00000000000E+00 0.  1.
         -3    1    3    3    0  502  0.16671259628E+01 -0.85081271579E+02 -0.21806611929E+02  0.87847199195E+02  0.00000000000E+00 0. -1.
         11    1    5    5    0    0  0.16640134347E+03  0.79997781217E+01 -0.54418825002E+02  0.17525641807E+03  0.00000000000E+00 0.  1.
        -11    1    5    5    0    0  0.10291793377E+03 -0.88043100946E+00 -0.12393323474E+03  0.16109724679E+03  0.00000000000E+00 0. -1.
          3    1    6    6  503    0 -0.32305048666E+02  0.59080995625E+01  0.22433648402E+03  0.22672754547E+03  0.00000000000E+00 0. -1.
         -3    1    6    6    0  503 -0.16699901387E+03  0.10470981347E+03  0.46862406570E+03  0.50839092304E+03  0.00000000000E+00 0.  1.
<mgrwt>
<rscale>  0 0.11549813E+04</rscale>
<asrwt>0</asrwt>
<pdfrwt beam="1">  1        2 0.13121907E+00 0.11549813E+04</pdfrwt>
<pdfrwt beam="2">  1       -2 0.60154244E-01 0.11549813E+04</pdfrwt>
<totfact> 0.80545111E+01</totfact>
</mgrwt>
</event>
<event>
12    2  0.3561489E-008  0.1976119E+04  0.7818608E-02  0.8617868E-01
         -2   -1    0    0    0  501 -0.00000000000E+00  0.00000000000E+00  0.47641209685E+03  0.47641209685E+03  0.00000000000E+00 0.  1.
          2   -1    0    0  501    0  0.00000000000E+00 -0.00000000000E+00 -0.20491958418E+04  0.20491958418E+04  0.00000000000E+00 0. -1.
         23    2    1    2    0    0 -0.75561427158E+03 -0.10445592653E+03 -0.81728321129E+03  0.11216741158E+04  0.91307210047E+02 0.  0.
        254    2    1    2    0    0  0.75561427158E+03  0.10445592653E+03 -0.75550053361E+03  0.14039338228E+04  0.90464642514E+03 0.  0.
         23    2    4    4    0    0 -0.11094690393E+03  0.25569939656E+03 -0.12261479327E+03  0.31643911837E+03  0.86069339564E+02 0.  0.
         23    2    4    4    0    0  0.86656117552E+03 -0.15124347004E+03 -0.63288574035E+03  0.10874947044E+04  0.91090689378E+02 0.  0.
          3    1    3    3  502    0 -0.56354570520E+03 -0.37324834336E+02 -0.59952977824E+03  0.82365821802E+03  0.00000000000E+00 0. -1.
         -3    1    3    3    0  502 -0.19206856638E+03 -0.67131092189E+02 -0.21775343305E+03  0.29801589779E+03  0.00000000000E+00 0.  1.
         11    1    5    5    0    0 -0.10805163087E+03  0.23888327242E+03 -0.85806411891E+02  0.27586792691E+03  0.00000000000E+00 0. -1.
        -11    1    5    5    0    0 -0.28952730600E+01  0.16816124148E+02 -0.36808381374E+02  0.40571191465E+02  0.00000000000E+00 0.  1.
          3    1    6    6  503    0  0.85317227160E+03 -0.14002208190E+03 -0.60749089181E+03  0.10566713264E+04  0.00000000000E+00 0. -1.
         -3    1    6    6    0  503  0.13388903920E+02 -0.11221388143E+02 -0.25394848538E+02  0.30823378016E+02  0.00000000000E+00 0.  1.
<mgrwt>
<rscale>  0 0.19761191E+04</rscale>
<asrwt>0</asrwt>
<pdfrwt beam="1">  1        2 0.31526090E+00 0.19761191E+04</pdfrwt>
<pdfrwt beam="2">  1       -2 0.73294169E-01 0.19761191E+04</pdfrwt>
<totfact> 0.98100983E+00</totfact>
</mgrwt>
</event>
<event>
12    2  0.3561489E-008  0.1310970E+04  0.7818608E-02  0.9020911E-01
         -2   -1    0    0    0  501 -0.00000000000E+00  0.00000000000E+00  0.98712732950E+03  0.98712732950E+03  0.00000000000E+00 0. -1.
          2   -1    0    0  501    0  0.00000000000E+00 -0.00000000000E+00 -0.43526370574E+03  0.43526370574E+03  0.00000000000E+00 0.  1.
         23    2    1    2    0    0 -0.68048759711E+02  0.20483172589E+03 -0.21163367400E+03  0.31578119397E+03  0.91336087418E+02 0.  0.
        254    2    1    2    0    0  0.68048759711E+02 -0.20483172589E+03  0.76349729776E+03  0.11066098413E+04  0.77140815881E+03 0.  0.
         23    2    4    4    0    0 -0.19789164360E+03 -0.33472579890E+03  0.16436294655E+03  0.43231176504E+03  0.93144086966E+02 0.  0.
         23    2    4    4    0    0  0.26594040332E+03  0.12989407301E+03  0.59913435121E+03  0.67429807623E+03  0.90106362097E+02 0.  0.
          1    1    3    3  502    0 -0.13559267386E+01  0.68548414933E+02 -0.20129451972E+02  0.71455710505E+02  0.00000000000E+00 0. -1.
         -1    1    3    3    0  502 -0.66692832972E+02  0.13628331096E+03 -0.19150422203E+03  0.24432548346E+03  0.00000000000E+00 0.  1.
         11    1    5    5    0    0 -0.12394118593E+03 -0.28475062946E+03  0.13018986938E+03  0.33673987088E+03  0.00000000000E+00 0.  1.
        -11    1    5    5    0    0 -0.73950457676E+02 -0.49975169433E+02  0.34173077174E+02  0.95571894163E+02  0.00000000000E+00 0. -1.
          4    1    6    6  503    0  0.17551021429E+03  0.39558947394E+02  0.31549977647E+03  0.36319258609E+03  0.00000000000E+00 0. -1.
         -4    1    6    6    0  503  0.90430189025E+02  0.90335125615E+02  0.28363457474E+03  0.31110549014E+03  0.00000000000E+00 0.  1.
<mgrwt>
<rscale>  0 0.13109702E+04</rscale>
<asrwt>0</asrwt>
<pdfrwt beam="1">  1        2 0.66963647E-01 0.13109702E+04</pdfrwt>
<pdfrwt beam="2">  1       -2 0.15186574E+00 0.13109702E+04</pdfrwt>
<totfact> 0.20494822E+01</totfact>
</mgrwt>
</event>
<event>
12    2  0.3561489E-008  0.1092569E+04  0.7818608E-02  0.9212465E-01
          2   -1    0    0  501    0  0.00000000000E+00  0.00000000000E+00  0.12795749433E+04  0.12795749433E+04  0.00000000000E+00 0. -1.
         -2   -1    0    0    0  501 -0.00000000000E+00 -0.00000000000E+00 -0.23322335854E+03  0.23322335854E+03  0.00000000000E+00 0.  1.
         23    2    1    2    0    0  0.21926027990E+02 -0.26573601716E+02 -0.53152084816E+02  0.11179374669E+03  0.92118351410E+02 0.  0.
        254    2    1    2    0    0 -0.21926027990E+02  0.26573601716E+02  0.10995036696E+04  0.14010045552E+04  0.86759353221E+03 0.  0.
         23    2    4    4    0    0  0.62699353159E+02  0.14033135179E+03  0.11946410766E+04  0.12077614540E+04  0.88861300430E+02 0.  0.
         23    2    4    4    0    0 -0.84625381149E+02 -0.11375775007E+03 -0.95137406995E+02  0.19324310117E+03  0.90495796057E+02 0.  0.
          2    1    3    3  502    0  0.31079562907E+02 -0.54206873694E+02 -0.54125832628E+02  0.82667588230E+02  0.00000000000E+00 0.  1.
         -2    1    3    3    0  502 -0.91535349167E+01  0.27633271977E+02  0.97374781218E+00  0.29126158457E+02  0.00000000000E+00 0. -1.
         11    1    5    5    0    0  0.81658088346E+02  0.13509723777E+03  0.10575515990E+04  0.10692682973E+04  0.00000000000E+00 0.  1.
        -11    1    5    5    0    0 -0.18958735187E+02  0.52341140143E+01  0.13708947760E+03  0.13849315672E+03  0.00000000000E+00 0. -1.
          3    1    6    6  503    0 -0.21213388459E+01 -0.77686228846E+02 -0.51068640502E+02  0.92992775384E+02  0.00000000000E+00 0. -1.
         -3    1    6    6    0  503 -0.82504042303E+02 -0.36071521223E+02 -0.44068766493E+02  0.10025032578E+03  0.00000000000E+00 0.  1.
<mgrwt>
<rscale>  0 0.10925690E+04</rscale>
<asrwt>0</asrwt>
<pdfrwt beam="1">  1        2 0.19685768E+00 0.10925690E+04</pdfrwt>
<pdfrwt beam="2">  1       -2 0.35880518E-01 0.10925690E+04</pdfrwt>
<totfact> 0.12316306E+02</totfact>
</mgrwt>
</event>
<event>
12    2  0.3561489E-008  0.2555083E+04  0.7818608E-02  0.8383620E-01
          1   -1    0    0  501    0  0.00000000000E+00  0.00000000000E+00  0.27434860929E+04  0.27434860929E+04  0.00000000000E+00 0. -1.
         -1   -1    0    0    0  501 -0.00000000000E+00 -0.00000000000E+00 -0.59490475402E+03  0.59490475402E+03  0.00000000000E+00 0.  1.
         23    2    1    2    0    0  0.46597658454E+03 -0.25368588725E+03  0.22012510960E+04  0.22661806459E+04  0.92615471352E+02 0.  0.
        254    2    1    2    0    0 -0.46597658454E+03  0.25368588725E+03 -0.52669757120E+02  0.10722102010E+04  0.93025260284E+03 0.  0.
         23    2    4    4    0    0 -0.35683588831E+03  0.38482758141E+03  0.34154154973E+03  0.63333798213E+03  0.95090750406E+02 0.  0.
         23    2    4    4    0    0 -0.10914069623E+03 -0.13114169417E+03 -0.39421130685E+03  0.43887221888E+03  0.89980189668E+02 0.  0.
          4    1    3    3  502    0  0.32675879270E+03 -0.19198985520E+03  0.17264722419E+04  0.17675796488E+04  0.00000000000E+00 0. -1.
         -4    1    3    3    0  502  0.13921779184E+03 -0.61696032045E+02  0.47477885417E+03  0.49860099710E+03  0.00000000000E+00 0.  1.
         11    1    5    5    0    0 -0.18899627945E+03  0.27139743812E+03  0.20724530016E+03  0.39029063209E+03  0.00000000000E+00 0.  1.
        -11    1    5    5    0    0 -0.16783960886E+03  0.11343014330E+03  0.13429624957E+03  0.24304735004E+03  0.00000000000E+00 0. -1.
          1    1    6    6  503    0 -0.65239569174E+02 -0.93935533415E+02 -0.15375926759E+03  0.19162984682E+03  0.00000000000E+00 0. -1.
         -1    1    6    6    0  503 -0.43901127051E+02 -0.37206160751E+02 -0.24045203926E+03  0.24724237205E+03  0.00000000000E+00 0.  1.
<mgrwt>
<rscale>  0 0.25550835E+04</rscale>
<asrwt>0</asrwt>
<pdfrwt beam="1">  1        1 0.42207478E+00 0.25550835E+04</pdfrwt>
<pdfrwt beam="2">  1       -1 0.91523810E-01 0.25550835E+04</pdfrwt>
<totfact> 0.94046035E-01</totfact>
</mgrwt>
</event>
<event>
12    2  0.3561489E-008  0.1548539E+04  0.7818608E-02  0.8852802E-01
         -2   -1    0    0    0  501 -0.00000000000E+00  0.00000000000E+00  0.27868345421E+03  0.27868345421E+03  0.00000000000E+00 0.  1.
          2   -1    0    0  501    0  0.00000000000E+00 -0.00000000000E+00 -0.21511617309E+04  0.21511617309E+04  0.00000000000E+00 0. -1.
         23    2    1    2    0    0  0.15350513631E+03 -0.21264620600E+03 -0.13105585601E+04  0.13396537220E+04  0.91247573222E+02 0.  0.
        254    2    1    2    0    0 -0.15350513631E+03  0.21264620600E+03 -0.56191971660E+03  0.10901914631E+04  0.89665011155E+03 0.  0.
         23    2    4    4    0    0 -0.28716167317E+03 -0.26135819793E+03 -0.10664500317E+03  0.41305893190E+03  0.92057538298E+02 0.  0.
         23    2    4    4    0    0  0.13365653686E+03  0.47400440392E+03 -0.45527471343E+03  0.67713253122E+03  0.93215639026E+02 0.  0.
          4    1    3    3  502    0  0.96449877284E+02 -0.10257545878E+03 -0.89458609400E+03  0.90559846684E+03  0.00000000000E+00 0. -1.
         -4    1    3    3    0  502  0.57055259031E+02 -0.11007074722E+03 -0.41597246611E+03  0.43405525517E+03  0.00000000000E+00 0.  1.
         11    1    5    5    0    0 -0.62147285734E+02 -0.12298763925E+02 -0.14545405722E+02  0.65000873423E+02  0.00000000000E+00 0.  1.
        -11    1    5    5    0    0 -0.22501438744E+03 -0.24905943400E+03 -0.92099597453E+02  0.34805805848E+03  0.00000000000E+00 0. -1.
          3    1    6    6  503    0  0.13874320731E+03  0.40438608614E+03 -0.35929642354E+03  0.55845474678E+03  0.00000000000E+00 0. -1.
         -3    1    6    6    0  503 -0.50866704506E+01  0.69618317785E+02 -0.95978289892E+02  0.11867778443E+03  0.00000000000E+00 0.  1.
<mgrwt>
<rscale>  0 0.15485389E+04</rscale>
<asrwt>0</asrwt>
<pdfrwt beam="1">  1        2 0.33094796E+00 0.15485389E+04</pdfrwt>
<pdfrwt beam="2">  1       -2 0.42874377E-01 0.15485389E+04</pdfrwt>
<totfact> 0.27331434E+01</totfact>
</mgrwt>
</event>
<event>
12    2  0.3561489E-008  0.1323723E+04  0.7818608E-02  0.9010961E-01
          2   -1    0    0  501    0  0.00000000000E+00  0.00000000000E+00  0.10187664526E+04  0.10187664526E+04  0.00000000000E+00 0. -1.
         -2   -1    0    0    0  501 -0.00000000000E+00 -0.00000000000E+00 -0.42999154076E+03  0.42999154076E+03  0.00000000000E+00 0.  1.
         23    2    1    2    0    0 -0.13435250628E+03  0.48127572271E+02 -0.18981547537E+03  0.25503266570E+03  0.92977883008E+02 0.  0.
        254    2    1    2    0    0  0.13435250628E+03 -0.48127572271E+02  0.77859038722E+03  0.11937253277E+04  0.89353808407E+03 0.  0.
         23    2    4    4    0    0  0.29004050622E+03 -0.17914983041E+03  0.88095990730E+03  0.94894726416E+03  0.90511849513E+02 0.  0.
         23    2    4    4    0    0 -0.15568799994E+03  0.13102225814E+03 -0.10236952008E+03  0.24477806351E+03  0.89616941924E+02 0.  0.
          1    1    3    3  502    0 -0.12800209203E+02 -0.16223388289E+02 -0.46789042182E-01  0.20665088251E+02  0.00000000000E+00 0. -1.
         -1    1    3    3    0  502 -0.12155229708E+03  0.64350960560E+02 -0.18976868633E+03  0.23436757745E+03  0.00000000000E+00 0.  1.
         11    1    5    5    0    0  0.13993058773E+03 -0.77812278296E+02  0.29517774629E+03  0.33580533340E+03  0.00000000000E+00 0.  1.
        -11    1    5    5    0    0  0.15010991850E+03 -0.10133755211E+03  0.58578216101E+03  0.61314193076E+03  0.00000000000E+00 0. -1.
          3    1    6    6  503    0 -0.30033041309E+02  0.44094832164E+02 -0.70979799989E+02  0.88794536996E+02  0.00000000000E+00 0. -1.
         -3    1    6    6    0  503 -0.12565495863E+03  0.86927425973E+02 -0.31389720087E+02  0.15598352651E+03  0.00000000000E+00 0.  1.
<mgrwt>
<rscale>  0 0.13237235E+04</rscale>
<asrwt>0</asrwt>
<pdfrwt beam="1">  1        2 0.15673330E+00 0.13237235E+04</pdfrwt>
<pdfrwt beam="2">  1       -2 0.66152545E-01 0.13237235E+04</pdfrwt>
<totfact> 0.50404889E+01</totfact>
</mgrwt>
</event>
<event>
12    2  0.3561489E-008  0.1430942E+04  0.7818608E-02  0.8931721E-01
         -1   -1    0    0    0  501 -0.00000000000E+00  0.00000000000E+00  0.25513170797E+03  0.25513170797E+03  0.00000000000E+00 0.  1.
          1   -1    0    0  501    0  0.00000000000E+00 -0.00000000000E+00 -0.20064103449E+04  0.20064103449E+04  0.00000000000E+00 0. -1.
         23    2    1    2    0    0 -0.33216026364E+03 -0.22224904755E+03 -0.28385018060E+03  0.49889199139E+03  0.92721163545E+02 0.  0.
        254    2    1    2    0    0  0.33216026364E+03  0.22224904755E+03 -0.14674284564E+04  0.17626500615E+04  0.89099039553E+03 0.  0.
         23    2    4    4    0    0  0.40895229486E+03 -0.78113782692E+02 -0.13543322671E+04  0.14198972666E+04  0.92458723780E+02 0.  0.
         23    2    4    4    0    0 -0.76792031221E+02  0.30036283024E+03 -0.11309618932E+03  0.34275279492E+03  0.92595272742E+02 0.  0.
          1    1    3    3  502    0 -0.15810710531E+03 -0.61708072484E+02 -0.15218717254E+03  0.22796201097E+03  0.00000000000E+00 0. -1.
         -1    1    3    3    0  502 -0.17405315833E+03 -0.16054097507E+03 -0.13166300806E+03  0.27092998042E+03  0.00000000000E+00 0.  1.
         11    1    5    5    0    0  0.39035212048E+03 -0.56888056064E+02 -0.13019138521E+04  0.13603641818E+04  0.00000000000E+00 0.  1.
        -11    1    5    5    0    0  0.18600174381E+02 -0.21225726628E+02 -0.52418414991E+02  0.59533084819E+02  0.00000000000E+00 0. -1.
          2    1    6    6  503    0 -0.88504306660E+02  0.16189812095E+03 -0.60572535937E+02  0.19419847058E+03  0.00000000000E+00 0.  1.
         -2    1    6    6    0  503  0.11712275439E+02  0.13846470929E+03 -0.52523653383E+02  0.14855432434E+03  0.00000000000E+00 0. -1.
<mgrwt>
<rscale>  0 0.14309422E+04</rscale>
<asrwt>0</asrwt>
<pdfrwt beam="1">  1        1 0.30867850E+00 0.14309422E+04</pdfrwt>
<pdfrwt beam="2">  1       -1 0.39251034E-01 0.14309422E+04</pdfrwt>
<totfact> 0.18109990E+01</totfact>
</mgrwt>
</event>
<event>
12    2  0.3561489E-008  0.1634332E+04  0.7818608E-02  0.8799730E-01
         -1   -1    0    0    0  501 -0.00000000000E+00  0.00000000000E+00  0.77349199796E+03  0.77349199796E+03  0.00000000000E+00 0.  1.
          1   -1    0    0  501    0  0.00000000000E+00 -0.00000000000E+00 -0.86330626612E+03  0.86330626612E+03  0.00000000000E+00 0. -1.
         23    2    1    2    0    0 -0.20273880422E+03  0.36586080200E+03  0.33916553220E+03  0.54638103628E+03  0.92422017900E+02 0.  0.
        254    2    1    2    0    0  0.20273880422E+03 -0.36586080200E+03 -0.42897980036E+03  0.10904172278E+04  0.91105922550E+03 0.  0.
         23    2    4    4    0    0  0.39161752386E+03 -0.19892435071E+03 -0.61612033939E+03  0.76233870634E+03  0.92848523269E+02 0.  0.
         23    2    4    4    0    0 -0.18887871964E+03 -0.16693645129E+03  0.18714053902E+03  0.32807852145E+03  0.95241720864E+02 0.  0.
          3    1    3    3  502    0 -0.12881017559E+02  0.94985906410E+02  0.97443960982E+02  0.13668785082E+03  0.00000000000E+00 0. -1.
         -3    1    3    3    0  502 -0.18985778666E+03  0.27087489559E+03  0.24172157122E+03  0.40969318546E+03  0.00000000000E+00 0.  1.
         11    1    5    5    0    0  0.25129274464E+03 -0.88357142745E+02 -0.31840361800E+03  0.41513358349E+03  0.00000000000E+00 0.  1.
        -11    1    5    5    0    0  0.14032477922E+03 -0.11056720797E+03 -0.29771672139E+03  0.34720512285E+03  0.00000000000E+00 0. -1.
          4    1    6    6  503    0 -0.15919386753E+02 -0.58532083717E+02  0.18832082565E+02  0.63514400199E+02  0.00000000000E+00 0. -1.
         -4    1    6    6    0  503 -0.17295933288E+03 -0.10840436757E+03  0.16830845646E+03  0.26456412126E+03  0.00000000000E+00 0.  1.
<mgrwt>
<rscale>  0 0.16343323E+04</rscale>
<asrwt>0</asrwt>
<pdfrwt beam="1">  1        1 0.13281635E+00 0.16343323E+04</pdfrwt>
<pdfrwt beam="2">  1       -1 0.11899877E+00 0.16343323E+04</pdfrwt>
<totfact> 0.11804190E+01</totfact>
</mgrwt>
</event>
<event>
12    2  0.3561489E-008  0.1461836E+04  0.7818608E-02  0.8910236E-01
         -1   -1    0    0    0  501 -0.00000000000E+00  0.00000000000E+00  0.23760515269E+04  0.23760515269E+04  0.00000000000E+00 0.  1.
          1   -1    0    0  501    0  0.00000000000E+00 -0.00000000000E+00 -0.22484421407E+03  0.22484421407E+03  0.00000000000E+00 0. -1.
         23    2    1    2    0    0  0.28541588942E+03 -0.34731624668E+03  0.61310974581E+03  0.76546998384E+03  0.89162383450E+02 0.  0.
        254    2    1    2    0    0 -0.28541588942E+03  0.34731624668E+03  0.15380975670E+04  0.18354257571E+04  0.89495965222E+03 0.  0.
         23    2    4    4    0    0 -0.21682385815E+03 -0.13918850227E+03  0.12040986528E+04  0.12347229670E+04  0.91111003524E+02 0.  0.
         23    2    4    4    0    0 -0.68592031266E+02  0.48650474895E+03  0.33399891425E+03  0.60070279014E+03  0.88864108961E+02 0.  0.
          2    1    3    3  502    0  0.23347163162E+03 -0.32411844528E+03  0.51121513978E+03  0.64877013532E+03  0.00000000000E+00 0. -1.
         -2    1    3    3    0  502  0.51944257805E+02 -0.23197801397E+02  0.10189460603E+03  0.11669984852E+03  0.00000000000E+00 0.  1.
         11    1    5    5    0    0 -0.60994251173E+02 -0.31143863837E+02  0.16812960368E+03  0.18154283948E+03  0.00000000000E+00 0. -1.
        -11    1    5    5    0    0 -0.15582960698E+03 -0.10804463843E+03  0.10359690491E+04  0.10531801275E+04  0.00000000000E+00 0.  1.
          3    1    6    6  503    0 -0.31502290325E+02  0.34278713250E+03  0.27649808664E+03  0.44152758058E+03  0.00000000000E+00 0. -1.
         -3    1    6    6    0  503 -0.37089740941E+02  0.14371761645E+03  0.57500827606E+02  0.15917520955E+03  0.00000000000E+00 0.  1.
<mgrwt>
<rscale>  0 0.14618364E+04</rscale>
<asrwt>0</asrwt>
<pdfrwt beam="1">  1        1 0.34591419E-01 0.14618364E+04</pdfrwt>
<pdfrwt beam="2">  1       -1 0.36554637E+00 0.14618364E+04</pdfrwt>
<totfact> 0.15263124E+00</totfact>
</mgrwt>
</event>
<event>
12    2  0.3561489E-008  0.2331997E+04  0.7818608E-02  0.8465411E-01
          2   -1    0    0  501    0  0.00000000000E+00  0.00000000000E+00  0.24572037302E+04  0.24572037302E+04  0.00000000000E+00 0. -1.
         -2   -1    0    0    0  501 -0.00000000000E+00 -0.00000000000E+00 -0.55329255511E+03  0.55329255511E+03  0.00000000000E+00 0.  1.
         23    2    1    2    0    0 -0.25738445930E+03  0.77774565049E+03  0.15288559386E+04  0.17369381391E+04  0.91752718343E+02 0.  0.
        254    2    1    2    0    0  0.25738445930E+03 -0.77774565049E+03  0.37505523646E+03  0.12735581462E+04  0.90008269873E+03 0.  0.
         23    2    4    4    0    0  0.21408218082E+03 -0.77151451922E+03 -0.77380027717E+02  0.80967066966E+03  0.92266413711E+02 0.  0.
         23    2    4    4    0    0  0.43302278488E+02 -0.62311312701E+01  0.45243526418E+03  0.46388747652E+03  0.92628334129E+02 0.  0.
          1    1    3    3  502    0 -0.22162033706E+03  0.72681372670E+03  0.13752832900E+04  0.15712345130E+04  0.00000000000E+00 0. -1.
         -1    1    3    3    0  502 -0.35764122244E+02  0.50931923791E+02  0.15357264866E+03  0.16570362615E+03  0.00000000000E+00 0.  1.
         11    1    5    5    0    0  0.21221443319E+03 -0.68247347574E+03 -0.87475991320E+02  0.72003962377E+03  0.00000000000E+00 0.  1.
        -11    1    5    5    0    0  0.18677476274E+01 -0.89041043480E+02  0.10095963602E+02  0.89631045884E+02  0.00000000000E+00 0. -1.
          3    1    6    6  503    0  0.35076757762E+02  0.41273496601E+02  0.24747947826E+03  0.25333766521E+03  0.00000000000E+00 0. -1.
         -3    1    6    6    0  503  0.82255207262E+01 -0.47504627871E+02  0.20495578592E+03  0.21054981131E+03  0.00000000000E+00 0.  1.
<mgrwt>
<rscale>  0 0.23319970E+04</rscale>
<asrwt>0</asrwt>
<pdfrwt beam="1">  1        2 0.37803134E+00 0.23319970E+04</pdfrwt>
<pdfrwt beam="2">  1       -2 0.85121933E-01 0.23319970E+04</pdfrwt>
<totfact> 0.40019239E+00</totfact>
</mgrwt>
</event>
<event>
12    2  0.3561489E-008  0.2107232E+04  0.7818608E-02  0.8558064E-01
          1   -1    0    0  501    0  0.00000000000E+00  0.00000000000E+00  0.11176151947E+04  0.11176151947E+04  0.00000000000E+00 0. -1.
         -1   -1    0    0    0  501 -0.00000000000E+00 -0.00000000000E+00 -0.99328192560E+03  0.99328192560E+03  0.00000000000E+00 0.  1.
         23    2    1    2    0    0  0.13011540467E+03  0.11245466865E+03  0.89030070082E+03  0.91136809950E+03  0.91544545867E+02 0.  0.
        254    2    1    2    0    0 -0.13011540467E+03 -0.11245466865E+03 -0.76596743169E+03  0.11995290208E+04  0.90696620354E+03 0.  0.
         23    2    4    4    0    0 -0.49081579999E+03  0.79290687875E+02 -0.41633461640E+03  0.65445221002E+03  0.88238425205E+02 0.  0.
         23    2    4    4    0    0  0.36070039532E+03 -0.19174535652E+03 -0.34963281529E+03  0.54507681081E+03  0.89412343818E+02 0.  0.
          2    1    3    3  502    0  0.10423486020E+03  0.10424933144E+03  0.85054421988E+03  0.86322552045E+03  0.00000000000E+00 0. -1.
         -2    1    3    3    0  502  0.25880544478E+02  0.82053372055E+01  0.39756480940E+02  0.48142579052E+02  0.00000000000E+00 0.  1.
         11    1    5    5    0    0 -0.14472547458E+03  0.20547183831E+02 -0.17714223346E+03  0.22966719538E+03  0.00000000000E+00 0. -1.
        -11    1    5    5    0    0 -0.34609032541E+03  0.58743504044E+02 -0.23919238294E+03  0.42478501464E+03  0.00000000000E+00 0.  1.
          4    1    6    6  503    0  0.15111912806E+03 -0.70922747164E+02 -0.87874523049E+02  0.18865036107E+03  0.00000000000E+00 0. -1.
         -4    1    6    6    0  503  0.20958126725E+03 -0.12082260936E+03 -0.26175829224E+03  0.35642644974E+03  0.00000000000E+00 0.  1.
<mgrwt>
<rscale>  0 0.21072323E+04</rscale>
<asrwt>0</asrwt>
<pdfrwt beam="1">  1        1 0.17194080E+00 0.21072323E+04</pdfrwt>
<pdfrwt beam="2">  1       -1 0.15281260E+00 0.21072323E+04</pdfrwt>
<totfact> 0.37502040E+00</totfact>
</mgrwt>
</event>
<event>
12    2  0.3561489E-008  0.1704752E+04  0.7818608E-02  0.8758659E-01
          1   -1    0    0  501    0  0.00000000000E+00  0.00000000000E+00  0.13936050037E+04  0.13936050037E+04  0.00000000000E+00 0. -1.
         -1   -1    0    0    0  501 -0.00000000000E+00 -0.00000000000E+00 -0.52134175730E+03  0.52134175730E+03  0.00000000000E+00 0.  1.
         23    2    1    2    0    0  0.26089373524E+03 -0.53844687198E+03  0.17726196023E+03  0.63087304087E+03  0.92673707857E+02 0.  0.
        254    2    1    2    0    0 -0.26089373524E+03  0.53844687198E+03  0.69500128617E+03  0.12840737201E+04  0.89879249881E+03 0.  0.
         23    2    4    4    0    0  0.15310927826E+03  0.15387080792E+03 -0.13836798407E+03  0.27305539591E+03  0.91076196680E+02 0.  0.
         23    2    4    4    0    0 -0.41400301350E+03  0.38457606406E+03  0.83336927024E+03  0.10110183242E+04  0.91413713889E+02 0.  0.
          3    1    3    3  502    0  0.80499367674E+02 -0.27026538467E+03  0.91652303566E+02  0.29651925923E+03  0.00000000000E+00 0. -1.
         -3    1    3    3    0  502  0.18039436757E+03 -0.26818148730E+03  0.85609656659E+02  0.33435378164E+03  0.00000000000E+00 0.  1.
         11    1    5    5    0    0  0.10696461127E+03  0.11197520622E+03 -0.45845376599E+02  0.16149821494E+03  0.00000000000E+00 0. -1.
        -11    1    5    5    0    0  0.46144666987E+02  0.41895601694E+02 -0.92522607471E+02  0.11155718097E+03  0.00000000000E+00 0.  1.
          1    1    6    6  503    0 -0.35085373782E+03  0.28317740924E+03  0.62195151382E+03  0.76818713604E+03  0.00000000000E+00 0. -1.
         -1    1    6    6    0  503 -0.63149275684E+02  0.10139865482E+03  0.21141775642E+03  0.24283118817E+03  0.00000000000E+00 0.  1.
<mgrwt>
<rscale>  0 0.17047516E+04</rscale>
<asrwt>0</asrwt>
<pdfrwt beam="1">  1        1 0.21440077E+00 0.17047516E+04</pdfrwt>
<pdfrwt beam="2">  1       -1 0.80206425E-01 0.17047516E+04</pdfrwt>
<totfact> 0.11455546E+01</totfact>
</mgrwt>
</event>
<event>
12    2  0.3561489E-008  0.1863810E+04  0.7818608E-02  0.8673083E-01
          2   -1    0    0  501    0  0.00000000000E+00  0.00000000000E+00  0.12409163197E+04  0.12409163197E+04  0.00000000000E+00 0.  1.
         -2   -1    0    0    0  501 -0.00000000000E+00 -0.00000000000E+00 -0.69984336615E+03  0.69984336615E+03  0.00000000000E+00 0. -1.
         23    2    1    2    0    0  0.15057235966E+03 -0.67613994514E+03  0.35945115353E+02  0.69970457495E+03  0.91962927200E+02 0.  0.
        254    2    1    2    0    0 -0.15057235966E+03  0.67613994514E+03  0.50512783824E+03  0.12410551109E+04  0.89734407812E+03 0.  0.
         23    2    4    4    0    0  0.23045570768E+03  0.67864597787E+03  0.21385114784E+03  0.75252118554E+03  0.82979664782E+02 0.  0.
         23    2    4    4    0    0 -0.38102806734E+03 -0.25060327249E+01  0.29127669040E+03  0.48853392541E+03  0.92922643130E+02 0.  0.
          1    1    3    3  502    0  0.61671718358E+02 -0.21205514612E+03 -0.29008434775E+02  0.22273813129E+03  0.00000000000E+00 0. -1.
         -1    1    3    3    0  502  0.88900641304E+02 -0.46408479902E+03  0.64953550128E+02  0.47696644366E+03  0.00000000000E+00 0.  1.
         11    1    5    5    0    0  0.15774874074E+03  0.52072099602E+03  0.12954315753E+03  0.55929996475E+03  0.00000000000E+00 0. -1.
        -11    1    5    5    0    0  0.72706966937E+02  0.15792498185E+03  0.84307990311E+02  0.19322122079E+03  0.00000000000E+00 0.  1.
          4    1    6    6  503    0 -0.27006039640E+03 -0.39835374875E+02  0.17981932438E+03  0.32688601105E+03  0.00000000000E+00 0. -1.
         -4    1    6    6    0  503 -0.11096767094E+03  0.37329342150E+02  0.11145736602E+03  0.16164791437E+03  0.00000000000E+00 0.  1.
<mgrwt>
<rscale>  0 0.18638101E+04</rscale>
<asrwt>0</asrwt>
<pdfrwt beam="1">  1        2 0.19091020E+00 0.18638101E+04</pdfrwt>
<pdfrwt beam="2">  1       -2 0.10766821E+00 0.18638101E+04</pdfrwt>
<totfact> 0.11641275E+01</totfact>
</mgrwt>
</event>
<event>
12    2  0.3561489E-008  0.1896638E+04  0.7818608E-02  0.8656532E-01
          2   -1    0    0  501    0  0.00000000000E+00  0.00000000000E+00  0.11048034855E+04  0.11048034855E+04  0.00000000000E+00 0. -1.
         -2   -1    0    0    0  501 -0.00000000000E+00 -0.00000000000E+00 -0.81399860913E+03  0.81399860913E+03  0.00000000000E+00 0.  1.
         23    2    1    2    0    0  0.15418966944E+03  0.23749312664E+03  0.80033422667E+03  0.85526324963E+03  0.10374445727E+03 0.  0.
        254    2    1    2    0    0 -0.15418966944E+03 -0.23749312664E+03 -0.50952935026E+03  0.10635388451E+04  0.88956015918E+03 0.  0.
         23    2    4    4    0    0  0.26307050955E+03  0.12975703105E+03 -0.21827812099E+01  0.30664581351E+03  0.89352729691E+02 0.  0.
         23    2    4    4    0    0 -0.41726017899E+03 -0.36725015769E+03 -0.50734656905E+03  0.75689303154E+03  0.80670842206E+02 0.  0.
          2    1    3    3  502    0  0.16690578790E+03  0.23085332762E+03  0.73281655018E+03  0.78623844801E+03  0.00000000000E+00 0. -1.
         -2    1    3    3    0  502 -0.12716118457E+02  0.66397990178E+01  0.67517676495E+02  0.69024801622E+02  0.00000000000E+00 0.  1.
         11    1    5    5    0    0  0.23536827080E+03  0.11992718014E+03  0.26612000313E+02  0.26549755177E+03  0.00000000000E+00 0. -1.
        -11    1    5    5    0    0  0.27702238757E+02  0.98298509066E+01 -0.28794781523E+02  0.41148261736E+02  0.00000000000E+00 0.  1.
          4    1    6    6  503    0 -0.39275877790E+03 -0.33696905517E+03 -0.49476117535E+03  0.71595825464E+03  0.00000000000E+00 0. -1.
         -4    1    6    6    0  503 -0.24501401093E+02 -0.30281102523E+02 -0.12585393695E+02  0.40934776901E+02  0.00000000000E+00 0.  1.
<mgrwt>
<rscale>  0 0.18966376E+04</rscale>
<asrwt>0</asrwt>
<pdfrwt beam="1">  1        2 0.16996977E+00 0.18966376E+04</pdfrwt>
<pdfrwt beam="2">  1       -2 0.12523056E+00 0.18966376E+04</pdfrwt>
<totfact> 0.96755485E+00</totfact>
</mgrwt>
</event>
<event>
12    2  0.3561489E-008  0.1476546E+04  0.7818608E-02  0.8900201E-01
         -2   -1    0    0    0  501 -0.00000000000E+00  0.00000000000E+00  0.61788979277E+03  0.61788979277E+03  0.00000000000E+00 0.  1.
          2   -1    0    0  501    0  0.00000000000E+00 -0.00000000000E+00 -0.88211006873E+03  0.88211006873E+03  0.00000000000E+00 0. -1.
         23    2    1    2    0    0  0.11657278859E+03  0.79652589632E+02 -0.52195299085E+03  0.54880546986E+03  0.93908301127E+02 0.  0.
        254    2    1    2    0    0 -0.11657278859E+03 -0.79652589632E+02  0.25773271489E+03  0.95119439165E+03  0.90466063709E+03 0.  0.
         23    2    4    4    0    0 -0.41408364239E+03 -0.14716881421E+03  0.40113733267E+03  0.60169960102E+03  0.89483671333E+02 0.  0.
         23    2    4    4    0    0  0.29751085380E+03  0.67516224582E+02 -0.14340461778E+03  0.34949479063E+03  0.92252780802E+02 0.  0.
          1    1    3    3  502    0  0.77622169891E+02  0.80551235276E+02 -0.47399349796E+03  0.48701492674E+03  0.00000000000E+00 0. -1.
         -1    1    3    3    0  502  0.38950618695E+02 -0.89864564334E+00 -0.47959492891E+02  0.61790543121E+02  0.00000000000E+00 0.  1.
         11    1    5    5    0    0 -0.20968140626E+03 -0.10826596343E+03  0.17086369320E+03  0.29134552103E+03  0.00000000000E+00 0.  1.
        -11    1    5    5    0    0 -0.20440223612E+03 -0.38902850787E+02  0.23027363947E+03  0.31035407999E+03  0.00000000000E+00 0. -1.
          1    1    6    6  503    0  0.98914507500E+02  0.56797707755E+02 -0.21053234791E+02  0.11598835327E+03  0.00000000000E+00 0. -1.
         -1    1    6    6    0  503  0.19859634630E+03  0.10718516827E+02 -0.12235138299E+03  0.23350643736E+03  0.00000000000E+00 0.  1.
<mgrwt>
<rscale>  0 0.14765457E+04</rscale>
<asrwt>0</asrwt>
<pdfrwt beam="1">  1        2 0.13570924E+00 0.14765457E+04</pdfrwt>
<pdfrwt beam="2">  1       -2 0.95059968E-01 0.14765457E+04</pdfrwt>
<totfact> 0.27169780E+01</totfact>
</mgrwt>
</event>
<event>
12    2  0.3561489E-008  0.1805510E+04  0.7818608E-02  0.8703375E-01
          2   -1    0    0  501    0  0.00000000000E+00  0.00000000000E+00  0.26797111918E+04  0.26797111918E+04  0.00000000000E+00 0.  1.
         -2   -1    0    0    0  501 -0.00000000000E+00 -0.00000000000E+00 -0.30412479649E+03  0.30412479649E+03  0.00000000000E+00 0. -1.
         23    2    1    2    0    0  0.25290324332E+02 -0.10581054896E+03  0.18098713843E+04  0.18154155527E+04  0.90905052218E+02 0.  0.
        254    2    1    2    0    0 -0.25290324332E+02  0.10581054896E+03  0.56571501101E+03  0.11684204356E+04  0.10165320299E+04 0.  0.
         23    2    4    4    0    0 -0.19299898853E+03  0.92761314368E+02 -0.24278680595E+03  0.33763387890E+03  0.95905849759E+02 0.  0.
         23    2    4    4    0    0  0.16770866420E+03  0.13049234594E+02  0.80850181696E+03  0.83078655669E+03  0.90744896165E+02 0.  0.
          3    1    3    3  502    0 -0.94766411489E+01  0.14024970691E+02  0.19858301230E+03  0.19930308403E+03  0.00000000000E+00 0. -1.
         -3    1    3    3    0  502  0.34766965481E+02 -0.11983551965E+03  0.16112883720E+04  0.16161124687E+04  0.00000000000E+00 0.  1.
         11    1    5    5    0    0 -0.34271156537E+02  0.47896265262E+02 -0.11418555332E+03  0.12847920059E+03  0.00000000000E+00 0. -1.
        -11    1    5    5    0    0 -0.15872783200E+03  0.44865049106E+02 -0.12860125263E+03  0.20915467831E+03  0.00000000000E+00 0.  1.
          3    1    6    6  503    0 -0.64302728841E+01 -0.12115305537E+02  0.36595633277E+02  0.39081573824E+02  0.00000000000E+00 0. -1.
         -3    1    6    6    0  503  0.17413893708E+03  0.25164540131E+02  0.77190618368E+03  0.79170498287E+03  0.00000000000E+00 0.  1.
<mgrwt>
<rscale>  0 0.18055100E+04</rscale>
<asrwt>0</asrwt>
<pdfrwt beam="1">  1        2 0.41226324E+00 0.18055100E+04</pdfrwt>
<pdfrwt beam="2">  1       -2 0.46788432E-01 0.18055100E+04</pdfrwt>
<totfact> 0.11178773E+01</totfact>
</mgrwt>
</event>
<event>
12    2  0.3561489E-008  0.2161669E+04  0.7818608E-02  0.8534554E-01
          1   -1    0    0  501    0  0.00000000000E+00  0.00000000000E+00  0.18991412569E+04  0.18991412569E+04  0.00000000000E+00 0. -1.
         -1   -1    0    0    0  501 -0.00000000000E+00 -0.00000000000E+00 -0.61512160397E+03  0.61512160397E+03  0.00000000000E+00 0.  1.
         23    2    1    2    0    0  0.59038124500E+03  0.52011960682E+03  0.51042203947E+02  0.79207643802E+03  0.75533815081E+02 0.  0.
        254    2    1    2    0    0 -0.59038124500E+03 -0.52011960682E+03  0.12329774490E+04  0.17221864229E+04  0.90918549566E+03 0.  0.
         23    2    4    4    0    0 -0.54425900150E+02 -0.50915555501E+03  0.10069385841E+04  0.11331728604E+04  0.89184424691E+02 0.  0.
         23    2    4    4    0    0 -0.53595534485E+03 -0.10964051811E+02  0.22603886487E+03  0.58901356243E+03  0.92060122669E+02 0.  0.
          1    1    3    3  502    0  0.34037999388E+03  0.25921040644E+03  0.55880526193E+01  0.42787825531E+03  0.00000000000E+00 0. -1.
         -1    1    3    3    0  502  0.25000125113E+03  0.26090920039E+03  0.45454151328E+02  0.36419818271E+03  0.00000000000E+00 0.  1.
         11    1    5    5    0    0  0.20686639289E+02 -0.14114188601E+03  0.23984617586E+03  0.27906120674E+03  0.00000000000E+00 0. -1.
        -11    1    5    5    0    0 -0.75112539439E+02 -0.36801366900E+03  0.76709240828E+03  0.85411165370E+03  0.00000000000E+00 0.  1.
          1    1    6    6  503    0 -0.30987013891E+03 -0.48584386632E+02  0.11233555809E+03  0.33316545923E+03  0.00000000000E+00 0. -1.
         -1    1    6    6    0  503 -0.22608520594E+03  0.37620334821E+02  0.11370330678E+03  0.25584810320E+03  0.00000000000E+00 0.  1.
<mgrwt>
<rscale>  0 0.21616686E+04</rscale>
<asrwt>0</asrwt>
<pdfrwt beam="1">  1        1 0.29217558E+00 0.21616686E+04</pdfrwt>
<pdfrwt beam="2">  1       -1 0.94634093E-01 0.21616686E+04</pdfrwt>
<totfact> 0.34465096E+00</totfact>
</mgrwt>
</event>
<event>
12    2  0.3561489E-008  0.1392740E+04  0.7818608E-02  0.8959090E-01
          1   -1    0    0  501    0  0.00000000000E+00  0.00000000000E+00  0.13186509894E+04  0.13186509894E+04  0.00000000000E+00 0. -1.
         -1   -1    0    0    0  501 -0.00000000000E+00 -0.00000000000E+00 -0.36774801731E+03  0.36774801731E+03  0.00000000000E+00 0.  1.
         23    2    1    2    0    0 -0.11877676599E+03 -0.28470078846E+03 -0.90056667417E+01  0.32188590091E+03  0.91471154362E+02 0.  0.
        254    2    1    2    0    0  0.11877676599E+03  0.28470078846E+03  0.95990863884E+03  0.13645131058E+04  0.91940685331E+03 0.  0.
         23    2    4    4    0    0  0.55945050822E+02  0.12225294120E+02 -0.16496041509E+03  0.20214443011E+03  0.10183872324E+03 0.  0.
         23    2    4    4    0    0  0.62831715164E+02  0.27247549434E+03  0.11248690539E+04  0.11623686757E+04  0.87062220898E+02 0.  0.
          2    1    3    3  502    0 -0.61816297353E+02 -0.61473904345E+02  0.20687730127E+02  0.89600656871E+02  0.00000000000E+00 0. -1.
         -2    1    3    3    0  502 -0.56960468634E+02 -0.22322688412E+03 -0.29693396868E+02  0.23228524404E+03  0.00000000000E+00 0.  1.
         11    1    5    5    0    0  0.27573088412E+02 -0.24679679981E+02 -0.72512539314E+01  0.37708652749E+02  0.00000000000E+00 0.  1.
        -11    1    5    5    0    0  0.28371962410E+02  0.36904974101E+02 -0.15770916116E+03  0.16443577736E+03  0.00000000000E+00 0. -1.
          3    1    6    6  503    0  0.72586671549E+02  0.12201676374E+03  0.56191995912E+03  0.57957825699E+03  0.00000000000E+00 0. -1.
         -3    1    6    6    0  503 -0.97549563851E+01  0.15045873061E+03  0.56294909481E+03  0.58279041871E+03  0.00000000000E+00 0.  1.
<mgrwt>
<rscale>  0 0.13927402E+04</rscale>
<asrwt>0</asrwt>
<pdfrwt beam="1">  1        1 0.20286938E+00 0.13927402E+04</pdfrwt>
<pdfrwt beam="2">  1       -1 0.56576619E-01 0.13927402E+04</pdfrwt>
<totfact> 0.27058996E+01</totfact>
</mgrwt>
</event>
<event>
12    2  0.3561489E-008  0.3575329E+04  0.7818608E-02  0.8096166E-01
          2   -1    0    0  501    0  0.00000000000E+00  0.00000000000E+00  0.12877317564E+04  0.12877317564E+04  0.00000000000E+00 0.  1.
         -2   -1    0    0    0  501 -0.00000000000E+00 -0.00000000000E+00 -0.24816845497E+04  0.24816845497E+04  0.00000000000E+00 0. -1.
         23    2    1    2    0    0  0.66233513278E+01 -0.14165013067E+04 -0.14969047309E+04  0.20629076410E+04  0.91347364644E+02 0.  0.
        254    2    1    2    0    0 -0.66233513278E+01  0.14165013067E+04  0.30295193767E+03  0.17065086651E+04  0.90214861693E+03 0.  0.
         23    2    4    4    0    0  0.41804345002E+03  0.91867463456E+03  0.11874797888E+03  0.10207203243E+04  0.95107768884E+02 0.  0.
         23    2    4    4    0    0 -0.42466680135E+03  0.49782667213E+03  0.18420395879E+03  0.68578834083E+03  0.90560821164E+02 0.  0.
          1    1    3    3  502    0 -0.11310915528E+02 -0.13621150260E+04 -0.14391288922E+04  0.19815592974E+04  0.00000000000E+00 0. -1.
         -1    1    3    3    0  502  0.17934266856E+02 -0.54386280721E+02 -0.57775838781E+02  0.81348343592E+02  0.00000000000E+00 0.  1.
         11    1    5    5    0    0  0.30028992109E+03  0.64722788818E+03  0.40419560743E+02  0.71464097059E+03  0.00000000000E+00 0.  1.
        -11    1    5    5    0    0  0.11775352893E+03  0.27144674638E+03  0.78328418133E+02  0.30607935373E+03  0.00000000000E+00 0. -1.
          4    1    6    6  503    0 -0.17462718855E+03  0.26802426867E+03  0.10905926891E+03  0.33797276179E+03  0.00000000000E+00 0. -1.
         -4    1    6    6    0  503 -0.25003961280E+03  0.22980240346E+03  0.75144689881E+02  0.34781557904E+03  0.00000000000E+00 0.  1.
<mgrwt>
<rscale>  0 0.35753288E+04</rscale>
<asrwt>0</asrwt>
<pdfrwt beam="1">  1        2 0.19811258E+00 0.35753288E+04</pdfrwt>
<pdfrwt beam="2">  1       -2 0.38179762E+00 0.35753288E+04</pdfrwt>
<totfact> 0.13370717E-01</totfact>
</mgrwt>
</event>
<event>
12    2  0.3561489E-008  0.1334350E+04  0.7818608E-02  0.9002760E-01
         -2   -1    0    0    0  501 -0.00000000000E+00  0.00000000000E+00  0.22046326124E+03  0.22046326124E+03  0.00000000000E+00 0. -1.
          2   -1    0    0  501    0  0.00000000000E+00 -0.00000000000E+00 -0.20190324932E+04  0.20190324932E+04  0.00000000000E+00 0.  1.
         23    2    1    2    0    0  0.20045970033E+03  0.29090402866E+03 -0.47285755360E+03  0.59796080025E+03  0.95674486099E+02 0.  0.
        254    2    1    2    0    0 -0.20045970033E+03 -0.29090402866E+03 -0.13257116784E+04  0.16415349542E+04  0.90128591820E+03 0.  0.
         23    2    4    4    0    0 -0.52391910718E+03 -0.45853732019E+02 -0.58090738613E+03  0.78867002443E+03  0.89180830792E+02 0.  0.
         23    2    4    4    0    0  0.32345940685E+03 -0.24505029664E+03 -0.74480429223E+03  0.85286492976E+03  0.89272162064E+02 0.  0.
          3    1    3    3  502    0  0.83988639874E+02  0.10359591245E+03 -0.10798133865E+03  0.17159887587E+03  0.00000000000E+00 0. -1.
         -3    1    3    3    0  502  0.11647106045E+03  0.18730811621E+03 -0.36487621494E+03  0.42636192437E+03  0.00000000000E+00 0.  1.
         11    1    5    5    0    0 -0.13452779912E+03 -0.23156043841E+02 -0.20968183667E+03  0.25020072688E+03  0.00000000000E+00 0. -1.
        -11    1    5    5    0    0 -0.38939130806E+03 -0.22697688177E+02 -0.37122554945E+03  0.53846929755E+03  0.00000000000E+00 0.  1.
          1    1    6    6  503    0  0.18881626119E+03 -0.15946284631E+03 -0.36382053093E+03  0.43982423600E+03  0.00000000000E+00 0. -1.
         -1    1    6    6    0  503  0.13464314566E+03 -0.85587450330E+02 -0.38098376130E+03  0.41304069376E+03  0.00000000000E+00 0.  1.
<mgrwt>
<rscale>  0 0.13343500E+04</rscale>
<asrwt>0</asrwt>
<pdfrwt beam="1">  1        2 0.31062038E+00 0.13343500E+04</pdfrwt>
<pdfrwt beam="2">  1       -2 0.33917425E-01 0.13343500E+04</pdfrwt>
<totfact> 0.51910560E+01</totfact>
</mgrwt>
</event>
<event>
12    2  0.3561489E-008  0.1899116E+04  0.7818608E-02  0.8655297E-01
          2   -1    0    0  501    0  0.00000000000E+00  0.00000000000E+00  0.23622045458E+04  0.23622045458E+04  0.00000000000E+00 0.  1.
         -2   -1    0    0    0  501 -0.00000000000E+00 -0.00000000000E+00 -0.38170275417E+03  0.38170275417E+03  0.00000000000E+00 0. -1.
         23    2    1    2    0    0  0.28811053051E+03 -0.58630187570E+03  0.12563629737E+04  0.14188676344E+04  0.89330146178E+02 0.  0.
        254    2    1    2    0    0 -0.28811053051E+03  0.58630187570E+03  0.72413881796E+03  0.13250396656E+04  0.89699248631E+03 0.  0.
         23    2    4    4    0    0 -0.48856454803E+03  0.67427065736E+03  0.41379041950E+03  0.93426762670E+03  0.91089242292E+02 0.  0.
         23    2    4    4    0    0  0.20045401752E+03 -0.87968781663E+02  0.31034839846E+03  0.39077203890E+03  0.92012707126E+02 0.  0.
          1    1    3    3  502    0  0.58941295709E+02 -0.21310732982E+03  0.40159530722E+03  0.45844040087E+03  0.00000000000E+00 0. -1.
         -1    1    3    3    0  502  0.22916923480E+03 -0.37319454587E+03  0.85476766643E+03  0.96042723349E+03  0.00000000000E+00 0.  1.
         11    1    5    5    0    0 -0.40107504522E+03  0.60141239562E+03  0.37202468412E+03  0.81299472760E+03  0.00000000000E+00 0.  1.
        -11    1    5    5    0    0 -0.87489502806E+02  0.72858261739E+02  0.41765735385E+02  0.12127289910E+03  0.00000000000E+00 0. -1.
          1    1    6    6  503    0  0.35768865985E+02 -0.14170168476E+02  0.13025824225E+03  0.13582126168E+03  0.00000000000E+00 0. -1.
         -1    1    6    6    0  503  0.16468515154E+03 -0.73798613188E+02  0.18009015621E+03  0.25495077723E+03  0.00000000000E+00 0.  1.
<mgrwt>
<rscale>  0 0.18991156E+04</rscale>
<asrwt>0</asrwt>
<pdfrwt beam="1">  1        2 0.36341608E+00 0.18991156E+04</pdfrwt>
<pdfrwt beam="2">  1       -2 0.58723502E-01 0.18991156E+04</pdfrwt>
<totfact> 0.10612248E+01</totfact>
</mgrwt>
</event>
<event>
12    2  0.3561489E-008  0.1634751E+04  0.7818608E-02  0.8799479E-01
          2   -1    0    0  501    0  0.00000000000E+00  0.00000000000E+00  0.16355439755E+04  0.16355439755E+04  0.00000000000E+00 0.  1.
         -2   -1    0    0    0  501 -0.00000000000E+00 -0.00000000000E+00 -0.40848982255E+03  0.40848982255E+03  0.00000000000E+00 0. -1.
         23    2    1    2    0    0 -0.39430872332E+03 -0.39835624330E+03  0.49282641060E+03  0.75242641498E+03  0.95396923980E+02 0.  0.
        254    2    1    2    0    0  0.39430872332E+03  0.39835624330E+03  0.73422774234E+03  0.12916073831E+04  0.90276917788E+03 0.  0.
         23    2    4    4    0    0 -0.15784827473E+03  0.22417889067E+03  0.63202490274E+03  0.69476403445E+03  0.89829466398E+02 0.  0.
         23    2    4    4    0    0  0.55215699805E+03  0.17417735263E+03  0.10220283961E+03  0.59684334862E+03  0.10276897249E+03 0.  0.
          1    1    3    3  502    0 -0.38652713572E+02 -0.17499519565E+02  0.67769388795E+02  0.79955959810E+02  0.00000000000E+00 0. -1.
         -1    1    3    3    0  502 -0.35565600975E+03 -0.38085672374E+03  0.42505702181E+03  0.67247045517E+03  0.00000000000E+00 0.  1.
         11    1    5    5    0    0 -0.20621558223E+02  0.31042452518E+01  0.16807900857E+02  0.26784147053E+02  0.00000000000E+00 0.  1.
        -11    1    5    5    0    0 -0.13722671651E+03  0.22107464542E+03  0.61521700188E+03  0.66797988740E+03  0.00000000000E+00 0. -1.
          3    1    6    6  503    0  0.51971316896E+03  0.18167550596E+03  0.78846012148E+02  0.55616945357E+03  0.00000000000E+00 0. -1.
         -3    1    6    6    0  503  0.32443829088E+02 -0.74981533313E+01  0.23356827460E+02  0.40673895047E+02  0.00000000000E+00 0.  1.
<mgrwt>
<rscale>  0 0.16347514E+04</rscale>
<asrwt>0</asrwt>
<pdfrwt beam="1">  1        2 0.25162215E+00 0.16347514E+04</pdfrwt>
<pdfrwt beam="2">  1       -2 0.62844589E-01 0.16347514E+04</pdfrwt>
<totfact> 0.23908240E+01</totfact>
</mgrwt>
</event>
<event>
12    2  0.3561489E-008  0.1116621E+04  0.7818608E-02  0.9189141E-01
          2   -1    0    0  501    0  0.00000000000E+00  0.00000000000E+00  0.15397101687E+04  0.15397101687E+04  0.00000000000E+00 0. -1.
         -2   -1    0    0    0  501 -0.00000000000E+00 -0.00000000000E+00 -0.20244768349E+03  0.20244768349E+03  0.00000000000E+00 0.  1.
         23    2    1    2    0    0 -0.13072276972E+02  0.17381334394E+03  0.24476341177E+03  0.31398537219E+03  0.91080861045E+02 0.  0.
        254    2    1    2    0    0  0.13072276972E+02 -0.17381334394E+03  0.10924990735E+04  0.14281724800E+04  0.90318350530E+03 0.  0.
         23    2    4    4    0    0  0.35545385263E+03 -0.17033116498E+03  0.97368052321E+03  0.10544102064E+04  0.91471169691E+02 0.  0.
         23    2    4    4    0    0 -0.34238157566E+03 -0.34821789640E+01  0.11881855028E+03  0.37376227369E+03  0.91340683298E+02 0.  0.
          3    1    3    3  502    0 -0.42486273970E+02  0.13304510628E+03  0.21237581621E+03  0.25418412832E+03  0.00000000000E+00 0. -1.
         -3    1    3    3    0  502  0.29413996998E+02  0.40768237659E+02  0.32387595558E+02  0.59801243860E+02  0.00000000000E+00 0.  1.
         11    1    5    5    0    0  0.27875740070E+03 -0.16545898812E+03  0.83740649921E+03  0.89795991565E+03  0.00000000000E+00 0.  1.
        -11    1    5    5    0    0  0.76696451929E+02 -0.48721768597E+01  0.13627402399E+03  0.15645029070E+03  0.00000000000E+00 0. -1.
          1    1    6    6  503    0 -0.20293245571E+02 -0.20205617138E+02  0.24619803717E+02  0.37765295111E+02  0.00000000000E+00 0. -1.
         -1    1    6    6    0  503 -0.32208833009E+03  0.16723438174E+02  0.94198746561E+02  0.33599697858E+03  0.00000000000E+00 0.  1.
<mgrwt>
<rscale>  0 0.11166213E+04</rscale>
<asrwt>0</asrwt>
<pdfrwt beam="1">  1        2 0.23687848E+00 0.11166213E+04</pdfrwt>
<pdfrwt beam="2">  1       -2 0.31145798E-01 0.11166213E+04</pdfrwt>
<totfact> 0.11423165E+02</totfact>
</mgrwt>
</event>
<event>
12    2  0.3561489E-008  0.2033088E+04  0.7818608E-02  0.8591305E-01
         -2   -1    0    0    0  501 -0.00000000000E+00  0.00000000000E+00  0.93511085090E+03  0.93511085090E+03  0.00000000000E+00 0. -1.
          2   -1    0    0  501    0  0.00000000000E+00 -0.00000000000E+00 -0.11050686684E+04  0.11050686684E+04  0.00000000000E+00 0.  1.
         23    2    1    2    0    0 -0.32387407825E+02 -0.70773239876E+03 -0.47292390420E+03  0.85653076889E+03  0.89743225094E+02 0.  0.
        254    2    1    2    0    0  0.32387407825E+02  0.70773239876E+03  0.30296608670E+03  0.11836487504E+04  0.89849976194E+03 0.  0.
         23    2    4    4    0    0 -0.91015995710E+02  0.87577072939E+03  0.34807252353E+03  0.95111240298E+03  0.90565112041E+02 0.  0.
         23    2    4    4    0    0  0.12340340353E+03 -0.16803833063E+03 -0.45106436835E+02  0.23253634743E+03  0.92592017279E+02 0.  0.
          3    1    3    3  502    0 -0.12947624590E+02 -0.54038817828E+02 -0.66026276713E+02  0.86297763768E+02  0.00000000000E+00 0. -1.
         -3    1    3    3    0  502 -0.19439783235E+02 -0.65369358093E+03 -0.40689762749E+03  0.77023300512E+03  0.00000000000E+00 0.  1.
         11    1    5    5    0    0 -0.65341948189E+02  0.39310031123E+03  0.11666071577E+03  0.41521939681E+03  0.00000000000E+00 0. -1.
        -11    1    5    5    0    0 -0.25674047520E+02  0.48267041816E+03  0.23141180777E+03  0.53589300617E+03  0.00000000000E+00 0.  1.
          2    1    6    6  503    0  0.99907570345E+02 -0.58940797459E+02 -0.15122628967E+02  0.11697963124E+03  0.00000000000E+00 0. -1.
         -2    1    6    6    0  503  0.23495833190E+02 -0.10909753317E+03 -0.29983807868E+02  0.11555671619E+03  0.00000000000E+00 0.  1.
<mgrwt>
<rscale>  0 0.20330880E+04</rscale>
<asrwt>0</asrwt>
<pdfrwt beam="1">  1        2 0.17001056E+00 0.20330880E+04</pdfrwt>
<pdfrwt beam="2">  1       -2 0.14386321E+00 0.20330880E+04</pdfrwt>
<totfact> 0.67044384E+00</totfact>
</mgrwt>
</event>
<event>
12    2  0.3561489E-008  0.2238709E+04  0.7818608E-02  0.8502487E-01
          2   -1    0    0  501    0  0.00000000000E+00  0.00000000000E+00  0.15122493176E+04  0.15122493176E+04  0.00000000000E+00 0. -1.
         -2   -1    0    0    0  501 -0.00000000000E+00 -0.00000000000E+00 -0.82853690910E+03  0.82853690910E+03  0.00000000000E+00 0.  1.
         23    2    1    2    0    0 -0.40189557539E+03  0.84435961143E+03  0.33701127904E+03  0.99826760186E+03  0.92186744069E+02 0.  0.
        254    2    1    2    0    0  0.40189557539E+03 -0.84435961143E+03  0.34670112949E+03  0.13425186249E+04  0.89871651705E+03 0.  0.
         23    2    4    4    0    0  0.26298571153E+03  0.52929264611E+02  0.32383118648E+03  0.42958909227E+03  0.87847363903E+02 0.  0.
         23    2    4    4    0    0  0.13890986387E+03 -0.89728887604E+03  0.22869943016E+02  0.91292953260E+03  0.92163007014E+02 0.  0.
          4    1    3    3  502    0 -0.37903651772E+03  0.81815604259E+03  0.33930537822E+03  0.96341898023E+03  0.00000000000E+00 0.  1.
         -4    1    3    3    0  502 -0.22859057672E+02  0.26203568843E+02 -0.22940991850E+01  0.34848621620E+02  0.00000000000E+00 0. -1.
         11    1    5    5    0    0  0.18269446389E+03  0.69532196506E+02  0.18976058377E+03  0.27243544674E+03  0.00000000000E+00 0.  1.
        -11    1    5    5    0    0  0.80291247640E+02 -0.16602931895E+02  0.13407060270E+03  0.15715364553E+03  0.00000000000E+00 0. -1.
          1    1    6    6  503    0 -0.42908403978E+01 -0.11043921722E+03 -0.18619025045E+02  0.11207988270E+03  0.00000000000E+00 0. -1.
         -1    1    6    6    0  503  0.14320070426E+03 -0.78684965882E+03  0.41488968061E+02  0.80084964990E+03  0.00000000000E+00 0.  1.
<mgrwt>
<rscale>  0 0.22387089E+04</rscale>
<asrwt>0</asrwt>
<pdfrwt beam="1">  1        2 0.23265374E+00 0.22387089E+04</pdfrwt>
<pdfrwt beam="2">  1       -2 0.12746722E+00 0.22387089E+04</pdfrwt>
<totfact> 0.51968380E+00</totfact>
</mgrwt>
</event>
<event>
12    2  0.3561489E-008  0.1551535E+04  0.7818608E-02  0.8850888E-01
          2   -1    0    0  501    0  0.00000000000E+00  0.00000000000E+00  0.30001021999E+03  0.30001021999E+03  0.00000000000E+00 0.  1.
         -2   -1    0    0    0  501 -0.00000000000E+00 -0.00000000000E+00 -0.20059815899E+04  0.20059815899E+04  0.00000000000E+00 0. -1.
         23    2    1    2    0    0  0.38241656075E+03 -0.30075396677E+03 -0.78883519423E+03  0.93115373619E+03  0.89949665338E+02 0.  0.
        254    2    1    2    0    0 -0.38241656075E+03  0.30075396677E+03 -0.91713617570E+03  0.13748380737E+04  0.90130216339E+03 0.  0.
         23    2    4    4    0    0 -0.63960397356E+03  0.15604010221E+03 -0.41167903884E+03  0.78252297423E+03  0.97060896787E+02 0.  0.
         23    2    4    4    0    0  0.25718741282E+03  0.14471386456E+03 -0.50545713686E+03  0.59231509949E+03  0.90899900884E+02 0.  0.
          3    1    3    3  502    0 -0.21630557410E+01  0.35443587111E+01 -0.93774711938E+01  0.10255645021E+02  0.00000000000E+00 0. -1.
         -3    1    3    3    0  502  0.38457961649E+03 -0.30429832548E+03 -0.77945772304E+03  0.92089809117E+03  0.00000000000E+00 0.  1.
         11    1    5    5    0    0 -0.29515953891E+03  0.64765122571E+02 -0.13299374451E+03  0.33015301088E+03  0.00000000000E+00 0. -1.
        -11    1    5    5    0    0 -0.34444443465E+03  0.91274979642E+02 -0.27868529433E+03  0.45236996336E+03  0.00000000000E+00 0.  1.
          2    1    6    6  503    0  0.84141838452E+02  0.55373657570E+01 -0.10791618736E+03  0.13695406125E+03  0.00000000000E+00 0.  1.
         -2    1    6    6    0  503  0.17304557437E+03  0.13917649880E+03 -0.39754094950E+03  0.45536103825E+03  0.00000000000E+00 0. -1.
<mgrwt>
<rscale>  0 0.15515347E+04</rscale>
<asrwt>0</asrwt>
<pdfrwt beam="1">  1        2 0.46155417E-01 0.15515347E+04</pdfrwt>
<pdfrwt beam="2">  1       -2 0.30861256E+00 0.15515347E+04</pdfrwt>
<totfact> 0.29850499E+00</totfact>
</mgrwt>
</event>
<event>
12    2  0.3561489E-008  0.2517327E+04  0.7818608E-02  0.8396839E-01
         -2   -1    0    0    0  501 -0.00000000000E+00  0.00000000000E+00  0.55792665003E+03  0.55792665003E+03  0.00000000000E+00 0.  1.
          2   -1    0    0  501    0  0.00000000000E+00 -0.00000000000E+00 -0.28395012350E+04  0.28395012350E+04  0.00000000000E+00 0. -1.
         23    2    1    2    0    0  0.34646468336E+03 -0.15315661310E+03  0.39044428823E+03  0.55154743633E+03  0.90901635581E+02 0.  0.
        254    2    1    2    0    0 -0.34646468336E+03  0.15315661310E+03 -0.26720188732E+04  0.28458804487E+04  0.90324744376E+03 0.  0.
         23    2    4    4    0    0 -0.49935543931E+03  0.41388972547E+03 -0.19844855213E+04  0.20897356836E+04  0.90287781621E+02 0.  0.
         23    2    4    4    0    0  0.15289075594E+03 -0.26073311237E+03 -0.68753335187E+03  0.75614476507E+03  0.87723752032E+02 0.  0.
          3    1    3    3  502    0  0.10610432120E+03 -0.51640407131E+02  0.66013006190E+02  0.13521307486E+03  0.00000000000E+00 0. -1.
         -3    1    3    3    0  502  0.24036036217E+03 -0.10151620597E+03  0.32443128204E+03  0.41633436147E+03  0.00000000000E+00 0.  1.
         11    1    5    5    0    0  0.67376937834E+00 -0.25490641260E+01 -0.22440724430E+02  0.22595083670E+02  0.00000000000E+00 0. -1.
        -11    1    5    5    0    0 -0.50002920868E+03  0.41643878959E+03 -0.19620447969E+04  0.20671406000E+04  0.00000000000E+00 0.  1.
          1    1    6    6  503    0 -0.73264528985E+01 -0.49440777625E+01 -0.49998825819E+02  0.50774042584E+02  0.00000000000E+00 0. -1.
         -1    1    6    6    0  503  0.16021720884E+03 -0.25578903460E+03 -0.63753452605E+03  0.70537072249E+03  0.00000000000E+00 0.  1.
<mgrwt>
<rscale>  0 0.25173267E+04</rscale>
<asrwt>0</asrwt>
<pdfrwt beam="1">  1        2 0.43684634E+00 0.25173267E+04</pdfrwt>
<pdfrwt beam="2">  1       -2 0.85834869E-01 0.25173267E+04</pdfrwt>
<totfact> 0.22961429E+00</totfact>
</mgrwt>
</event>
<event>
12    2  0.3561489E-008  0.1264673E+04  0.7818608E-02  0.9058059E-01
          1   -1    0    0  501    0  0.00000000000E+00  0.00000000000E+00  0.98825641865E+03  0.98825641865E+03  0.00000000000E+00 0. -1.
         -1   -1    0    0    0  501 -0.00000000000E+00 -0.00000000000E+00 -0.40460064156E+03  0.40460064156E+03  0.00000000000E+00 0.  1.
         23    2    1    2    0    0 -0.84918669136E+02  0.99874403875E+02  0.44497060507E+03  0.47228428200E+03  0.88699079655E+02 0.  0.
        254    2    1    2    0    0  0.84918669136E+02 -0.99874403875E+02  0.13868517203E+03  0.92057277821E+03  0.90057458665E+03 0.  0.
         23    2    4    4    0    0  0.91718636581E+02 -0.26135984735E+03 -0.31466910467E+03  0.43041941741E+03  0.97585610349E+02 0.  0.
         23    2    4    4    0    0 -0.67999674454E+01  0.16148544347E+03  0.45335427670E+03  0.49015336080E+03  0.92716928858E+02 0.  0.
          4    1    3    3  502    0 -0.68339971338E+02  0.11017229686E+03  0.31162557302E+03  0.33751856903E+03  0.00000000000E+00 0. -1.
         -4    1    3    3    0  502 -0.16578697798E+02 -0.10297892989E+02  0.13334503205E+03  0.13476571298E+03  0.00000000000E+00 0.  1.
         11    1    5    5    0    0  0.44967427496E+01  0.12202681078E+01 -0.40961322148E+02  0.41225473457E+02  0.00000000000E+00 0.  1.
        -11    1    5    5    0    0  0.87221893832E+02 -0.26258011545E+03 -0.27370778252E+03  0.38919394395E+03  0.00000000000E+00 0. -1.
          1    1    6    6  503    0  0.11856458438E+02  0.83764326597E+02  0.34670084912E+03  0.35687325033E+03  0.00000000000E+00 0. -1.
         -1    1    6    6    0  503 -0.18656425883E+02  0.77721116874E+02  0.10665342757E+03  0.13328011047E+03  0.00000000000E+00 0.  1.
<mgrwt>
<rscale>  0 0.12646726E+04</rscale>
<asrwt>0</asrwt>
<pdfrwt beam="1">  1        1 0.15203945E+00 0.12646726E+04</pdfrwt>
<pdfrwt beam="2">  1       -1 0.62246253E-01 0.12646726E+04</pdfrwt>
<totfact> 0.39858591E+01</totfact>
</mgrwt>
</event>
<event>
12    2  0.3561489E-008  0.1173305E+04  0.7818608E-02  0.9136549E-01
         -1   -1    0    0    0  501 -0.00000000000E+00  0.00000000000E+00  0.32796369915E+03  0.32796369915E+03  0.00000000000E+00 0.  1.
          1   -1    0    0  501    0  0.00000000000E+00 -0.00000000000E+00 -0.10493882227E+04  0.10493882227E+04  0.00000000000E+00 0. -1.
         23    2    1    2    0    0  0.60059666818E+01 -0.75141768121E+02 -0.36470151246E+03  0.38398572638E+03  0.93570764228E+02 0.  0.
        254    2    1    2    0    0 -0.60059666818E+01  0.75141768121E+02 -0.35672301112E+03  0.99336619550E+03  0.92403611117E+03 0.  0.
         23    2    4    4    0    0  0.15589840495E+03 -0.30574622379E+03 -0.43559466382E+03  0.56219521693E+03  0.92388769688E+02 0.  0.
         23    2    4    4    0    0 -0.16190437163E+03  0.38088799191E+03  0.78871652696E+02  0.43117097857E+03  0.91645988631E+02 0.  0.
          1    1    3    3  502    0  0.43321765700E+02 -0.43694056495E+02 -0.27570904334E+03  0.28249145569E+03  0.00000000000E+00 0. -1.
         -1    1    3    3    0  502 -0.37315799018E+02 -0.31447711627E+02 -0.88992469120E+02  0.10149427069E+03  0.00000000000E+00 0.  1.
         11    1    5    5    0    0  0.10174501394E+03 -0.11827486037E+03 -0.23726115814E+03  0.28396099665E+03  0.00000000000E+00 0.  1.
        -11    1    5    5    0    0  0.54153391011E+02 -0.18747136342E+03 -0.19833350568E+03  0.27823422028E+03  0.00000000000E+00 0. -1.
          4    1    6    6  503    0 -0.11012679434E+03  0.33422180961E+03  0.48833408027E+02  0.35527008120E+03  0.00000000000E+00 0. -1.
         -4    1    6    6    0  503 -0.51777577289E+02  0.46666182294E+02  0.30038244669E+02  0.75900897377E+02  0.00000000000E+00 0.  1.
<mgrwt>
<rscale>  0 0.11733051E+04</rscale>
<asrwt>0</asrwt>
<pdfrwt beam="1">  1        1 0.16144434E+00 0.11733051E+04</pdfrwt>
<pdfrwt beam="2">  1       -1 0.50455954E-01 0.11733051E+04</pdfrwt>
<totfact> 0.54177709E+01</totfact>
</mgrwt>
</event>
<event>
12    2  0.3561489E-008  0.1843381E+04  0.7818608E-02  0.8683564E-01
          2   -1    0    0  501    0  0.00000000000E+00  0.00000000000E+00  0.25133768467E+04  0.25133768467E+04  0.00000000000E+00 0. -1.
         -2   -1    0    0    0  501 -0.00000000000E+00 -0.00000000000E+00 -0.33799690477E+03  0.33799690477E+03  0.00000000000E+00 0.  1.
         23    2    1    2    0    0 -0.42320326336E+03  0.11692754091E+03  0.16642633638E+04  0.17235900073E+04  0.90647213070E+02 0.  0.
        254    2    1    2    0    0  0.42320326336E+03 -0.11692754091E+03  0.51111657806E+03  0.11277837441E+04  0.90436882143E+03 0.  0.
         23    2    4    4    0    0  0.54034679560E+03  0.13644614646E+02  0.67568210925E+03  0.87018086002E+03  0.92236551074E+02 0.  0.
         23    2    4    4    0    0 -0.11714353225E+03 -0.13057215556E+03 -0.16456553118E+03  0.25760288409E+03  0.92226551955E+02 0.  0.
          4    1    3    3  502    0 -0.24668445446E+03  0.21635917767E+02  0.90223889324E+03  0.93560480626E+03  0.00000000000E+00 0. -1.
         -4    1    3    3    0  502 -0.17651880890E+03  0.95291623142E+02  0.76202447057E+03  0.78798520106E+03  0.00000000000E+00 0.  1.
         11    1    5    5    0    0  0.92882349036E+02  0.36784875571E+02  0.13580025606E+03  0.16858815907E+03  0.00000000000E+00 0. -1.
        -11    1    5    5    0    0  0.44746444657E+03 -0.23140260925E+02  0.53988185318E+03  0.70159270094E+03  0.00000000000E+00 0.  1.
          2    1    6    6  503    0 -0.88152469134E+02 -0.10885896651E+03 -0.70524133789E+02  0.15682724843E+03  0.00000000000E+00 0. -1.
         -2    1    6    6    0  503 -0.28991063115E+02 -0.21713189044E+02 -0.94041397394E+02  0.10077563566E+03  0.00000000000E+00 0.  1.
<mgrwt>
<rscale>  0 0.18433812E+04</rscale>
<asrwt>0</asrwt>
<pdfrwt beam="1">  1        2 0.38667335E+00 0.18433812E+04</pdfrwt>
<pdfrwt beam="2">  1       -2 0.51999525E-01 0.18433812E+04</pdfrwt>
<totfact> 0.11244996E+01</totfact>
</mgrwt>
</event>
<event>
12    2  0.3561489E-008  0.1267371E+04  0.7818608E-02  0.9055848E-01
         -2   -1    0    0    0  501 -0.00000000000E+00  0.00000000000E+00  0.15444770150E+03  0.15444770150E+03  0.00000000000E+00 0.  1.
          2   -1    0    0  501    0  0.00000000000E+00 -0.00000000000E+00 -0.25999546550E+04  0.25999546550E+04  0.00000000000E+00 0. -1.
         23    2    1    2    0    0 -0.38239536279E+02  0.26994605814E+03 -0.30550510662E+03  0.42015689135E+03  0.94155757852E+02 0.  0.
        254    2    1    2    0    0  0.38239536279E+02 -0.26994605814E+03 -0.21400018469E+04  0.23342454652E+04  0.89149360651E+03 0.  0.
         23    2    4    4    0    0 -0.38032663675E+02 -0.39486276565E+03 -0.21248490176E+04  0.21634648083E+04  0.90738867634E+02 0.  0.
         23    2    4    4    0    0  0.76272199954E+02  0.12491670751E+03 -0.15152829349E+02  0.17078065687E+03  0.86687901259E+02 0.  0.
          3    1    3    3  502    0 -0.62543267252E+01  0.60320050669E+01 -0.52324162754E+02  0.53040736192E+02  0.00000000000E+00 0. -1.
         -3    1    3    3    0  502 -0.31985209554E+02  0.26391405308E+03 -0.25318094386E+03  0.36711615516E+03  0.00000000000E+00 0.  1.
         11    1    5    5    0    0  0.24919823003E+02 -0.21035407059E+03 -0.11365884631E+04  0.11561587984E+04  0.00000000000E+00 0. -1.
        -11    1    5    5    0    0 -0.62952486679E+02 -0.18450869506E+03 -0.98826055449E+03  0.10073060100E+04  0.00000000000E+00 0.  1.
          4    1    6    6  503    0  0.30880941826E+02  0.91008131828E+02  0.27386277180E+02  0.99930579927E+02  0.00000000000E+00 0. -1.
         -4    1    6    6    0  503  0.45391258128E+02  0.33908575681E+02 -0.42539106529E+02  0.70850076948E+02  0.00000000000E+00 0.  1.
<mgrwt>
<rscale>  0 0.12673705E+04</rscale>
<asrwt>0</asrwt>
<pdfrwt beam="1">  1        2 0.39999301E+00 0.12673705E+04</pdfrwt>
<pdfrwt beam="2">  1       -2 0.23761186E-01 0.12673705E+04</pdfrwt>
<totfact> 0.47323197E+01</totfact>
</mgrwt>
</event>
<event>
12    2  0.3561489E-008  0.1584575E+04  0.7818608E-02  0.8830081E-01
          2   -1    0    0  501    0  0.00000000000E+00  0.00000000000E+00  0.44884593810E+03  0.44884593810E+03  0.00000000000E+00 0. -1.
         -2   -1    0    0    0  501 -0.00000000000E+00 -0.00000000000E+00 -0.13985184186E+04  0.13985184186E+04  0.00000000000E+00 0.  1.
         23    2    1    2    0    0 -0.35820393609E+03 -0.32401986582E+03 -0.67485181658E+02  0.49607606619E+03  0.90764973540E+02 0.  0.
        254    2    1    2    0    0  0.35820393609E+03  0.32401986582E+03 -0.88218729883E+03  0.13512882905E+04  0.90245591613E+03 0.  0.
         23    2    4    4    0    0 -0.87808253236E+02 -0.13508096341E+03  0.71929286464E+02  0.19873598930E+03  0.91460456922E+02 0.  0.
         23    2    4    4    0    0  0.44601218933E+03  0.45910082923E+03 -0.95411658530E+03  0.11525523012E+04  0.91312125401E+02 0.  0.
          2    1    3    3  502    0 -0.31129724472E+03 -0.23393215584E+03 -0.44424527181E+02  0.39192316430E+03  0.00000000000E+00 0. -1.
         -2    1    3    3    0  502 -0.46906691377E+02 -0.90087709982E+02 -0.23060654477E+02  0.10415290188E+03  0.00000000000E+00 0.  1.
         11    1    5    5    0    0  0.10084902966E+02 -0.49886255234E+02  0.40929014982E+02  0.65311009765E+02  0.00000000000E+00 0. -1.
        -11    1    5    5    0    0 -0.97893156203E+02 -0.85194708178E+02  0.31000271481E+02  0.13342497954E+03  0.00000000000E+00 0.  1.
          3    1    6    6  503    0  0.15255032800E+03  0.14877032114E+03 -0.39680073144E+03  0.45039430669E+03  0.00000000000E+00 0. -1.
         -3    1    6    6    0  503  0.29346186133E+03  0.31033050808E+03 -0.55731585386E+03  0.70215799452E+03  0.00000000000E+00 0.  1.
<mgrwt>
<rscale>  0 0.15845748E+04</rscale>
<asrwt>0</asrwt>
<pdfrwt beam="1">  1        2 0.69053221E-01 0.15845748E+04</pdfrwt>
<pdfrwt beam="2">  1       -2 0.21515668E+00 0.15845748E+04</pdfrwt>
<totfact> 0.71000750E+00</totfact>
</mgrwt>
</event>
<event>
12    2  0.3561489E-008  0.1203766E+04  0.7818608E-02  0.9109566E-01
         -2   -1    0    0    0  501 -0.00000000000E+00  0.00000000000E+00  0.14485285273E+03  0.14485285273E+03  0.00000000000E+00 0.  1.
          2   -1    0    0  501    0  0.00000000000E+00 -0.00000000000E+00 -0.25009055305E+04  0.25009055305E+04  0.00000000000E+00 0. -1.
         23    2    1    2    0    0  0.51833914638E+02 -0.79344165297E+02 -0.11003626364E+04  0.11082892363E+04  0.92330106151E+02 0.  0.
        254    2    1    2    0    0 -0.51833914638E+02  0.79344165297E+02 -0.12556900414E+04  0.15374691469E+04  0.88208369580E+03 0.  0.
         23    2    4    4    0    0  0.21779137129E+03 -0.18653912901E+03 -0.99796081214E+02  0.31764094556E+03  0.93309080014E+02 0.  0.
         23    2    4    4    0    0 -0.26962528592E+03  0.26588329430E+03 -0.11558939601E+04  0.12198282013E+04  0.92186076258E+02 0.  0.
          3    1    3    3  502    0  0.19382104425E+00 -0.78114646090E+02 -0.55211623304E+03  0.55761480458E+03  0.00000000000E+00 0. -1.
         -3    1    3    3    0  502  0.51640093593E+02 -0.12295192064E+01 -0.54824640336E+03  0.55067443175E+03  0.00000000000E+00 0.  1.
         11    1    5    5    0    0  0.52016965485E+01  0.47675324620E+01 -0.19277761560E+02  0.20528494916E+02  0.00000000000E+00 0.  1.
        -11    1    5    5    0    0  0.21258967474E+03 -0.19130666147E+03 -0.80518319654E+02  0.29711245064E+03  0.00000000000E+00 0. -1.
          4    1    6    6  503    0 -0.16870720265E+03  0.21863406698E+03 -0.76301302441E+03  0.81145046114E+03  0.00000000000E+00 0. -1.
         -4    1    6    6    0  503 -0.10091808327E+03  0.47249227324E+02 -0.39288093573E+03  0.40837774018E+03  0.00000000000E+00 0.  1.
<mgrwt>
<rscale>  0 0.12037663E+04</rscale>
<asrwt>0</asrwt>
<pdfrwt beam="1">  1        2 0.38475469E+00 0.12037663E+04</pdfrwt>
<pdfrwt beam="2">  1       -2 0.22285055E-01 0.12037663E+04</pdfrwt>
<totfact> 0.60909123E+01</totfact>
</mgrwt>
</event>
<event>
12    2  0.3561489E-008  0.3469774E+04  0.7818608E-02  0.8120991E-01
          2   -1    0    0  501    0  0.00000000000E+00  0.00000000000E+00  0.21530886946E+04  0.21530886946E+04  0.00000000000E+00 0. -1.
         -2   -1    0    0    0  501 -0.00000000000E+00 -0.00000000000E+00 -0.13979138042E+04  0.13979138042E+04  0.00000000000E+00 0.  1.
         23    2    1    2    0    0 -0.59412265689E+03 -0.13369603207E+04 -0.34532772263E+03  0.15062991832E+04  0.96132007650E+02 0.  0.
        254    2    1    2    0    0  0.59412265689E+03  0.13369603207E+04  0.11005026130E+04  0.20447033156E+04  0.91063769804E+03 0.  0.
         23    2    4    4    0    0  0.77899695077E+03  0.11784915959E+04  0.73191344573E+03  0.15937133616E+04  0.92446178480E+02 0.  0.
         23    2    4    4    0    0 -0.18487429387E+03  0.15846872477E+03  0.36858916729E+03  0.45098995403E+03  0.90791646759E+02 0.  0.
          1    1    3    3  502    0 -0.23710659366E+03 -0.51295122387E+03 -0.18085470807E+03  0.59333541969E+03  0.00000000000E+00 0. -1.
         -1    1    3    3    0  502 -0.35701606323E+03 -0.82400909681E+03 -0.16447301456E+03  0.91296376354E+03  0.00000000000E+00 0.  1.
         11    1    5    5    0    0  0.72988498497E+03  0.10769999621E+04  0.69533449570E+03  0.14751783182E+04  0.00000000000E+00 0. -1.
        -11    1    5    5    0    0  0.49111965794E+02  0.10149163385E+03  0.36578950034E+02  0.11853504339E+03  0.00000000000E+00 0.  1.
          1    1    6    6  503    0 -0.62257061436E+02  0.38419097838E+02  0.18867541727E+03  0.20236200695E+03  0.00000000000E+00 0. -1.
         -1    1    6    6    0  503 -0.12261723244E+03  0.12004962693E+03  0.17991375003E+03  0.24862794707E+03  0.00000000000E+00 0.  1.
<mgrwt>
<rscale>  0 0.34697737E+04</rscale>
<asrwt>0</asrwt>
<pdfrwt beam="1">  1        2 0.33124442E+00 0.34697737E+04</pdfrwt>
<pdfrwt beam="2">  1       -2 0.21506366E+00 0.34697737E+04</pdfrwt>
<totfact> 0.48026189E-01</totfact>
</mgrwt>
</event>
<event>
12    2  0.3561489E-008  0.1146059E+04  0.7818608E-02  0.9161427E-01
          2   -1    0    0  501    0  0.00000000000E+00  0.00000000000E+00  0.49139642303E+03  0.49139642303E+03  0.00000000000E+00 0. -1.
         -2   -1    0    0    0  501 -0.00000000000E+00 -0.00000000000E+00 -0.66822364047E+03  0.66822364047E+03  0.00000000000E+00 0.  1.
         23    2    1    2    0    0 -0.15023131077E+03  0.89131433652E+02 -0.16201480847E+03  0.25579070724E+03  0.93092580513E+02 0.  0.
        254    2    1    2    0    0  0.15023131077E+03 -0.89131433652E+02 -0.14812408968E+02  0.90382935627E+03  0.88666467088E+03 0.  0.
         23    2    4    4    0    0 -0.94252654042E+02  0.27939980178E+03 -0.24654455072E+03  0.39573089186E+03  0.94185515069E+02 0.  0.
         23    2    4    4    0    0  0.24448396481E+03 -0.36853123543E+03  0.23173214176E+03  0.50809846441E+03  0.94215622256E+02 0.  0.
          1    1    3    3  502    0 -0.20500529248E+02  0.36637449950E+00  0.99643816525E+01  0.22796816257E+02  0.00000000000E+00 0. -1.
         -1    1    3    3    0  502 -0.12973078152E+03  0.88765059153E+02 -0.17197919012E+03  0.23299389098E+03  0.00000000000E+00 0.  1.
         11    1    5    5    0    0 -0.19176909891E+02  0.15820235984E+03 -0.86229729042E+02  0.18119411332E+03  0.00000000000E+00 0. -1.
        -11    1    5    5    0    0 -0.75075744151E+02  0.12119744194E+03 -0.16031482168E+03  0.21453677853E+03  0.00000000000E+00 0.  1.
          2    1    6    6  503    0  0.85916067280E+02 -0.14346157809E+03  0.38096795946E+02  0.17150557095E+03  0.00000000000E+00 0. -1.
         -2    1    6    6    0  503  0.15856789753E+03 -0.22506965734E+03  0.19363534581E+03  0.33659289346E+03  0.00000000000E+00 0.  1.
<mgrwt>
<rscale>  0 0.11460588E+04</rscale>
<asrwt>0</asrwt>
<pdfrwt beam="1">  1        2 0.75599450E-01 0.11460588E+04</pdfrwt>
<pdfrwt beam="2">  1       -2 0.10280364E+00 0.11460588E+04</pdfrwt>
<totfact> 0.48118488E+01</totfact>
</mgrwt>
</event>
<event>
12    2  0.3561489E-008  0.2528476E+04  0.7818608E-02  0.8392911E-01
         -1   -1    0    0    0  501 -0.00000000000E+00  0.00000000000E+00  0.91737458345E+03  0.91737458345E+03  0.00000000000E+00 0.  1.
          1   -1    0    0  501    0  0.00000000000E+00 -0.00000000000E+00 -0.17422513545E+04  0.17422513545E+04  0.00000000000E+00 0. -1.
         23    2    1    2    0    0 -0.56999948382E+03 -0.92147780881E+03 -0.47869267101E+03  0.11880878215E+04  0.91570926926E+02 0.  0.
        254    2    1    2    0    0  0.56999948382E+03  0.92147780881E+03 -0.34618410002E+03  0.14715381164E+04  0.93357390347E+03 0.  0.
         23    2    4    4    0    0 -0.12144091508E+03  0.18934343093E+02 -0.29094094934E+03  0.32956992050E+03  0.94145054515E+02 0.  0.
         23    2    4    4    0    0  0.69144039891E+03  0.90254346572E+03 -0.55243150677E+02  0.11419681959E+04  0.91460494324E+02 0.  0.
          1    1    3    3  502    0 -0.47866824242E+03 -0.82798128172E+03 -0.43005707775E+03  0.10486302395E+04  0.00000000000E+00 0. -1.
         -1    1    3    3    0  502 -0.91331241409E+02 -0.93496527093E+02 -0.48635593262E+02  0.13945758197E+03  0.00000000000E+00 0.  1.
         11    1    5    5    0    0 -0.87410557475E+02  0.20729637390E+02 -0.27956406434E+03  0.29364330317E+03  0.00000000000E+00 0.  1.
        -11    1    5    5    0    0 -0.34030357606E+02 -0.17952942970E+01 -0.11376884998E+02  0.35926617329E+02  0.00000000000E+00 0. -1.
          1    1    6    6  503    0  0.36566415121E+03  0.48543580794E+03 -0.74922579494E+02  0.61234923698E+03  0.00000000000E+00 0. -1.
         -1    1    6    6    0  503  0.32577624770E+03  0.41710765778E+03  0.19679428817E+02  0.52961895893E+03  0.00000000000E+00 0.  1.
<mgrwt>
<rscale>  0 0.25284755E+04</rscale>
<asrwt>0</asrwt>
<pdfrwt beam="1">  1        1 0.26803867E+00 0.25284755E+04</pdfrwt>
<pdfrwt beam="2">  1       -1 0.14113455E+00 0.25284755E+04</pdfrwt>
<totfact> 0.16219593E+00</totfact>
</mgrwt>
</event>
<event>
12    2  0.3561489E-008  0.1368733E+04  0.7818608E-02  0.8976767E-01
         -1   -1    0    0    0  501 -0.00000000000E+00  0.00000000000E+00  0.12717451415E+04  0.12717451415E+04  0.00000000000E+00 0.  1.
          1   -1    0    0  501    0  0.00000000000E+00 -0.00000000000E+00 -0.36827962995E+03  0.36827962995E+03  0.00000000000E+00 0. -1.
         23    2    1    2    0    0  0.23830951788E+03 -0.22087685895E+03  0.33130941829E+03  0.47339605899E+03  0.93594256718E+02 0.  0.
        254    2    1    2    0    0 -0.23830951788E+03  0.22087685895E+03  0.57215609327E+03  0.11666287125E+04  0.96337009738E+03 0.  0.
         23    2    4    4    0    0  0.32927427328E+03  0.20235516347E+03  0.69813469358E+02  0.40293965207E+03  0.90095968143E+02 0.  0.
         23    2    4    4    0    0 -0.56758379116E+03  0.18521695479E+02  0.50234262391E+03  0.76368906039E+03  0.91533906094E+02 0.  0.
          3    1    3    3  502    0  0.12899217695E+03 -0.94615000891E+02  0.10203247982E+03  0.18974089450E+03  0.00000000000E+00 0. -1.
         -3    1    3    3    0  502  0.10931734093E+03 -0.12626185806E+03  0.22927693847E+03  0.28365516450E+03  0.00000000000E+00 0.  1.
         11    1    5    5    0    0  0.16298884772E+02  0.28258449549E+02 -0.13389944551E+02  0.35263071772E+02  0.00000000000E+00 0. -1.
        -11    1    5    5    0    0  0.31297538851E+03  0.17409671392E+03  0.83203413909E+02  0.36767658030E+03  0.00000000000E+00 0.  1.
          3    1    6    6  503    0 -0.34934571081E+02 -0.12674080786E+01  0.66644285342E+02  0.75256171499E+02  0.00000000000E+00 0. -1.
         -3    1    6    6    0  503 -0.53264922008E+03  0.19789103557E+02  0.43569833857E+03  0.68843288889E+03  0.00000000000E+00 0.  1.
<mgrwt>
<rscale>  0 0.13687335E+04</rscale>
<asrwt>0</asrwt>
<pdfrwt beam="1">  1        1 0.56658405E-01 0.13687335E+04</pdfrwt>
<pdfrwt beam="2">  1       -1 0.19565310E+00 0.13687335E+04</pdfrwt>
<totfact> 0.10557313E+01</totfact>
</mgrwt>
</event>
<event>
12    2  0.3561489E-008  0.2457380E+04  0.7818608E-02  0.8418328E-01
          1   -1    0    0  501    0  0.00000000000E+00  0.00000000000E+00  0.12258746675E+04  0.12258746675E+04  0.00000000000E+00 0. -1.
         -1   -1    0    0    0  501 -0.00000000000E+00 -0.00000000000E+00 -0.12315119813E+04  0.12315119813E+04  0.00000000000E+00 0.  1.
         23    2    1    2    0    0 -0.13505335755E+03  0.46214230625E+03  0.94114541299E+03  0.10609192889E+04  0.89331565615E+02 0.  0.
        254    2    1    2    0    0  0.13505335755E+03 -0.46214230625E+03 -0.94678272680E+03  0.13964673598E+04  0.90659176843E+03 0.  0.
         23    2    4    4    0    0 -0.31335946308E+03  0.48263850090E+02 -0.40561330169E+03  0.52306525530E+03  0.92474636888E+02 0.  0.
         23    2    4    4    0    0  0.44841282063E+03 -0.51040615634E+03 -0.54116942511E+03  0.87340210449E+03  0.91533531122E+02 0.  0.
          4    1    3    3  502    0 -0.42640499312E+02  0.29910458020E+03  0.56789677022E+03  0.64326394560E+03  0.00000000000E+00 0. -1.
         -4    1    3    3    0  502 -0.92412858240E+02  0.16303772605E+03  0.37324864277E+03  0.41765534333E+03  0.00000000000E+00 0.  1.
         11    1    5    5    0    0 -0.31891806865E+03  0.42090395268E+02 -0.39844741876E+03  0.51209440673E+03  0.00000000000E+00 0.  1.
        -11    1    5    5    0    0  0.55586055666E+01  0.61734548214E+01 -0.71658829259E+01  0.10970848572E+02  0.00000000000E+00 0. -1.
          2    1    6    6  503    0  0.58698943985E+02 -0.12168462286E+03 -0.10732890749E+03  0.17254624844E+03  0.00000000000E+00 0. -1.
         -2    1    6    6    0  503  0.38971387665E+03 -0.38872153348E+03 -0.43384051762E+03  0.70085585606E+03  0.00000000000E+00 0.  1.
<mgrwt>
<rscale>  0 0.24573802E+04</rscale>
<asrwt>0</asrwt>
<pdfrwt beam="1">  1        1 0.18859610E+00 0.24573802E+04</pdfrwt>
<pdfrwt beam="2">  1       -1 0.18946338E+00 0.24573802E+04</pdfrwt>
<totfact> 0.16261187E+00</totfact>
</mgrwt>
</event>
<event>
12    2  0.3561489E-008  0.1767216E+04  0.7818608E-02  0.8723931E-01
         -2   -1    0    0    0  501 -0.00000000000E+00  0.00000000000E+00  0.28365719911E+03  0.28365719911E+03  0.00000000000E+00 0.  1.
          2   -1    0    0  501    0  0.00000000000E+00 -0.00000000000E+00 -0.27524870336E+04  0.27524870336E+04  0.00000000000E+00 0. -1.
         23    2    1    2    0    0 -0.47334048041E+02  0.56919664921E+03 -0.38951078704E+03  0.69726385904E+03  0.90735320228E+02 0.  0.
        254    2    1    2    0    0  0.47334048041E+02 -0.56919664921E+03 -0.20793190475E+04  0.23388803737E+04  0.90585228581E+03 0.  0.
         23    2    4    4    0    0  0.12621955749E+03 -0.34212094585E+03 -0.16934306405E+03  0.41165385815E+03  0.88338594665E+02 0.  0.
         23    2    4    4    0    0 -0.78885509447E+02 -0.22707570335E+03 -0.19099759834E+04  0.19272265155E+04  0.91692345890E+02 0.  0.
          3    1    3    3  502    0 -0.12081573434E+02  0.22483255352E+02 -0.82231685888E+00  0.25536980888E+02  0.00000000000E+00 0. -1.
         -3    1    3    3    0  502 -0.35252474607E+02  0.54671339385E+03 -0.38868847018E+03  0.67172687815E+03  0.00000000000E+00 0.  1.
         11    1    5    5    0    0  0.34503486409E+02 -0.16535098223E+03 -0.11783815476E+03  0.20595453046E+03  0.00000000000E+00 0. -1.
        -11    1    5    5    0    0  0.91716071078E+02 -0.17676996362E+03 -0.51504909285E+02  0.20569932769E+03  0.00000000000E+00 0.  1.
          4    1    6    6  503    0 -0.70069383198E+02 -0.75048772144E+02 -0.89933659750E+03  0.90517863003E+03  0.00000000000E+00 0. -1.
         -4    1    6    6    0  503 -0.88161262485E+01 -0.15202693121E+03 -0.10106393859E+04  0.10220478855E+04  0.00000000000E+00 0.  1.
<mgrwt>
<rscale>  0 0.17672156E+04</rscale>
<asrwt>0</asrwt>
<pdfrwt beam="1">  1        2 0.42345956E+00 0.17672156E+04</pdfrwt>
<pdfrwt beam="2">  1       -2 0.43639568E-01 0.17672156E+04</pdfrwt>
<totfact> 0.11671974E+01</totfact>
</mgrwt>
</event>
<event>
12    2  0.3561489E-008  0.1544010E+04  0.7818608E-02  0.8855703E-01
         -2   -1    0    0    0  501 -0.00000000000E+00  0.00000000000E+00  0.68024894190E+03  0.68024894190E+03  0.00000000000E+00 0. -1.
          2   -1    0    0  501    0  0.00000000000E+00 -0.00000000000E+00 -0.87613743351E+03  0.87613743351E+03  0.00000000000E+00 0.  1.
         23    2    1    2    0    0  0.42174132472E+03  0.12346482685E+03 -0.30944491569E+03  0.54531473805E+03  0.92210082093E+02 0.  0.
        254    2    1    2    0    0 -0.42174132472E+03 -0.12346482685E+03  0.11355642409E+03  0.10110716374E+04  0.90347190659E+03 0.  0.
         23    2    4    4    0    0 -0.16680697920E+03 -0.52004070261E+02  0.49752954068E+03  0.53475269090E+03  0.88858342008E+02 0.  0.
         23    2    4    4    0    0 -0.25493434551E+03 -0.71460756584E+02 -0.38397311659E+03  0.47631894647E+03  0.96675872075E+02 0.  0.
          4    1    3    3  502    0  0.12542722340E+03  0.85696431622E+01 -0.50943326173E+02  0.13564899423E+03  0.00000000000E+00 0. -1.
         -4    1    3    3    0  502  0.29631410132E+03  0.11489518368E+03 -0.25850158952E+03  0.40966574382E+03  0.00000000000E+00 0.  1.
         11    1    5    5    0    0 -0.71697280450E+01  0.18224544937E+02  0.77908307775E+02  0.80332082375E+02  0.00000000000E+00 0. -1.
        -11    1    5    5    0    0 -0.15963725116E+03 -0.70228615199E+02  0.41962123290E+03  0.45442060853E+03  0.00000000000E+00 0.  1.
          4    1    6    6  503    0  0.23828591911E+01  0.40016813263E+01 -0.39518882730E+02  0.39792380723E+02  0.00000000000E+00 0. -1.
         -4    1    6    6    0  503 -0.25731720471E+03 -0.75462437911E+02 -0.34445423386E+03  0.43652656574E+03  0.00000000000E+00 0.  1.
<mgrwt>
<rscale>  0 0.15440098E+04</rscale>
<asrwt>0</asrwt>
<pdfrwt beam="1">  1        2 0.13479037E+00 0.15440098E+04</pdfrwt>
<pdfrwt beam="2">  1       -2 0.10465368E+00 0.15440098E+04</pdfrwt>
<totfact> 0.21724968E+01</totfact>
</mgrwt>
</event>
<event>
12    2  0.3561489E-008  0.1520746E+04  0.7818608E-02  0.8870773E-01
          2   -1    0    0  501    0  0.00000000000E+00  0.00000000000E+00  0.20190749269E+04  0.20190749269E+04  0.00000000000E+00 0.  1.
         -2   -1    0    0    0  501 -0.00000000000E+00 -0.00000000000E+00 -0.28635233941E+03  0.28635233941E+03  0.00000000000E+00 0. -1.
         23    2    1    2    0    0 -0.39830320339E+03 -0.10833598440E+03  0.92389526317E+03  0.10158667161E+04  0.89557804007E+02 0.  0.
        254    2    1    2    0    0  0.39830320339E+03  0.10833598440E+03  0.80882732436E+03  0.12895605502E+04  0.91563237423E+03 0.  0.
         23    2    4    4    0    0 -0.23258974885E+03  0.11551862962E+03  0.24482277927E+02  0.27889276592E+03  0.98687627855E+02 0.  0.
         23    2    4    4    0    0  0.63089295223E+03 -0.71826452145E+01  0.78434504643E+03  0.10106677843E+04  0.90414107425E+02 0.  0.
          2    1    3    3  502    0 -0.52813911913E+02  0.46103388054E+01  0.18438437421E+03  0.19185453336E+03  0.00000000000E+00 0. -1.
         -2    1    3    3    0  502 -0.34548929147E+03 -0.11294632321E+03  0.73951088895E+03  0.82401218276E+03  0.00000000000E+00 0.  1.
         11    1    5    5    0    0 -0.14961478651E+03  0.82669140593E+02 -0.31123803565E+02  0.17374539504E+03  0.00000000000E+00 0. -1.
        -11    1    5    5    0    0 -0.82974962338E+02  0.32849489023E+02  0.55606081492E+02  0.10514737088E+03  0.00000000000E+00 0.  1.
          2    1    6    6  503    0  0.28748630113E+03  0.14789868236E+02  0.42326768357E+03  0.51188147602E+03  0.00000000000E+00 0. -1.
         -2    1    6    6    0  503  0.34340665111E+03 -0.21972513450E+02  0.36107736286E+03  0.49878630829E+03  0.00000000000E+00 0.  1.
<mgrwt>
<rscale>  0 0.15207456E+04</rscale>
<asrwt>0</asrwt>
<pdfrwt beam="1">  1        2 0.31062690E+00 0.15207456E+04</pdfrwt>
<pdfrwt beam="2">  1       -2 0.44054207E-01 0.15207456E+04</pdfrwt>
<totfact> 0.30744805E+01</totfact>
</mgrwt>
</event>
<event>
12    2  0.3561489E-008  0.1552163E+04  0.7818608E-02  0.8850487E-01
         -2   -1    0    0    0  501 -0.00000000000E+00  0.00000000000E+00  0.76330810678E+03  0.76330810678E+03  0.00000000000E+00 0.  1.
          2   -1    0    0  501    0  0.00000000000E+00 -0.00000000000E+00 -0.78906867653E+03  0.78906867653E+03  0.00000000000E+00 0. -1.
         23    2    1    2    0    0 -0.76654724418E+02  0.13269840661E+03  0.47431484215E+03  0.50737271868E+03  0.94697900116E+02 0.  0.
        254    2    1    2    0    0  0.76654724418E+02 -0.13269840661E+03 -0.50007541190E+03  0.10450040646E+04  0.90469512191E+03 0.  0.
         23    2    4    4    0    0  0.54211568271E+02 -0.51378043674E+03 -0.26674237148E+03  0.58859898802E+03  0.91586268908E+02 0.  0.
         23    2    4    4    0    0  0.22443156147E+02  0.38108203012E+03 -0.23333304042E+03  0.45640507660E+03  0.90189119368E+02 0.  0.
          3    1    3    3  502    0 -0.14242438994E+02  0.94650443447E+02  0.17720009125E+03  0.20139867391E+03  0.00000000000E+00 0. -1.
         -3    1    3    3    0  502 -0.62412285424E+02  0.38047963165E+02  0.29711475090E+03  0.30597404477E+03  0.00000000000E+00 0.  1.
         11    1    5    5    0    0  0.10873938812E+02 -0.21137079312E+01 -0.39380963934E+01  0.11756653848E+02  0.00000000000E+00 0. -1.
        -11    1    5    5    0    0  0.43337629459E+02 -0.51166672880E+03 -0.26280427508E+03  0.57684233417E+03  0.00000000000E+00 0.  1.
          1    1    6    6  503    0 -0.19844691880E+02  0.36912364811E+02 -0.74536530846E+01  0.42566317859E+02  0.00000000000E+00 0. -1.
         -1    1    6    6    0  503  0.42287848027E+02  0.34416966531E+03 -0.22587938733E+03  0.41383875874E+03  0.00000000000E+00 0.  1.
<mgrwt>
<rscale>  0 0.15521630E+04</rscale>
<asrwt>0</asrwt>
<pdfrwt beam="1">  1        2 0.12139518E+00 0.15521630E+04</pdfrwt>
<pdfrwt beam="2">  1       -2 0.11743202E+00 0.15521630E+04</pdfrwt>
<totfact> 0.18913483E+01</totfact>
</mgrwt>
</event>
<event>
12    2  0.3561489E-008  0.2054186E+04  0.7818608E-02  0.8581698E-01
         -4   -1    0    0    0  501 -0.00000000000E+00  0.00000000000E+00  0.12744385005E+04  0.12744385005E+04  0.00000000000E+00 0. -1.
          4   -1    0    0  501    0  0.00000000000E+00 -0.00000000000E+00 -0.82775268224E+03  0.82775268224E+03  0.00000000000E+00 0.  1.
         23    2    1    2    0    0 -0.26098796557E+03 -0.60595452460E+03  0.66056080450E+03  0.93801048858E+03  0.90705546714E+02 0.  0.
        254    2    1    2    0    0  0.26098796557E+03  0.60595452460E+03 -0.21387498622E+03  0.11641806942E+04  0.93502864924E+03 0.  0.
         23    2    4    4    0    0  0.60111270107E+03  0.46386955445E+03 -0.13245418913E+03  0.77610341623E+03  0.90999766674E+02 0.  0.
         23    2    4    4    0    0 -0.34012473550E+03  0.14208497015E+03 -0.81420797088E+02  0.38807727794E+03  0.90009182913E+02 0.  0.
          4    1    3    3  502    0 -0.24649732326E+03 -0.55473152579E+03  0.56853457044E+03  0.83169679203E+03  0.00000000000E+00 0. -1.
         -4    1    3    3    0  502 -0.14490642306E+02 -0.51222998809E+02  0.92026234056E+02  0.10631369656E+03  0.00000000000E+00 0.  1.
         11    1    5    5    0    0  0.15280556416E+03  0.81062473851E+02 -0.55108492025E+02  0.18154231187E+03  0.00000000000E+00 0. -1.
        -11    1    5    5    0    0  0.44830713691E+03  0.38280708059E+03 -0.77345697103E+02  0.59456110436E+03  0.00000000000E+00 0.  1.
          1    1    6    6  503    0 -0.16070876438E+03  0.11032187183E+03 -0.20734846786E+02  0.19603100832E+03  0.00000000000E+00 0. -1.
         -1    1    6    6    0  503 -0.17941597112E+03  0.31763098322E+02 -0.60685950302E+02  0.19204626962E+03  0.00000000000E+00 0.  1.
<mgrwt>
<rscale>  0 0.20541859E+04</rscale>
<asrwt>0</asrwt>
<pdfrwt beam="1">  1        4 0.12734657E+00 0.20541859E+04</pdfrwt>
<pdfrwt beam="2">  1       -4 0.19606746E+00 0.20541859E+04</pdfrwt>
<totfact> 0.11783198E-01</totfact>
</mgrwt>
</event>
<event>
12    2  0.3561489E-008  0.2071204E+04  0.7818608E-02  0.8574035E-01
          2   -1    0    0  501    0  0.00000000000E+00  0.00000000000E+00  0.11143345317E+04  0.11143345317E+04  0.00000000000E+00 0. -1.
         -2   -1    0    0    0  501 -0.00000000000E+00 -0.00000000000E+00 -0.96243243732E+03  0.96243243732E+03  0.00000000000E+00 0.  1.
         23    2    1    2    0    0  0.75517687287E+03  0.32998825380E+03 -0.52949271078E+02  0.83088205271E+03  0.91525970336E+02 0.  0.
        254    2    1    2    0    0 -0.75517687287E+03 -0.32998825380E+03  0.20485136543E+03  0.12458849163E+04  0.91163632318E+03 0.  0.
         23    2    4    4    0    0 -0.76013752461E+03 -0.54626579954E+02 -0.15537239068E+03  0.78311260398E+03  0.91277878921E+02 0.  0.
         23    2    4    4    0    0  0.49606517346E+01 -0.27536167384E+03  0.36022375611E+03  0.46277231230E+03  0.92457552847E+02 0.  0.
          2    1    3    3  502    0  0.25732515581E+03  0.66490309315E+02 -0.23943809702E+02  0.26685296152E+03  0.00000000000E+00 0. -1.
         -2    1    3    3    0  502  0.49785171706E+03  0.26349794448E+03 -0.29005461377E+02  0.56402909119E+03  0.00000000000E+00 0.  1.
         11    1    5    5    0    0 -0.11379198547E+03  0.12100356982E+02 -0.49846845757E+02  0.12481883923E+03  0.00000000000E+00 0. -1.
        -11    1    5    5    0    0 -0.64634553914E+03 -0.66726936936E+02 -0.10552554493E+03  0.65829376475E+03  0.00000000000E+00 0.  1.
          1    1    6    6  503    0 -0.29456807058E+02 -0.94006377751E+02  0.17768696682E+03  0.20316879858E+03  0.00000000000E+00 0. -1.
         -1    1    6    6    0  503  0.34417458792E+02 -0.18135529609E+03  0.18253678929E+03  0.25960351372E+03  0.00000000000E+00 0.  1.
<mgrwt>
<rscale>  0 0.20712042E+04</rscale>
<asrwt>0</asrwt>
<pdfrwt beam="1">  1        2 0.17143608E+00 0.20712042E+04</pdfrwt>
<pdfrwt beam="2">  1       -2 0.14806653E+00 0.20712042E+04</pdfrwt>
<totfact> 0.61148015E+00</totfact>
</mgrwt>
</event>
<event>
12    2  0.3561489E-008  0.1771084E+04  0.7818608E-02  0.8721829E-01
          2   -1    0    0  501    0  0.00000000000E+00  0.00000000000E+00  0.14174325635E+04  0.14174325635E+04  0.00000000000E+00 0. -1.
         -2   -1    0    0    0  501 -0.00000000000E+00 -0.00000000000E+00 -0.55324319753E+03  0.55324319753E+03  0.00000000000E+00 0.  1.
         23    2    1    2    0    0  0.62471038224E+03 -0.53275426616E+02  0.11328768316E+03  0.64369918995E+03  0.91723580546E+02 0.  0.
        254    2    1    2    0    0 -0.62471038224E+03  0.53275426616E+02  0.75090168284E+03  0.13269765711E+04  0.89661148232E+03 0.  0.
         23    2    4    4    0    0  0.10988520565E+03  0.10699221835E+03  0.52056836922E+03  0.55040942871E+03  0.91853246938E+02 0.  0.
         23    2    4    4    0    0 -0.73459558789E+03 -0.53716791735E+02  0.23033331362E+03  0.77656714240E+03  0.86526989030E+02 0.  0.
          4    1    3    3  502    0  0.24459815875E+03 -0.46744500455E+02  0.77144703315E+01  0.24914417641E+03  0.00000000000E+00 0. -1.
         -4    1    3    3    0  502  0.38011222349E+03 -0.65309261603E+01  0.10557321283E+03  0.39455501354E+03  0.00000000000E+00 0.  1.
         11    1    5    5    0    0 -0.90288153967E+01 -0.50738086835E+01  0.10256667860E+02  0.14576085813E+02  0.00000000000E+00 0. -1.
        -11    1    5    5    0    0  0.11891402104E+03  0.11206602703E+03  0.51031170136E+03  0.53583334290E+03  0.00000000000E+00 0.  1.
          3    1    6    6  503    0 -0.65643947452E+01 -0.85981568471E+01  0.96251401001E+01  0.14479741071E+02  0.00000000000E+00 0. -1.
         -3    1    6    6    0  503 -0.72803119314E+03 -0.45118634888E+02  0.22070817352E+03  0.76208740132E+03  0.00000000000E+00 0.  1.
<mgrwt>
<rscale>  0 0.17710843E+04</rscale>
<asrwt>0</asrwt>
<pdfrwt beam="1">  1        2 0.21806655E+00 0.17710843E+04</pdfrwt>
<pdfrwt beam="2">  1       -2 0.85114339E-01 0.17710843E+04</pdfrwt>
<totfact> 0.16075276E+01</totfact>
</mgrwt>
</event>
<event>
12    2  0.3561489E-008  0.1332278E+04  0.7818608E-02  0.9004353E-01
          2   -1    0    0  501    0  0.00000000000E+00  0.00000000000E+00  0.10672049181E+04  0.10672049181E+04  0.00000000000E+00 0. -1.
         -2   -1    0    0    0  501 -0.00000000000E+00 -0.00000000000E+00 -0.41579759634E+03  0.41579759634E+03  0.00000000000E+00 0.  1.
         23    2    1    2    0    0  0.26634684673E+03  0.11297458155E+03 -0.42384745169E+02  0.30457388863E+03  0.85234313355E+02 0.  0.
        254    2    1    2    0    0 -0.26634684673E+03 -0.11297458155E+03  0.69379206698E+03  0.11784286258E+04  0.90754762695E+03 0.  0.
         23    2    4    4    0    0 -0.51918155856E+02 -0.41841200044E+03  0.56758376989E+02  0.43479987320E+03  0.89807123063E+02 0.  0.
         23    2    4    4    0    0 -0.21442869087E+03  0.30543741889E+03  0.63703368999E+03  0.74362875265E+03  0.88882615057E+02 0.  0.
          2    1    3    3  502    0  0.88242167739E+01  0.27108605211E+02 -0.13615279005E+02  0.31593022973E+02  0.00000000000E+00 0. -1.
         -2    1    3    3    0  502  0.25752262995E+03  0.85865976340E+02 -0.28769466164E+02  0.27298086566E+03  0.00000000000E+00 0.  1.
         11    1    5    5    0    0 -0.55814927085E+02 -0.12402228418E+03  0.29157205476E+02  0.13909340635E+03  0.00000000000E+00 0. -1.
        -11    1    5    5    0    0  0.38967712294E+01 -0.29438971626E+03  0.27601171513E+02  0.29570646685E+03  0.00000000000E+00 0.  1.
          3    1    6    6  503    0 -0.84016382173E+02  0.19572958701E+03  0.36606255197E+03  0.42352168264E+03  0.00000000000E+00 0. -1.
         -3    1    6    6    0  503 -0.13041230870E+03  0.10970783188E+03  0.27097113801E+03  0.32010707001E+03  0.00000000000E+00 0.  1.
<mgrwt>
<rscale>  0 0.13322781E+04</rscale>
<asrwt>0</asrwt>
<pdfrwt beam="1">  1        2 0.16418537E+00 0.13322781E+04</pdfrwt>
<pdfrwt beam="2">  1       -2 0.63968861E-01 0.13322781E+04</pdfrwt>
<totfact> 0.50462430E+01</totfact>
</mgrwt>
</event>
<event>
12    2  0.3561489E-008  0.1472371E+04  0.7818608E-02  0.8903037E-01
         -2   -1    0    0    0  501 -0.00000000000E+00  0.00000000000E+00  0.63204260871E+03  0.63204260871E+03  0.00000000000E+00 0.  1.
          2   -1    0    0  501    0  0.00000000000E+00 -0.00000000000E+00 -0.85748798031E+03  0.85748798031E+03  0.00000000000E+00 0. -1.
         23    2    1    2    0    0 -0.31178546090E+03  0.69186862414E+02 -0.40405685121E+03  0.52334278914E+03  0.92891013462E+02 0.  0.
        254    2    1    2    0    0  0.31178546090E+03 -0.69186862414E+02  0.17861147961E+03  0.96618779988E+03  0.89421463219E+03 0.  0.
         23    2    4    4    0    0 -0.88327901457E+02 -0.24967719584E+03  0.38135834451E+03  0.47451962602E+03  0.97949825170E+02 0.  0.
         23    2    4    4    0    0  0.40011336236E+03  0.18049033343E+03 -0.20274686490E+03  0.49166817386E+03  0.89240342667E+02 0.  0.
          1    1    3    3  502    0 -0.28957758875E+03  0.59203932078E+02 -0.40192273369E+03  0.49890096145E+03  0.00000000000E+00 0. -1.
         -1    1    3    3    0  502 -0.22207872152E+02  0.99829303359E+01 -0.21341175220E+01  0.24441827698E+02  0.00000000000E+00 0.  1.
         11    1    5    5    0    0  0.68502651255E+01 -0.12545206612E+03  0.17956360433E+03  0.21915345087E+03  0.00000000000E+00 0.  1.
        -11    1    5    5    0    0 -0.95178166583E+02 -0.12422512972E+03  0.20179474018E+03  0.25536617515E+03  0.00000000000E+00 0. -1.
          4    1    6    6  503    0  0.67953288378E+02  0.33092987275E+02 -0.88266924856E-01  0.75583086727E+02  0.00000000000E+00 0. -1.
         -4    1    6    6    0  503  0.33216007398E+03  0.14739734615E+03 -0.20265859797E+03  0.41608508713E+03  0.00000000000E+00 0.  1.
<mgrwt>
<rscale>  0 0.14723708E+04</rscale>
<asrwt>0</asrwt>
<pdfrwt beam="1">  1        2 0.13192123E+00 0.14723708E+04</pdfrwt>
<pdfrwt beam="2">  1       -2 0.97237324E-01 0.14723708E+04</pdfrwt>
<totfact> 0.26800060E+01</totfact>
</mgrwt>
</event>
<event>
12    2  0.3561489E-008  0.2771366E+04  0.7818608E-02  0.8312214E-01
          2   -1    0    0  501    0  0.00000000000E+00  0.00000000000E+00  0.14189268493E+04  0.14189268493E+04  0.00000000000E+00 0.  1.
         -2   -1    0    0    0  501 -0.00000000000E+00 -0.00000000000E+00 -0.13532181487E+04  0.13532181487E+04  0.00000000000E+00 0. -1.
         23    2    1    2    0    0 -0.26045748964E+03  0.83723289683E+03  0.90602057157E+03  0.12624298639E+04  0.63709164508E+02 0.  0.
        254    2    1    2    0    0  0.26045748964E+03 -0.83723289683E+03 -0.84031187103E+03  0.15097151341E+04  0.89683817838E+03 0.  0.
         23    2    4    4    0    0  0.26336827542E+03 -0.99658080542E+03 -0.56568300612E+03  0.11794026988E+04  0.91963646539E+02 0.  0.
         23    2    4    4    0    0 -0.29107857854E+01  0.15934790859E+03 -0.27462886491E+03  0.33031243534E+03  0.91022320647E+02 0.  0.
          1    1    3    3  502    0 -0.29148162098E+02  0.98779841914E+02  0.13771438977E+03  0.17196605965E+03  0.00000000000E+00 0. -1.
         -1    1    3    3    0  502 -0.23130932754E+03  0.73845305492E+03  0.76830618181E+03  0.10904638042E+04  0.00000000000E+00 0.  1.
         11    1    5    5    0    0  0.20206634322E+03 -0.69255460215E+03 -0.43814862355E+03  0.84405977297E+03  0.00000000000E+00 0.  1.
        -11    1    5    5    0    0  0.61301932199E+02 -0.30402620327E+03 -0.12753438257E+03  0.33534292583E+03  0.00000000000E+00 0. -1.
          2    1    6    6  503    0 -0.16182370949E+02  0.16247996799E+03 -0.21979902932E+03  0.27381238543E+03  0.00000000000E+00 0.  1.
         -2    1    6    6    0  503  0.13271585164E+02 -0.31320594034E+01 -0.54829835588E+02  0.56500049907E+02  0.00000000000E+00 0. -1.
<mgrwt>
<rscale>  0 0.27713661E+04</rscale>
<asrwt>0</asrwt>
<pdfrwt beam="1">  1        2 0.21829644E+00 0.27713661E+04</pdfrwt>
<pdfrwt beam="2">  1       -2 0.20818741E+00 0.27713661E+04</pdfrwt>
<totfact> 0.14482042E+00</totfact>
</mgrwt>
</event>
<event>
12    2  0.3561489E-008  0.2499708E+04  0.7818608E-02  0.8403089E-01
         -2   -1    0    0    0  501 -0.00000000000E+00  0.00000000000E+00  0.98820438749E+03  0.98820438749E+03  0.00000000000E+00 0.  1.
          2   -1    0    0  501    0  0.00000000000E+00 -0.00000000000E+00 -0.15807815885E+04  0.15807815885E+04  0.00000000000E+00 0. -1.
         23    2    1    2    0    0 -0.28741619629E+03  0.15294499465E+03 -0.13221596971E+04  0.13645116011E+04  0.88234934644E+02 0.  0.
        254    2    1    2    0    0  0.28741619629E+03 -0.15294499465E+03  0.72958249611E+03  0.12044743748E+04  0.90136987955E+03 0.  0.
         23    2    4    4    0    0  0.96880856589E+02 -0.43942990282E+03  0.71269062618E+03  0.84782728215E+03  0.91644049740E+02 0.  0.
         23    2    4    4    0    0  0.19053533970E+03  0.28648490816E+03  0.16891869928E+02  0.35664709269E+03  0.92382331517E+02 0.  0.
          1    1    3    3  502    0 -0.17390653808E+03  0.12525346733E+03 -0.97293145405E+03  0.99625675874E+03  0.00000000000E+00 0. -1.
         -1    1    3    3    0  502 -0.11350965821E+03  0.27691527323E+02 -0.34922824303E+03  0.36825484236E+03  0.00000000000E+00 0.  1.
         11    1    5    5    0    0  0.28641342239E+02 -0.30477954060E+03  0.43769000657E+03  0.53411930943E+03  0.00000000000E+00 0.  1.
        -11    1    5    5    0    0  0.68239514351E+02 -0.13465036222E+03  0.27500061961E+03  0.31370797272E+03  0.00000000000E+00 0. -1.
          2    1    6    6  503    0  0.17581375838E+03  0.26548657144E+03  0.41486355217E+02  0.32111480022E+03  0.00000000000E+00 0. -1.
         -2    1    6    6    0  503  0.14721581316E+02  0.20998336721E+02 -0.24594485289E+02  0.35532292469E+02  0.00000000000E+00 0.  1.
<mgrwt>
<rscale>  0 0.24997082E+04</rscale>
<asrwt>0</asrwt>
<pdfrwt beam="1">  1        2 0.24319717E+00 0.24997082E+04</pdfrwt>
<pdfrwt beam="2">  1       -2 0.15203145E+00 0.24997082E+04</pdfrwt>
<totfact> 0.29480884E+00</totfact>
</mgrwt>
</event>
<event>
12    2  0.3561489E-008  0.1534612E+04  0.7818608E-02  0.8861757E-01
          1   -1    0    0  501    0  0.00000000000E+00  0.00000000000E+00  0.66399763891E+03  0.66399763891E+03  0.00000000000E+00 0. -1.
         -1   -1    0    0    0  501 -0.00000000000E+00 -0.00000000000E+00 -0.88668716330E+03  0.88668716330E+03  0.00000000000E+00 0.  1.
         23    2    1    2    0    0  0.33331475149E+03  0.27328431196E+02  0.29546433803E+03  0.45558870406E+03  0.91740533593E+02 0.  0.
        254    2    1    2    0    0 -0.33331475149E+03 -0.27328431196E+02 -0.51815386243E+03  0.10950960982E+04  0.90493451273E+03 0.  0.
         23    2    4    4    0    0 -0.59391793509E+03  0.14217596293E+03 -0.22017315980E+03  0.65476000884E+03  0.85334230084E+02 0.  0.
         23    2    4    4    0    0  0.26060318360E+03 -0.16950439412E+03 -0.29798070262E+03  0.44033608931E+03  0.91965284147E+02 0.  0.
          3    1    3    3  502    0  0.28919003321E+03  0.17067603132E+02  0.20651529109E+03  0.35576782294E+03  0.00000000000E+00 0. -1.
         -3    1    3    3    0  502  0.44124718282E+02  0.10260828063E+02  0.88949046938E+02  0.99820881118E+02  0.00000000000E+00 0.  1.
         11    1    5    5    0    0 -0.48470198817E+03  0.82576045055E+02 -0.18645902632E+03  0.52585339121E+03  0.00000000000E+00 0. -1.
        -11    1    5    5    0    0 -0.10921594692E+03  0.59599917874E+02 -0.33714133487E+02  0.12890661763E+03  0.00000000000E+00 0.  1.
          2    1    6    6  503    0  0.15606673900E+03 -0.11203670730E+03 -0.12147684674E+03  0.22730084711E+03  0.00000000000E+00 0.  1.
         -2    1    6    6    0  503  0.10453644459E+03 -0.57467686829E+02 -0.17650385588E+03  0.21303524220E+03  0.00000000000E+00 0. -1.
<mgrwt>
<rscale>  0 0.15346116E+04</rscale>
<asrwt>0</asrwt>
<pdfrwt beam="1">  1        1 0.10215348E+00 0.15346116E+04</pdfrwt>
<pdfrwt beam="2">  1       -1 0.13641341E+00 0.15346116E+04</pdfrwt>
<totfact> 0.12766175E+01</totfact>
</mgrwt>
</event>
<event>
12    2  0.3561489E-008  0.2304242E+04  0.7818608E-02  0.8476250E-01
         -2   -1    0    0    0  501 -0.00000000000E+00  0.00000000000E+00  0.67710136736E+03  0.67710136736E+03  0.00000000000E+00 0.  1.
          2   -1    0    0  501    0  0.00000000000E+00 -0.00000000000E+00 -0.19603900430E+04  0.19603900430E+04  0.00000000000E+00 0. -1.
         23    2    1    2    0    0  0.39988954168E+02  0.94779868076E+03 -0.85705538942E+03  0.12820314918E+04  0.95599946132E+02 0.  0.
        254    2    1    2    0    0 -0.39988954168E+02 -0.94779868076E+03 -0.42623328625E+03  0.13554599186E+04  0.86929587651E+03 0.  0.
         23    2    4    4    0    0 -0.43236777993E+03 -0.36153441585E+03 -0.13993962441E+03  0.58857961453E+03  0.95884478403E+02 0.  0.
         23    2    4    4    0    0  0.39237882576E+03 -0.58626426491E+03 -0.28629366185E+03  0.76688030407E+03  0.92056551832E+02 0.  0.
          1    1    3    3  502    0  0.12998411007E+02  0.88496631233E+03 -0.79514074914E+03  0.11897828136E+04  0.00000000000E+00 0. -1.
         -1    1    3    3    0  502  0.26990543161E+02  0.62832368430E+02 -0.61914640285E+02  0.92248678170E+02  0.00000000000E+00 0.  1.
         11    1    5    5    0    0 -0.80365495526E+02 -0.10626771791E+03 -0.61498003773E+02  0.14674278588E+03  0.00000000000E+00 0.  1.
        -11    1    5    5    0    0 -0.35200228440E+03 -0.25526669794E+03 -0.78441620633E+02  0.44183682865E+03  0.00000000000E+00 0. -1.
          2    1    6    6  503    0  0.27935943889E+03 -0.39523817023E+03 -0.23963271986E+03  0.54007290965E+03  0.00000000000E+00 0. -1.
         -2    1    6    6    0  503  0.11301938687E+03 -0.19102609468E+03 -0.46660941985E+02  0.22680739442E+03  0.00000000000E+00 0.  1.
<mgrwt>
<rscale>  0 0.23042420E+04</rscale>
<asrwt>0</asrwt>
<pdfrwt beam="1">  1        2 0.30159847E+00 0.23042420E+04</pdfrwt>
<pdfrwt beam="2">  1       -2 0.10416944E+00 0.23042420E+04</pdfrwt>
<totfact> 0.47726583E+00</totfact>
</mgrwt>
</event>
<event>
12    2  0.3561489E-008  0.1902742E+04  0.7818608E-02  0.8653493E-01
         -2   -1    0    0    0  501 -0.00000000000E+00  0.00000000000E+00  0.88469523521E+03  0.88469523521E+03  0.00000000000E+00 0. -1.
          2   -1    0    0  501    0  0.00000000000E+00 -0.00000000000E+00 -0.10230715220E+04  0.10230715220E+04  0.00000000000E+00 0.  1.
         23    2    1    2    0    0 -0.25774477366E+03 -0.51946723852E+03 -0.54007080221E+03  0.79787156399E+03  0.92973012080E+02 0.  0.
        254    2    1    2    0    0  0.25774477366E+03  0.51946723852E+03  0.40169451547E+03  0.11098951932E+04  0.85687238013E+03 0.  0.
         23    2    4    4    0    0  0.41891321162E+03  0.56798142503E+03  0.58047363746E+02  0.71428686750E+03  0.93514996637E+02 0.  0.
         23    2    4    4    0    0 -0.16116843796E+03 -0.48514186512E+02  0.34364715173E+03  0.39560832568E+03  0.10041758195E+03 0.  0.
          2    1    3    3  502    0 -0.16034571734E+03 -0.22357150506E+03 -0.23445155087E+03  0.36147267760E+03  0.00000000000E+00 0.  1.
         -2    1    3    3    0  502 -0.97399056314E+02 -0.29589573346E+03 -0.30561925134E+03  0.43639888639E+03  0.00000000000E+00 0. -1.
         11    1    5    5    0    0  0.19605853381E+03  0.20159688702E+03  0.48357552817E+02  0.28533963351E+03  0.00000000000E+00 0.  1.
        -11    1    5    5    0    0  0.22285467782E+03  0.36638453801E+03  0.96898109284E+01  0.42894723400E+03  0.00000000000E+00 0. -1.
          4    1    6    6  503    0  0.60983341089E+01  0.70932465010E+01  0.66509150936E+02  0.67163762425E+02  0.00000000000E+00 0. -1.
         -4    1    6    6    0  503 -0.16726677207E+03 -0.55607433013E+02  0.27713800079E+03  0.32844456325E+03  0.00000000000E+00 0.  1.
<mgrwt>
<rscale>  0 0.19027417E+04</rscale>
<asrwt>0</asrwt>
<pdfrwt beam="1">  1        2 0.15739562E+00 0.19027417E+04</pdfrwt>
<pdfrwt beam="2">  1       -2 0.13610696E+00 0.19027417E+04</pdfrwt>
<totfact> 0.88074014E+00</totfact>
</mgrwt>
</event>
<event>
12    2  0.3561489E-008  0.1318652E+04  0.7818608E-02  0.9014903E-01
         -2   -1    0    0    0  501 -0.00000000000E+00  0.00000000000E+00  0.32234949674E+03  0.32234949674E+03  0.00000000000E+00 0.  1.
          2   -1    0    0  501    0  0.00000000000E+00 -0.00000000000E+00 -0.13485706561E+04  0.13485706561E+04  0.00000000000E+00 0. -1.
         23    2    1    2    0    0  0.12322463809E+03  0.19445399682E+03  0.35603911006E+02  0.24872849429E+03  0.87186908908E+02 0.  0.
        254    2    1    2    0    0 -0.12322463809E+03 -0.19445399682E+03 -0.10618250704E+04  0.14221916586E+04  0.91769274013E+03 0.  0.
         23    2    4    4    0    0  0.33377257974E+03 -0.18220166153E+03 -0.19305384691E+03  0.43577633209E+03  0.89608277274E+02 0.  0.
         23    2    4    4    0    0 -0.45699721783E+03 -0.12252335293E+02 -0.86877122349E+03  0.98641532648E+03  0.96203849887E+02 0.  0.
          1    1    3    3  502    0  0.11810982610E+02  0.92177936608E+01 -0.20513554069E+02  0.25402222948E+02  0.00000000000E+00 0. -1.
         -1    1    3    3    0  502  0.11141365548E+03  0.18523620316E+03  0.56117465075E+02  0.22332627135E+03  0.00000000000E+00 0.  1.
         11    1    5    5    0    0  0.22275581884E+03 -0.16218221630E+03 -0.15810256141E+03  0.31767852624E+03  0.00000000000E+00 0. -1.
        -11    1    5    5    0    0  0.11101676090E+03 -0.20019445223E+02 -0.34951285494E+02  0.11809780585E+03  0.00000000000E+00 0.  1.
          4    1    6    6  503    0 -0.30726724170E+03 -0.22445619424E+01 -0.67228211833E+03  0.73917619179E+03  0.00000000000E+00 0. -1.
         -4    1    6    6    0  503 -0.14972997612E+03 -0.10007773350E+02 -0.19648910517E+03  0.24723913470E+03  0.00000000000E+00 0.  1.
<mgrwt>
<rscale>  0 0.13186525E+04</rscale>
<asrwt>0</asrwt>
<pdfrwt beam="1">  1        2 0.20747241E+00 0.13186525E+04</pdfrwt>
<pdfrwt beam="2">  1       -2 0.49592230E-01 0.13186525E+04</pdfrwt>
<totfact> 0.58338463E+01</totfact>
</mgrwt>
</event>
<event>
12    2  0.3561489E-008  0.1603067E+04  0.7818608E-02  0.8818666E-01
         -2   -1    0    0    0  501 -0.00000000000E+00  0.00000000000E+00  0.32681148881E+03  0.32681148881E+03  0.00000000000E+00 0.  1.
          2   -1    0    0  501    0  0.00000000000E+00 -0.00000000000E+00 -0.19658300365E+04  0.19658300365E+04  0.00000000000E+00 0. -1.
         23    2    1    2    0    0  0.30829086608E+02  0.21896620693E+00 -0.13089227976E+04  0.13121319117E+04  0.86375824731E+02 0.  0.
        254    2    1    2    0    0 -0.30829086608E+02 -0.21896620693E+00 -0.33009575007E+03  0.98050961359E+03  0.92275967489E+03 0.  0.
         23    2    4    4    0    0  0.28752788635E+03  0.26529160221E+03  0.57309659101E+02  0.40579264173E+03  0.91276236889E+02 0.  0.
         23    2    4    4    0    0 -0.31835697296E+03 -0.26551056841E+03 -0.38740540917E+03  0.57471697187E+03  0.91485641069E+02 0.  0.
          3    1    3    3  502    0  0.31116619411E+02  0.18709906739E+02 -0.12464672441E+04  0.12469959484E+04  0.00000000000E+00 0. -1.
         -3    1    3    3    0  502 -0.28753280341E+00 -0.18490940532E+02 -0.62455553444E+02  0.65135963284E+02  0.00000000000E+00 0.  1.
         11    1    5    5    0    0  0.39890616071E+02  0.63056152289E+02  0.42178317924E+02  0.85710851676E+02  0.00000000000E+00 0.  1.
        -11    1    5    5    0    0  0.24763727028E+03  0.20223544992E+03  0.15131341177E+02  0.32008179005E+03  0.00000000000E+00 0. -1.
          1    1    6    6  503    0 -0.27618601919E+03 -0.22726366573E+03 -0.28413530196E+03  0.45679356473E+03  0.00000000000E+00 0. -1.
         -1    1    6    6    0  503 -0.42170953766E+02 -0.38246902684E+02 -0.10327010721E+03  0.11792340714E+03  0.00000000000E+00 0.  1.
<mgrwt>
<rscale>  0 0.16030669E+04</rscale>
<asrwt>0</asrwt>
<pdfrwt beam="1">  1        2 0.30243539E+00 0.16030669E+04</pdfrwt>
<pdfrwt beam="2">  1       -2 0.50278691E-01 0.16030669E+04</pdfrwt>
<totfact> 0.25041681E+01</totfact>
</mgrwt>
</event>
<event>
12    2  0.3561489E-008  0.1316674E+04  0.7818608E-02  0.9016446E-01
          1   -1    0    0  501    0  0.00000000000E+00  0.00000000000E+00  0.51018550138E+04  0.51018550138E+04  0.00000000000E+00 0. -1.
         -1   -1    0    0    0  501 -0.00000000000E+00 -0.00000000000E+00 -0.84951024999E+02  0.84951024999E+02  0.00000000000E+00 0.  1.
         23    2    1    2    0    0  0.34759222028E+03 -0.41805647504E+02  0.14750240351E+04  0.15188668052E+04  0.93233061823E+02 0.  0.
        254    2    1    2    0    0 -0.34759222028E+03  0.41805647504E+02  0.35418799537E+04  0.36679392337E+04  0.88673364195E+03 0.  0.
         23    2    4    4    0    0 -0.40265516618E+03  0.87025402841E+02  0.65626238991E+03  0.78005187127E+03  0.89977740946E+02 0.  0.
         23    2    4    4    0    0  0.55062945904E+02 -0.45219755337E+02  0.28856175638E+04  0.28878873624E+04  0.89598767949E+02 0.  0.
          2    1    3    3  502    0  0.29660207220E+03 -0.54175692179E+02  0.13503563650E+04  0.13836076421E+04  0.00000000000E+00 0.  1.
         -2    1    3    3    0  502  0.50990148079E+02  0.12370044675E+02  0.12466767013E+03  0.13525916303E+03  0.00000000000E+00 0. -1.
         11    1    5    5    0    0 -0.40145877849E+03  0.88124844129E+02  0.65911586079E+03  0.77676821313E+03  0.00000000000E+00 0.  1.
        -11    1    5    5    0    0 -0.11963876931E+01 -0.10994412872E+01 -0.28534708865E+01  0.32836581363E+01  0.00000000000E+00 0. -1.
          2    1    6    6  503    0 -0.17264749056E+02  0.12373917948E+02  0.41979310834E+03  0.42033015502E+03  0.00000000000E+00 0. -1.
         -2    1    6    6    0  503  0.72327694960E+02 -0.57593673286E+02  0.24658244555E+04  0.24675572074E+04  0.00000000000E+00 0.  1.
<mgrwt>
<rscale>  0 0.13166743E+04</rscale>
<asrwt>0</asrwt>
<pdfrwt beam="1">  1        1 0.78490053E+00 0.13166743E+04</pdfrwt>
<pdfrwt beam="2">  1       -1 0.13069393E-01 0.13166743E+04</pdfrwt>
<totfact> 0.27286327E-01</totfact>
</mgrwt>
</event>
<event>
12    2  0.3561489E-008  0.1733919E+04  0.7818608E-02  0.8742252E-01
         -1   -1    0    0    0  501 -0.00000000000E+00  0.00000000000E+00  0.31549569460E+03  0.31549569460E+03  0.00000000000E+00 0.  1.
          1   -1    0    0  501    0  0.00000000000E+00 -0.00000000000E+00 -0.23823413302E+04  0.23823413302E+04  0.00000000000E+00 0. -1.
         23    2    1    2    0    0  0.38051567256E+02  0.82969153158E+02 -0.17156123800E+04  0.17204681840E+04  0.91395468927E+02 0.  0.
        254    2    1    2    0    0 -0.38051567256E+02 -0.82969153158E+02 -0.35123325558E+03  0.97736884074E+03  0.90749834649E+03 0.  0.
         23    2    4    4    0    0 -0.27447308582E+03 -0.38143479714E+03 -0.44471342492E+02  0.48074415327E+03  0.91155149605E+02 0.  0.
         23    2    4    4    0    0  0.23642151856E+03  0.29846564398E+03 -0.30676191309E+03  0.49662468747E+03  0.86927175284E+02 0.  0.
          1    1    3    3  502    0 -0.23137302071E+01  0.18524207732E+02 -0.11025083889E+04  0.11026664261E+04  0.00000000000E+00 0. -1.
         -1    1    3    3    0  502  0.40365297463E+02  0.64444945426E+02 -0.61310399105E+03  0.61780175790E+03  0.00000000000E+00 0.  1.
         11    1    5    5    0    0 -0.27378426404E+03 -0.34667008309E+03 -0.29026741139E+02  0.44269687309E+03  0.00000000000E+00 0. -1.
        -11    1    5    5    0    0 -0.68882177789E+00 -0.34764714050E+02 -0.15444601353E+02  0.38047280184E+02  0.00000000000E+00 0.  1.
          2    1    6    6  503    0  0.12444077415E+03  0.16685503144E+03 -0.22141974761E+03  0.30389605529E+03  0.00000000000E+00 0. -1.
         -2    1    6    6    0  503  0.11198074442E+03  0.13161061253E+03 -0.85342165476E+02  0.19272863217E+03  0.00000000000E+00 0.  1.
<mgrwt>
<rscale>  0 0.17339186E+04</rscale>
<asrwt>0</asrwt>
<pdfrwt beam="1">  1        1 0.36651403E+00 0.17339186E+04</pdfrwt>
<pdfrwt beam="2">  1       -1 0.48537802E-01 0.17339186E+04</pdfrwt>
<totfact> 0.65909369E+00</totfact>
</mgrwt>
</event>
<event>
12    2  0.3561489E-008  0.1466901E+04  0.7818608E-02  0.8906767E-01
          2   -1    0    0  501    0  0.00000000000E+00  0.00000000000E+00  0.15767009012E+04  0.15767009012E+04  0.00000000000E+00 0. -1.
         -2   -1    0    0    0  501 -0.00000000000E+00 -0.00000000000E+00 -0.34118690561E+03  0.34118690561E+03  0.00000000000E+00 0.  1.
         23    2    1    2    0    0  0.11433093552E+03  0.34257985901E+03  0.33761252452E+02  0.37339497896E+03  0.88608495806E+02 0.  0.
        254    2    1    2    0    0 -0.11433093552E+03 -0.34257985901E+03  0.12017527431E+04  0.15444928279E+04  0.90045317315E+03 0.  0.
         23    2    4    4    0    0  0.22677579009E+03 -0.51280111214E+03  0.81743601569E+03  0.99542990892E+03  0.91031995713E+02 0.  0.
         23    2    4    4    0    0 -0.34110672561E+03  0.17022125313E+03  0.38431672746E+03  0.54906291894E+03  0.91878553963E+02 0.  0.
          1    1    3    3  502    0  0.51410478331E+02  0.61577105118E+02 -0.14208909758E+02  0.81465761357E+02  0.00000000000E+00 0. -1.
         -1    1    3    3    0  502  0.62920457189E+02  0.28100275389E+03  0.47970162210E+02  0.29192921760E+03  0.00000000000E+00 0.  1.
         11    1    5    5    0    0  0.30758424908E+02 -0.81377160269E+02  0.76096059970E+02  0.11558085161E+03  0.00000000000E+00 0.  1.
        -11    1    5    5    0    0  0.19601736518E+03 -0.43142395187E+03  0.74133995572E+03  0.87984905730E+03  0.00000000000E+00 0. -1.
          2    1    6    6  503    0 -0.22811032664E+03  0.15997457470E+03  0.26867301525E+03  0.38705474393E+03  0.00000000000E+00 0. -1.
         -2    1    6    6    0  503 -0.11299639897E+03  0.10246678428E+02  0.11564371220E+03  0.16200817501E+03  0.00000000000E+00 0.  1.
<mgrwt>
<rscale>  0 0.14669011E+04</rscale>
<asrwt>0</asrwt>
<pdfrwt beam="1">  1        2 0.24256937E+00 0.14669011E+04</pdfrwt>
<pdfrwt beam="2">  1       -2 0.52490294E-01 0.14669011E+04</pdfrwt>
<totfact> 0.38116150E+01</totfact>
</mgrwt>
</event>
<event>
12    2  0.3561489E-008  0.2441128E+04  0.7818608E-02  0.8424264E-01
         -1   -1    0    0    0  501 -0.00000000000E+00  0.00000000000E+00  0.83489540738E+03  0.83489540738E+03  0.00000000000E+00 0.  1.
          1   -1    0    0  501    0  0.00000000000E+00 -0.00000000000E+00 -0.17843870023E+04  0.17843870023E+04  0.00000000000E+00 0. -1.
         23    2    1    2    0    0  0.41055219285E+01  0.10123665878E+04 -0.72514750108E+03  0.12484534815E+04  0.88849500041E+02 0.  0.
        254    2    1    2    0    0 -0.41055219285E+01 -0.10123665878E+04 -0.22434409387E+03  0.13708289282E+04  0.89662629598E+03 0.  0.
         23    2    4    4    0    0  0.25919498323E+03 -0.71027041652E+03 -0.46699817402E+03  0.89352253059E+03  0.92893025676E+02 0.  0.
         23    2    4    4    0    0 -0.26330050516E+03 -0.30209617128E+03  0.24265408015E+03  0.47730639765E+03  0.91384582428E+02 0.  0.
          3    1    3    3  502    0 -0.28961084282E+02  0.17230974725E+03 -0.14424499223E+03  0.22657451574E+03  0.00000000000E+00 0. -1.
         -3    1    3    3    0  502  0.33066606211E+02  0.84005684055E+03 -0.58090250885E+03  0.10218789657E+04  0.00000000000E+00 0.  1.
         11    1    5    5    0    0  0.21708965763E+03 -0.49808345349E+03 -0.36346896670E+03  0.65370079994E+03  0.00000000000E+00 0.  1.
        -11    1    5    5    0    0  0.42105325606E+02 -0.21218696302E+03 -0.10352920732E+03  0.23982173064E+03  0.00000000000E+00 0. -1.
          4    1    6    6  503    0 -0.17207549287E+03 -0.16429864887E+03  0.18805253491E+03  0.30326189532E+03  0.00000000000E+00 0. -1.
         -4    1    6    6    0  503 -0.91225012295E+02 -0.13779752241E+03  0.54601545242E+02  0.17404450233E+03  0.00000000000E+00 0.  1.
<mgrwt>
<rscale>  0 0.24411280E+04</rscale>
<asrwt>0</asrwt>
<pdfrwt beam="1">  1        1 0.27452108E+00 0.24411280E+04</pdfrwt>
<pdfrwt beam="2">  1       -1 0.12844545E+00 0.24411280E+04</pdfrwt>
<totfact> 0.19487182E+00</totfact>
</mgrwt>
</event>
<event>
12    2  0.3561489E-008  0.1062680E+04  0.7818608E-02  0.9242350E-01
          1   -1    0    0  501    0  0.00000000000E+00  0.00000000000E+00  0.52022279871E+03  0.52022279871E+03  0.00000000000E+00 0.  1.
         -1   -1    0    0    0  501 -0.00000000000E+00 -0.00000000000E+00 -0.54269470408E+03  0.54269470408E+03  0.00000000000E+00 0. -1.
         23    2    1    2    0    0 -0.49499198685E+02 -0.43966135034E+02  0.11550084311E+03  0.16031415017E+03  0.89313998259E+02 0.  0.
        254    2    1    2    0    0  0.49499198685E+02  0.43966135034E+02 -0.13797274848E+03  0.90260335263E+03  0.88953535126E+03 0.  0.
         23    2    4    4    0    0  0.15760095560E+03 -0.29516655551E+03 -0.33675685804E+03  0.48224617688E+03  0.84822384916E+02 0.  0.
         23    2    4    4    0    0 -0.10810175691E+03  0.33913269054E+03  0.19878410956E+03  0.42035717574E+03  0.10241123643E+03 0.  0.
          1    1    3    3  502    0  0.20992065000E+02 -0.28268648064E+01  0.31014352334E+01  0.21407401946E+02  0.00000000000E+00 0. -1.
         -1    1    3    3    0  502 -0.70491263684E+02 -0.41139270228E+02  0.11239940788E+03  0.13890674823E+03  0.00000000000E+00 0.  1.
         11    1    5    5    0    0 -0.76931071176E+01 -0.13458940191E+02 -0.31860062186E+02  0.35431490664E+02  0.00000000000E+00 0. -1.
        -11    1    5    5    0    0  0.16529406271E+03 -0.28170761531E+03 -0.30489679586E+03  0.44681468622E+03  0.00000000000E+00 0.  1.
          4    1    6    6  503    0  0.11053650156E+02  0.10067566238E+03  0.33376613338E+02  0.10663850381E+03  0.00000000000E+00 0. -1.
         -4    1    6    6    0  503 -0.11915540707E+03  0.23845702816E+03  0.16540749622E+03  0.31371867193E+03  0.00000000000E+00 0.  1.
<mgrwt>
<rscale>  0 0.10626799E+04</rscale>
<asrwt>0</asrwt>
<pdfrwt beam="1">  1        1 0.80034277E-01 0.10626799E+04</pdfrwt>
<pdfrwt beam="2">  1       -1 0.83491493E-01 0.10626799E+04</pdfrwt>
<totfact> 0.59666783E+01</totfact>
</mgrwt>
</event>
<event>
12    2  0.3561489E-008  0.1572854E+04  0.7818608E-02  0.8837401E-01
          2   -1    0    0  501    0  0.00000000000E+00  0.00000000000E+00  0.23682226444E+04  0.23682226444E+04  0.00000000000E+00 0. -1.
         -2   -1    0    0    0  501 -0.00000000000E+00 -0.00000000000E+00 -0.26115241548E+03  0.26115241548E+03  0.00000000000E+00 0.  1.
         23    2    1    2    0    0 -0.37733681173E+03  0.34798173409E+03  0.59963721917E+03  0.79454224025E+03  0.90874749985E+02 0.  0.
        254    2    1    2    0    0  0.37733681173E+03 -0.34798173409E+03  0.15074330098E+04  0.18348328197E+04  0.91147289614E+03 0.  0.
         23    2    4    4    0    0  0.55976899341E+03 -0.51896271195E+03  0.12353743884E+04  0.14543742345E+04  0.79943180601E+02 0.  0.
         23    2    4    4    0    0 -0.18243218168E+03  0.17098097786E+03  0.27205862138E+03  0.38045858515E+03  0.90646819279E+02 0.  0.
          4    1    3    3  502    0 -0.28586470569E+03  0.30509994713E+03  0.51009705681E+03  0.65954803848E+03  0.00000000000E+00 0. -1.
         -4    1    3    3    0  502 -0.91472106041E+02  0.42881786957E+02  0.89540162360E+02  0.13499420177E+03  0.00000000000E+00 0.  1.
         11    1    5    5    0    0  0.83178233730E+02 -0.55886624187E+02  0.20705722383E+03  0.23003179622E+03  0.00000000000E+00 0. -1.
        -11    1    5    5    0    0  0.47659075968E+03 -0.46307608776E+03  0.10283171646E+04  0.12243424383E+04  0.00000000000E+00 0.  1.
          3    1    6    6  503    0 -0.55191175712E+01 -0.63852501621E+01  0.33436651428E+02  0.34485384399E+02  0.00000000000E+00 0. -1.
         -3    1    6    6    0  503 -0.17691306411E+03  0.17736622802E+03  0.23862196995E+03  0.34597320076E+03  0.00000000000E+00 0.  1.
<mgrwt>
<rscale>  0 0.15728535E+04</rscale>
<asrwt>0</asrwt>
<pdfrwt beam="1">  1        2 0.36434193E+00 0.15728535E+04</pdfrwt>
<pdfrwt beam="2">  1       -2 0.40177296E-01 0.15728535E+04</pdfrwt>
<totfact> 0.23393082E+01</totfact>
</mgrwt>
</event>
<event>
12    2  0.3561489E-008  0.1400903E+04  0.7818608E-02  0.8953165E-01
          2   -1    0    0  501    0  0.00000000000E+00  0.00000000000E+00  0.11566180352E+04  0.11566180352E+04  0.00000000000E+00 0. -1.
         -2   -1    0    0    0  501 -0.00000000000E+00 -0.00000000000E+00 -0.42419563265E+03  0.42419563265E+03  0.00000000000E+00 0.  1.
         23    2    1    2    0    0  0.39012273912E+03  0.68810657285E+02  0.12625251904E+03  0.42641172795E+03  0.94639341893E+02 0.  0.
        254    2    1    2    0    0 -0.39012273912E+03 -0.68810657285E+02  0.60616988346E+03  0.11544019399E+04  0.89903907200E+03 0.  0.
         23    2    4    4    0    0 -0.50446828355E+03 -0.20684212408E+03  0.73201128514E+03  0.91727400600E+03  0.90989928563E+02 0.  0.
         23    2    4    4    0    0  0.11434554444E+03  0.13803146680E+03 -0.12584140168E+03  0.23712793386E+03  0.90917596104E+02 0.  0.
          3    1    3    3  502    0  0.33842223788E+03  0.76669867190E+02  0.78880759596E+02  0.35585116813E+03  0.00000000000E+00 0. -1.
         -3    1    3    3    0  502  0.51700501241E+02 -0.78592099048E+01  0.47371759446E+02  0.70560559819E+02  0.00000000000E+00 0.  1.
         11    1    5    5    0    0 -0.82213256774E+02 -0.72284555313E+02  0.15267796591E+03  0.18786867169E+03  0.00000000000E+00 0.  1.
        -11    1    5    5    0    0 -0.42225502678E+03 -0.13455756877E+03  0.57933331923E+03  0.72940533431E+03  0.00000000000E+00 0. -1.
          4    1    6    6  503    0  0.67942675808E+02  0.31149427931E+02 -0.86101057253E+02  0.11401704310E+03  0.00000000000E+00 0. -1.
         -4    1    6    6    0  503  0.46402868628E+02  0.10688203887E+03 -0.39740344422E+02  0.12311089076E+03  0.00000000000E+00 0.  1.
<mgrwt>
<rscale>  0 0.14009030E+04</rscale>
<asrwt>0</asrwt>
<pdfrwt beam="1">  1        2 0.17794123E+00 0.14009030E+04</pdfrwt>
<pdfrwt beam="2">  1       -2 0.65260867E-01 0.14009030E+04</pdfrwt>
<totfact> 0.42376452E+01</totfact>
</mgrwt>
</event>
<event>
12    2  0.3561489E-008  0.1833977E+04  0.7818608E-02  0.8688437E-01
          1   -1    0    0  501    0  0.00000000000E+00  0.00000000000E+00  0.20524279982E+04  0.20524279982E+04  0.00000000000E+00 0. -1.
         -1   -1    0    0    0  501 -0.00000000000E+00 -0.00000000000E+00 -0.40969415511E+03  0.40969415511E+03  0.00000000000E+00 0.  1.
         23    2    1    2    0    0  0.48959805232E+03 -0.40015491097E+03  0.24573010776E+03  0.68441129485E+03  0.90583271289E+02 0.  0.
        254    2    1    2    0    0 -0.48959805232E+03  0.40015491097E+03  0.13970037354E+04  0.17777108585E+04  0.89933656336E+03 0.  0.
         23    2    4    4    0    0  0.99417252813E+02 -0.17179503509E+03  0.56334572374E+03  0.60417022529E+03  0.90917173440E+02 0.  0.
         23    2    4    4    0    0 -0.58901530514E+03  0.57194994607E+03  0.83365801163E+03  0.11735406332E+04  0.90256118751E+02 0.  0.
          4    1    3    3  502    0  0.18318826045E+02 -0.16385477344E+02 -0.79397840243E+01  0.25828345394E+02  0.00000000000E+00 0. -1.
         -4    1    3    3    0  502  0.47127922628E+03 -0.38376943363E+03  0.25366989179E+03  0.65858294945E+03  0.00000000000E+00 0.  1.
         11    1    5    5    0    0  0.46836374428E+02 -0.66874140430E+02  0.36222832495E+03  0.37131544005E+03  0.00000000000E+00 0.  1.
        -11    1    5    5    0    0  0.52580878385E+02 -0.10492089466E+03  0.20111739879E+03  0.23285478523E+03  0.00000000000E+00 0. -1.
          1    1    6    6  503    0 -0.50447969773E+03  0.47026995285E+03  0.73961223902E+03  0.10112763510E+04  0.00000000000E+00 0. -1.
         -1    1    6    6    0  503 -0.84535607401E+02  0.10167999322E+03  0.94045772616E+02  0.16226428223E+03  0.00000000000E+00 0.  1.
<mgrwt>
<rscale>  0 0.18339768E+04</rscale>
<asrwt>0</asrwt>
<pdfrwt beam="1">  1        1 0.31575815E+00 0.18339768E+04</pdfrwt>
<pdfrwt beam="2">  1       -1 0.63029871E-01 0.18339768E+04</pdfrwt>
<totfact> 0.65955659E+00</totfact>
</mgrwt>
</event>
<event>
12    2  0.3561489E-008  0.2624348E+04  0.7818608E-02  0.8359977E-01
         -1   -1    0    0    0  501 -0.00000000000E+00  0.00000000000E+00  0.20571023964E+04  0.20571023964E+04  0.00000000000E+00 0.  1.
          1   -1    0    0  501    0  0.00000000000E+00 -0.00000000000E+00 -0.83700311543E+03  0.83700311543E+03  0.00000000000E+00 0. -1.
         23    2    1    2    0    0 -0.82521828824E+03  0.73799072356E+03  0.89971282414E+03  0.14297135288E+04  0.94773821926E+02 0.  0.
        254    2    1    2    0    0  0.82521828824E+03 -0.73799072356E+03  0.32038645686E+03  0.14643919830E+04  0.90342728918E+03 0.  0.
         23    2    4    4    0    0  0.83856339994E+02 -0.60270283842E+03  0.34343275785E+03  0.70468178033E+03  0.91366050406E+02 0.  0.
         23    2    4    4    0    0  0.74136194825E+03 -0.13528788514E+03 -0.23046300990E+02  0.75971020267E+03  0.93317253910E+02 0.  0.
          2    1    3    3  502    0 -0.39986893398E+03  0.33339917326E+03  0.47931496185E+03  0.70766729877E+03  0.00000000000E+00 0. -1.
         -2    1    3    3    0  502 -0.42534935426E+03  0.40459155030E+03  0.42039786229E+03  0.72204623007E+03  0.00000000000E+00 0.  1.
         11    1    5    5    0    0  0.82568634538E+02 -0.47057882598E+03  0.30596575076E+03  0.56734209389E+03  0.00000000000E+00 0. -1.
        -11    1    5    5    0    0  0.12877054557E+01 -0.13212401245E+03  0.37467007090E+02  0.13733968644E+03  0.00000000000E+00 0.  1.
          1    1    6    6  503    0  0.70073674615E+03 -0.14481023855E+03 -0.34709668454E+02  0.71638450129E+03  0.00000000000E+00 0. -1.
         -1    1    6    6    0  503  0.40625202099E+02  0.95223534166E+01  0.11663367464E+02  0.43325701388E+02  0.00000000000E+00 0.  1.
<mgrwt>
<rscale>  0 0.26243484E+04</rscale>
<asrwt>0</asrwt>
<pdfrwt beam="1">  1        1 0.12876971E+00 0.26243484E+04</pdfrwt>
<pdfrwt beam="2">  1       -1 0.31647729E+00 0.26243484E+04</pdfrwt>
<totfact> 0.46592670E-01</totfact>
</mgrwt>
</event>
<event>
12    2  0.3561489E-008  0.1858044E+04  0.7818608E-02  0.8676027E-01
         -2   -1    0    0    0  501 -0.00000000000E+00  0.00000000000E+00  0.59850635323E+03  0.59850635323E+03  0.00000000000E+00 0.  1.
          2   -1    0    0  501    0  0.00000000000E+00 -0.00000000000E+00 -0.14420591058E+04  0.14420591058E+04  0.00000000000E+00 0. -1.
         23    2    1    2    0    0 -0.14281254297E+03  0.18226761687E+03 -0.10527525254E+04  0.10818350600E+04  0.91990817683E+02 0.  0.
        254    2    1    2    0    0  0.14281254297E+03 -0.18226761687E+03  0.20919977286E+03  0.95873039908E+03  0.90652221515E+03 0.  0.
         23    2    4    4    0    0 -0.83013060919E+02  0.11368162802E+03  0.46510772904E+03  0.49558775667E+03  0.97300278125E+02 0.  0.
         23    2    4    4    0    0  0.22582560389E+03 -0.29594924488E+03 -0.25590795617E+03  0.46314264241E+03  0.10212279992E+03 0.  0.
          2    1    3    3  502    0 -0.11561666710E+03  0.14312530594E+03 -0.96086162510E+03  0.97831852150E+03  0.00000000000E+00 0. -1.
         -2    1    3    3    0  502 -0.27195875872E+02  0.39142310927E+02 -0.91890900337E+02  0.10351653846E+03  0.00000000000E+00 0.  1.
         11    1    5    5    0    0 -0.72843631785E+02  0.13141749510E+03  0.39723397776E+03  0.42470176100E+03  0.00000000000E+00 0.  1.
        -11    1    5    5    0    0 -0.10169429134E+02 -0.17735867084E+02  0.67873751276E+02  0.70885995672E+02  0.00000000000E+00 0. -1.
          4    1    6    6  503    0  0.13564829320E+01 -0.35173886561E+02 -0.15128036903E+01  0.35232526403E+02  0.00000000000E+00 0. -1.
         -4    1    6    6    0  503  0.22446912096E+03 -0.26077535832E+03 -0.25439515248E+03  0.42791011601E+03  0.00000000000E+00 0.  1.
<mgrwt>
<rscale>  0 0.18580436E+04</rscale>
<asrwt>0</asrwt>
<pdfrwt beam="1">  1        2 0.22185525E+00 0.18580436E+04</pdfrwt>
<pdfrwt beam="2">  1       -2 0.92077901E-01 0.18580436E+04</pdfrwt>
<totfact> 0.12898242E+01</totfact>
</mgrwt>
</event>
<event>
12    2  0.3561489E-008  0.2057870E+04  0.7818608E-02  0.8580032E-01
         -2   -1    0    0    0  501 -0.00000000000E+00  0.00000000000E+00  0.26247497210E+03  0.26247497210E+03  0.00000000000E+00 0.  1.
          2   -1    0    0  501    0  0.00000000000E+00 -0.00000000000E+00 -0.40335569440E+04  0.40335569440E+04  0.00000000000E+00 0. -1.
         23    2    1    2    0    0 -0.16013135400E+03  0.22626344526E+03 -0.31515448405E+04  0.31649830938E+04  0.89698969402E+02 0.  0.
        254    2    1    2    0    0  0.16013135400E+03 -0.22626344526E+03 -0.61953713143E+03  0.11310488223E+04  0.90476957513E+03 0.  0.
         23    2    4    4    0    0 -0.17176096954E+03 -0.40611339195E+02  0.16125335981E+03  0.25759236163E+03  0.95916980739E+02 0.  0.
         23    2    4    4    0    0  0.33189232354E+03 -0.18565210607E+03 -0.78079049124E+03  0.87345646070E+03  0.93129901853E+02 0.  0.
          3    1    3    3  502    0 -0.12245600719E+03  0.10096891039E+03 -0.19002834113E+04  0.19068999024E+04  0.00000000000E+00 0. -1.
         -3    1    3    3    0  502 -0.37675346813E+02  0.12529453487E+03 -0.12512614292E+04  0.12580831914E+04  0.00000000000E+00 0.  1.
         11    1    5    5    0    0 -0.16680640460E+03 -0.51204925197E+02  0.16951563901E+03  0.24327324729E+03  0.00000000000E+00 0.  1.
        -11    1    5    5    0    0 -0.49545649426E+01  0.10593586002E+02 -0.82622791953E+01  0.14319114346E+02  0.00000000000E+00 0. -1.
          2    1    6    6  503    0  0.88595927582E+02 -0.60661308250E+02 -0.13770829681E+03  0.17462132663E+03  0.00000000000E+00 0. -1.
         -2    1    6    6    0  503  0.24329639596E+03 -0.12499079782E+03 -0.64308219442E+03  0.69883513407E+03  0.00000000000E+00 0.  1.
<mgrwt>
<rscale>  0 0.20578705E+04</rscale>
<asrwt>0</asrwt>
<pdfrwt beam="1">  1        2 0.62054720E+00 0.20578705E+04</pdfrwt>
<pdfrwt beam="2">  1       -2 0.40380766E-01 0.20578705E+04</pdfrwt>
<totfact> 0.17416524E+00</totfact>
</mgrwt>
</event>
<event>
12    2  0.3561489E-008  0.1908171E+04  0.7818608E-02  0.8650800E-01
          2   -1    0    0  501    0  0.00000000000E+00  0.00000000000E+00  0.17702961810E+04  0.17702961810E+04  0.00000000000E+00 0. -1.
         -2   -1    0    0    0  501 -0.00000000000E+00 -0.00000000000E+00 -0.51419576936E+03  0.51419576936E+03  0.00000000000E+00 0.  1.
         23    2    1    2    0    0 -0.76165417629E+02  0.34938236005E+03 -0.28451431834E+03  0.46514660838E+03  0.86854853562E+02 0.  0.
        254    2    1    2    0    0  0.76165417629E+02 -0.34938236005E+03  0.15406147300E+04  0.18193453420E+04  0.89925220200E+03 0.  0.
         23    2    4    4    0    0 -0.19660708077E+03 -0.26459836266E+03  0.11318367876E+03  0.36067865878E+03  0.92800388117E+02 0.  0.
         23    2    4    4    0    0  0.27277249840E+03 -0.84783997398E+02  0.14274310512E+04  0.14586666832E+04  0.92498241001E+02 0.  0.
          1    1    3    3  502    0 -0.89945919145E+02  0.22480927739E+03 -0.19903195283E+03  0.31343770963E+03  0.00000000000E+00 0. -1.
         -1    1    3    3    0  502  0.13780501516E+02  0.12457308266E+03 -0.85482365509E+02  0.15170889875E+03  0.00000000000E+00 0.  1.
         11    1    5    5    0    0 -0.17042628312E+03 -0.16061566226E+03  0.64421646792E+02  0.24288404130E+03  0.00000000000E+00 0. -1.
        -11    1    5    5    0    0 -0.26180797651E+02 -0.10398270039E+03  0.48762031966E+02  0.11779461749E+03  0.00000000000E+00 0.  1.
          2    1    6    6  503    0 -0.47471683930E+01 -0.59165938685E+00  0.91256311119E+02  0.91381617340E+02  0.00000000000E+00 0.  1.
         -2    1    6    6    0  503  0.27751966679E+03 -0.84192338011E+02  0.13361747401E+04  0.13672850659E+04  0.00000000000E+00 0. -1.
<mgrwt>
<rscale>  0 0.19081706E+04</rscale>
<asrwt>0</asrwt>
<pdfrwt beam="1">  1        2 0.27235326E+00 0.19081706E+04</pdfrwt>
<pdfrwt beam="2">  1       -2 0.79107042E-01 0.19081706E+04</pdfrwt>
<totfact> 0.11891220E+01</totfact>
</mgrwt>
</event>
<event>
12    2  0.3561489E-008  0.1464444E+04  0.7818608E-02  0.8908448E-01
         -2   -1    0    0    0  501 -0.00000000000E+00  0.00000000000E+00  0.95302649519E+03  0.95302649519E+03  0.00000000000E+00 0.  1.
          2   -1    0    0  501    0  0.00000000000E+00 -0.00000000000E+00 -0.56257526826E+03  0.56257526826E+03  0.00000000000E+00 0. -1.
         23    2    1    2    0    0 -0.37084501279E+03 -0.11078647349E+03  0.38329982621E+03  0.55202693976E+03  0.89528315198E+02 0.  0.
        254    2    1    2    0    0  0.37084501279E+03  0.11078647349E+03  0.71514007244E+01  0.96357482369E+03  0.88239766098E+03 0.  0.
         23    2    4    4    0    0  0.23551262793E+03  0.33237257688E+03 -0.32507561597E+03  0.53093412486E+03  0.10138619762E+03 0.  0.
         23    2    4    4    0    0  0.13533238486E+03 -0.22158610339E+03  0.33222701669E+03  0.43264069883E+03  0.96891320843E+02 0.  0.
          2    1    3    3  502    0 -0.17420799773E+03 -0.34038544858E+02  0.11864711481E+03  0.21350453593E+03  0.00000000000E+00 0. -1.
         -2    1    3    3    0  502 -0.19663701506E+03 -0.76747928637E+02  0.26465271140E+03  0.33852240383E+03  0.00000000000E+00 0.  1.
         11    1    5    5    0    0  0.18935816600E+03  0.31995675523E+03 -0.29307766477E+03  0.47341668521E+03  0.00000000000E+00 0. -1.
        -11    1    5    5    0    0  0.46154461930E+02  0.12415821655E+02 -0.31997951195E+02  0.57517439652E+02  0.00000000000E+00 0.  1.
          4    1    6    6  503    0  0.81764950121E+02 -0.11286634560E+03  0.10285058805E+03  0.17321247790E+03  0.00000000000E+00 0.  1.
         -4    1    6    6    0  503  0.53567434742E+02 -0.10871975779E+03  0.22937642864E+03  0.25942822093E+03  0.00000000000E+00 0. -1.
<mgrwt>
<rscale>  0 0.14644441E+04</rscale>
<asrwt>0</asrwt>
<pdfrwt beam="1">  1        2 0.86550042E-01 0.14644441E+04</pdfrwt>
<pdfrwt beam="2">  1       -2 0.14661946E+00 0.14644441E+04</pdfrwt>
<totfact> 0.16509114E+01</totfact>
</mgrwt>
</event>
<event>
12    2  0.3561489E-008  0.1296151E+04  0.7818608E-02  0.9032623E-01
         -3   -1    0    0    0  501 -0.00000000000E+00  0.00000000000E+00  0.80587480272E+03  0.80587480272E+03  0.00000000000E+00 0.  1.
          3   -1    0    0  501    0  0.00000000000E+00 -0.00000000000E+00 -0.52117497668E+03  0.52117497668E+03  0.00000000000E+00 0. -1.
         23    2    1    2    0    0 -0.31399388579E+03  0.31387401912E+02  0.22377631214E+03  0.39740343261E+03  0.90974287923E+02 0.  0.
        254    2    1    2    0    0  0.31399388579E+03 -0.31387401912E+02  0.60923513891E+02  0.92964634679E+03  0.87232638745E+03 0.  0.
         23    2    4    4    0    0  0.73549461898E+02 -0.25135206838E+03  0.37661992668E+03  0.46751120488E+03  0.90204056954E+02 0.  0.
         23    2    4    4    0    0  0.24044442390E+03  0.21996466647E+03 -0.31569641279E+03  0.46213514190E+03  0.87787748885E+02 0.  0.
          2    1    3    3  502    0 -0.61234982400E+02 -0.22405298473E+02  0.74350590517E+02  0.98892521352E+02  0.00000000000E+00 0. -1.
         -2    1    3    3    0  502 -0.25275890339E+03  0.53792700385E+02  0.14942572163E+03  0.29851091126E+03  0.00000000000E+00 0.  1.
         11    1    5    5    0    0  0.89329594333E+02 -0.15726434018E+03  0.26233824997E+03  0.31864275689E+03  0.00000000000E+00 0. -1.
        -11    1    5    5    0    0 -0.15780132435E+02 -0.94087728201E+02  0.11428167671E+03  0.14886844800E+03  0.00000000000E+00 0.  1.
          1    1    6    6  503    0  0.73494532281E+02  0.12612339295E+03 -0.13801855006E+03  0.20089220165E+03  0.00000000000E+00 0. -1.
         -1    1    6    6    0  503  0.16694989161E+03  0.93841273525E+02 -0.17767786273E+03  0.26124294025E+03  0.00000000000E+00 0.  1.
<mgrwt>
<rscale>  0 0.12961509E+04</rscale>
<asrwt>0</asrwt>
<pdfrwt beam="1">  1        3 0.80180765E-01 0.12961509E+04</pdfrwt>
<pdfrwt beam="2">  1       -3 0.12398074E+00 0.12961509E+04</pdfrwt>
<totfact> 0.19412951E+00</totfact>
</mgrwt>
</event>
<event>
12    2  0.3561489E-008  0.1404720E+04  0.7818608E-02  0.8950409E-01
          2   -1    0    0  501    0  0.00000000000E+00  0.00000000000E+00  0.11212062675E+04  0.11212062675E+04  0.00000000000E+00 0.  1.
         -2   -1    0    0    0  501 -0.00000000000E+00 -0.00000000000E+00 -0.43998086599E+03  0.43998086599E+03  0.00000000000E+00 0. -1.
         23    2    1    2    0    0  0.16959408368E+02  0.26279467171E+03  0.54317082847E+03  0.61015712252E+03  0.88929771417E+02 0.  0.
        254    2    1    2    0    0 -0.16959408368E+02 -0.26279467171E+03  0.13805457305E+03  0.95103001098E+03  0.90335505514E+03 0.  0.
         23    2    4    4    0    0 -0.40835866798E+03 -0.87007920913E+02  0.25413973508E+03  0.49715378784E+03  0.90816869604E+02 0.  0.
         23    2    4    4    0    0  0.39139925961E+03 -0.17578675079E+03 -0.11608516203E+03  0.45387622314E+03  0.91834083572E+02 0.  0.
          1    1    3    3  502    0  0.24878782513E+01  0.71442141012E+01  0.84613948000E+02  0.84951453957E+02  0.00000000000E+00 0. -1.
         -1    1    3    3    0  502  0.14471530116E+02  0.25565045761E+03  0.45855688047E+03  0.52520566856E+03  0.00000000000E+00 0.  1.
         11    1    5    5    0    0 -0.38762249425E+03 -0.10294507943E+03  0.23630736967E+03  0.46549979633E+03  0.00000000000E+00 0. -1.
        -11    1    5    5    0    0 -0.20736173737E+02  0.15937158513E+02  0.17832365410E+02  0.31653991515E+02  0.00000000000E+00 0.  1.
          2    1    6    6  503    0  0.36927767318E+03 -0.13849977259E+03 -0.11368746509E+03  0.41045465844E+03  0.00000000000E+00 0. -1.
         -2    1    6    6    0  503  0.22121586431E+02 -0.37286978206E+02 -0.23976969368E+01  0.43421564694E+02  0.00000000000E+00 0.  1.
<mgrwt>
<rscale>  0 0.14047196E+04</rscale>
<asrwt>0</asrwt>
<pdfrwt beam="1">  1        2 0.17249327E+00 0.14047196E+04</pdfrwt>
<pdfrwt beam="2">  1       -2 0.67689365E-01 0.14047196E+04</pdfrwt>
<totfact> 0.41143723E+01</totfact>
</mgrwt>
</event>
<event>
12    2  0.3561489E-008  0.2012451E+04  0.7818608E-02  0.8600822E-01
          2   -1    0    0  501    0  0.00000000000E+00  0.00000000000E+00  0.58796214535E+03  0.58796214535E+03  0.00000000000E+00 0.  1.
         -2   -1    0    0    0  501 -0.00000000000E+00 -0.00000000000E+00 -0.17220320214E+04  0.17220320214E+04  0.00000000000E+00 0. -1.
         23    2    1    2    0    0  0.11822138759E+03 -0.76426746547E+03 -0.22319027129E+03  0.81005511678E+03  0.91073265876E+02 0.  0.
        254    2    1    2    0    0 -0.11822138759E+03  0.76426746547E+03 -0.91087960474E+03  0.14999390499E+04  0.90666115167E+03 0.  0.
         23    2    4    4    0    0  0.28185292077E+03  0.51714286919E+03 -0.81824231720E+03  0.10122646938E+04  0.91002772248E+02 0.  0.
         23    2    4    4    0    0 -0.40007430836E+03  0.24712459628E+03 -0.92637287537E+02  0.48767435614E+03  0.90081031841E+02 0.  0.
          4    1    3    3  502    0  0.87807360831E+02 -0.70420724530E+03 -0.21864891473E+03  0.74258018077E+03  0.00000000000E+00 0.  1.
         -4    1    3    3    0  502  0.30414026760E+02 -0.60060220168E+02 -0.45413565597E+01  0.67474936012E+02  0.00000000000E+00 0. -1.
         11    1    5    5    0    0  0.27652828069E+03  0.45013755518E+03 -0.73779710206E+03  0.90743389424E+03  0.00000000000E+00 0. -1.
        -11    1    5    5    0    0  0.53246400803E+01  0.67005314018E+02 -0.80445215138E+02  0.10483079956E+03  0.00000000000E+00 0.  1.
          2    1    6    6  503    0 -0.20256286045E+03  0.17258147786E+03 -0.71234360176E+02  0.27548214643E+03  0.00000000000E+00 0. -1.
         -2    1    6    6    0  503 -0.19751144791E+03  0.74543118413E+02 -0.21402927361E+02  0.21219220971E+03  0.00000000000E+00 0.  1.
<mgrwt>
<rscale>  0 0.20124509E+04</rscale>
<asrwt>0</asrwt>
<pdfrwt beam="1">  1        2 0.90455715E-01 0.20124509E+04</pdfrwt>
<pdfrwt beam="2">  1       -2 0.26492800E+00 0.20124509E+04</pdfrwt>
<totfact> 0.24557668E+00</totfact>
</mgrwt>
</event>
<event>
12    2  0.3561489E-008  0.1784898E+04  0.7818608E-02  0.8714372E-01
          2   -1    0    0  501    0  0.00000000000E+00  0.00000000000E+00  0.15950187555E+04  0.15950187555E+04  0.00000000000E+00 0. -1.
         -2   -1    0    0    0  501 -0.00000000000E+00 -0.00000000000E+00 -0.49934521239E+03  0.49934521239E+03  0.00000000000E+00 0.  1.
         23    2    1    2    0    0  0.46379882080E+03  0.39895978443E+03  0.12426020154E+03  0.63063868778E+03  0.89366106908E+02 0.  0.
        254    2    1    2    0    0 -0.46379882080E+03 -0.39895978443E+03  0.97141334156E+03  0.14637252801E+04  0.90805812573E+03 0.  0.
         23    2    4    4    0    0  0.21237093579E+03 -0.14790729407E+03  0.57125229089E+03  0.63389587515E+03  0.92286611581E+02 0.  0.
         23    2    4    4    0    0 -0.67616975659E+03 -0.25105249036E+03  0.40016105067E+03  0.82982940496E+03  0.90857482989E+02 0.  0.
          3    1    3    3  502    0  0.23320393756E+02 -0.90570018444E+00  0.34910745970E+01  0.23597640975E+02  0.00000000000E+00 0. -1.
         -3    1    3    3    0  502  0.44047842705E+03  0.39986548461E+03  0.12076912694E+03  0.60704104680E+03  0.00000000000E+00 0.  1.
         11    1    5    5    0    0  0.10719579054E+03 -0.12876187971E+03  0.36343439660E+03  0.40019385279E+03  0.00000000000E+00 0. -1.
        -11    1    5    5    0    0  0.10517514525E+03 -0.19145414357E+02  0.20781789429E+03  0.23370202236E+03  0.00000000000E+00 0.  1.
          2    1    6    6  503    0 -0.39457548320E+03 -0.98710179037E+02  0.21799184185E+03  0.46146934297E+03  0.00000000000E+00 0. -1.
         -2    1    6    6    0  503 -0.28159427339E+03 -0.15234231132E+03  0.18216920882E+03  0.36836006199E+03  0.00000000000E+00 0.  1.
<mgrwt>
<rscale>  0 0.17848977E+04</rscale>
<asrwt>0</asrwt>
<pdfrwt beam="1">  1        2 0.24538750E+00 0.17848977E+04</pdfrwt>
<pdfrwt beam="2">  1       -2 0.76822341E-01 0.17848977E+04</pdfrwt>
<totfact> 0.16057928E+01</totfact>
</mgrwt>
</event>
<event>
12    2  0.3561489E-008  0.1789541E+04  0.7818608E-02  0.8711882E-01
          2   -1    0    0  501    0  0.00000000000E+00  0.00000000000E+00  0.14031057574E+04  0.14031057574E+04  0.00000000000E+00 0.  1.
         -2   -1    0    0    0  501 -0.00000000000E+00 -0.00000000000E+00 -0.57060124162E+03  0.57060124162E+03  0.00000000000E+00 0. -1.
         23    2    1    2    0    0 -0.38211136248E+02 -0.34167628707E+03 -0.31589149188E+03  0.47546476105E+03  0.89869506967E+02 0.  0.
        254    2    1    2    0    0  0.38211136248E+02  0.34167628707E+03  0.11483960076E+04  0.14982422379E+04  0.89872890078E+03 0.  0.
         23    2    4    4    0    0  0.26074586754E+03  0.55348077043E+03  0.90257831649E+03  0.10943688257E+04  0.93092097773E+02 0.  0.
         23    2    4    4    0    0 -0.22253473129E+03 -0.21180448336E+03  0.24581769115E+03  0.40387341221E+03  0.91129303751E+02 0.  0.
          2    1    3    3  502    0 -0.47683388949E+02 -0.33687039239E+03 -0.31669468971E+03  0.46481275084E+03  0.00000000000E+00 0. -1.
         -2    1    3    3    0  502  0.94722527002E+01 -0.48058946785E+01  0.80319782963E+00  0.10652010216E+02  0.00000000000E+00 0.  1.
         11    1    5    5    0    0  0.18561858449E+03  0.28596739707E+03  0.48872250411E+03  0.59588698351E+03  0.00000000000E+00 0. -1.
        -11    1    5    5    0    0  0.75127283043E+02  0.26751337336E+03  0.41385581238E+03  0.49848184222E+03  0.00000000000E+00 0.  1.
          4    1    6    6  503    0 -0.21419089132E+03 -0.21766450212E+03  0.22074707987E+03  0.37680876672E+03  0.00000000000E+00 0.  1.
         -4    1    6    6    0  503 -0.83438399695E+01  0.58600187534E+01  0.25070611286E+02  0.27064645490E+02  0.00000000000E+00 0. -1.
<mgrwt>
<rscale>  0 0.17895406E+04</rscale>
<asrwt>0</asrwt>
<pdfrwt beam="1">  1        2 0.21586242E+00 0.17895406E+04</pdfrwt>
<pdfrwt beam="2">  1       -2 0.87784807E-01 0.17895406E+04</pdfrwt>
<totfact> 0.15241482E+01</totfact>
</mgrwt>
</event>
<event>
12    2  0.3561489E-008  0.2135635E+04  0.7818608E-02  0.8545706E-01
         -2   -1    0    0    0  501 -0.00000000000E+00  0.00000000000E+00  0.10622656501E+04  0.10622656501E+04  0.00000000000E+00 0.  1.
          2   -1    0    0  501    0  0.00000000000E+00 -0.00000000000E+00 -0.10733983058E+04  0.10733983058E+04  0.00000000000E+00 0. -1.
         23    2    1    2    0    0  0.76360265842E+03  0.27425826824E+03 -0.32840907157E+03  0.88008234268E+03  0.91573980762E+02 0.  0.
        254    2    1    2    0    0 -0.76360265842E+03 -0.27425826824E+03  0.31727641587E+03  0.12555816133E+04  0.90416494397E+03 0.  0.
         23    2    4    4    0    0  0.14447648237E+03 -0.14881462983E+02  0.25535124281E+03  0.30442355939E+03  0.79840681417E+02 0.  0.
         23    2    4    4    0    0 -0.90807914079E+03 -0.25937680526E+03  0.61925173062E+02  0.95115805390E+03  0.94777968926E+02 0.  0.
          3    1    3    3  502    0  0.45875217854E+03  0.20259813430E+03 -0.17314582720E+03  0.53054598557E+03  0.00000000000E+00 0. -1.
         -3    1    3    3    0  502  0.30485047989E+03  0.71660133946E+02 -0.15526324437E+03  0.34953635710E+03  0.00000000000E+00 0.  1.
         11    1    5    5    0    0  0.26969870693E+02  0.24345157288E+02  0.95575030564E+02  0.10224796857E+03  0.00000000000E+00 0. -1.
        -11    1    5    5    0    0  0.11750661167E+03 -0.39226620272E+02  0.15977621225E+03  0.20217559082E+03  0.00000000000E+00 0.  1.
          1    1    6    6  503    0 -0.33260766379E+03 -0.14237978848E+03  0.17070997059E+02  0.36220336983E+03  0.00000000000E+00 0. -1.
         -1    1    6    6    0  503 -0.57547147700E+03 -0.11699701678E+03  0.44854176002E+02  0.58895468407E+03  0.00000000000E+00 0.  1.
<mgrwt>
<rscale>  0 0.21356349E+04</rscale>
<asrwt>0</asrwt>
<pdfrwt beam="1">  1        2 0.16513820E+00 0.21356349E+04</pdfrwt>
<pdfrwt beam="2">  1       -2 0.16342548E+00 0.21356349E+04</pdfrwt>
<totfact> 0.49427222E+00</totfact>
</mgrwt>
</event>
<event>
12    2  0.3561489E-008  0.2013067E+04  0.7818608E-02  0.8600536E-01
          2   -1    0    0  501    0  0.00000000000E+00  0.00000000000E+00  0.57390526963E+03  0.57390526963E+03  0.00000000000E+00 0. -1.
         -2   -1    0    0    0  501 -0.00000000000E+00 -0.00000000000E+00 -0.17652900602E+04  0.17652900602E+04  0.00000000000E+00 0.  1.
         23    2    1    2    0    0  0.38307156889E+03 -0.33698771335E+03 -0.11988552604E+04  0.13061933117E+04  0.92641708876E+02 0.  0.
        254    2    1    2    0    0 -0.38307156889E+03  0.33698771335E+03  0.74704698652E+01  0.10330020181E+04  0.89818306358E+03 0.  0.
         23    2    4    4    0    0 -0.15284281973E+03  0.60958198072E+03 -0.11358180913E+03  0.64515832028E+03  0.91527657555E+02 0.  0.
         23    2    4    4    0    0 -0.23022874916E+03 -0.27259426737E+03  0.12105227899E+03  0.38784369786E+03  0.91957425880E+02 0.  0.
          3    1    3    3  502    0  0.79697765414E+02 -0.27334878082E+02 -0.16968559363E+03  0.18945218410E+03  0.00000000000E+00 0. -1.
         -3    1    3    3    0  502  0.30337380347E+03 -0.30965283527E+03 -0.10291696668E+04  0.11167411276E+04  0.00000000000E+00 0.  1.
         11    1    5    5    0    0 -0.15171917127E+03  0.48415061908E+03 -0.69008393039E+02  0.51203777908E+03  0.00000000000E+00 0.  1.
        -11    1    5    5    0    0 -0.11236484519E+01  0.12543136164E+03 -0.44573416090E+02  0.13312054120E+03  0.00000000000E+00 0. -1.
          3    1    6    6  503    0  0.51274449448E+01  0.23729420404E+01  0.55561278587E+01  0.79241467914E+01  0.00000000000E+00 0. -1.
         -3    1    6    6    0  503 -0.23535619411E+03 -0.27496720941E+03  0.11549615113E+03  0.37991955106E+03  0.00000000000E+00 0.  1.
<mgrwt>
<rscale>  0 0.20130666E+04</rscale>
<asrwt>0</asrwt>
<pdfrwt beam="1">  1        2 0.88293119E-01 0.20130666E+04</pdfrwt>
<pdfrwt beam="2">  1       -2 0.27158309E+00 0.20130666E+04</pdfrwt>
<totfact> 0.23024975E+00</totfact>
</mgrwt>
</event>
<event>
12    2  0.3561489E-008  0.1456337E+04  0.7818608E-02  0.8914019E-01
         -2   -1    0    0    0  501 -0.00000000000E+00  0.00000000000E+00  0.26621680593E+03  0.26621680593E+03  0.00000000000E+00 0.  1.
          2   -1    0    0  501    0  0.00000000000E+00 -0.00000000000E+00 -0.19917214371E+04  0.19917214371E+04  0.00000000000E+00 0. -1.
         23    2    1    2    0    0 -0.28334596915E+03 -0.27642699833E+03 -0.87372182731E+03  0.96350800259E+03  0.90890130927E+02 0.  0.
        254    2    1    2    0    0  0.28334596915E+03  0.27642699833E+03 -0.85178280382E+03  0.12944302404E+04  0.89068450012E+03 0.  0.
         23    2    4    4    0    0  0.25512144939E+03  0.55408327913E+02 -0.98257489014E+03  0.10206491964E+04  0.90079579805E+02 0.  0.
         23    2    4    4    0    0  0.28224519753E+02  0.22101867042E+03  0.13079208632E+03  0.27378104398E+03  0.90573804210E+02 0.  0.
          4    1    3    3  502    0 -0.91677726231E+02 -0.76064844690E+02 -0.36747788953E+03  0.38630385110E+03  0.00000000000E+00 0. -1.
         -4    1    3    3    0  502 -0.19166824291E+03 -0.20036215364E+03 -0.50624393778E+03  0.57720415149E+03  0.00000000000E+00 0.  1.
         11    1    5    5    0    0  0.22404572985E+03  0.59305799905E+02 -0.72415019699E+03  0.76033359440E+03  0.00000000000E+00 0.  1.
        -11    1    5    5    0    0  0.31075719544E+02 -0.38974719923E+01 -0.25842469315E+03  0.26031560203E+03  0.00000000000E+00 0. -1.
          1    1    6    6  503    0 -0.14058611597E+02  0.18162446566E+03  0.10713070581E+03  0.21133404651E+03  0.00000000000E+00 0. -1.
         -1    1    6    6    0  503  0.42283131350E+02  0.39394204760E+02  0.23661380507E+02  0.62446997469E+02  0.00000000000E+00 0.  1.
<mgrwt>
<rscale>  0 0.14563375E+04</rscale>
<asrwt>0</asrwt>
<pdfrwt beam="1">  1        2 0.30641868E+00 0.14563375E+04</pdfrwt>
<pdfrwt beam="2">  1       -2 0.40956432E-01 0.14563375E+04</pdfrwt>
<totfact> 0.36971465E+01</totfact>
</mgrwt>
</event>
<event>
12    2  0.3561489E-008  0.2117529E+04  0.7818608E-02  0.8553561E-01
         -2   -1    0    0    0  501 -0.00000000000E+00  0.00000000000E+00  0.58971771965E+03  0.58971771965E+03  0.00000000000E+00 0. -1.
          2   -1    0    0  501    0  0.00000000000E+00 -0.00000000000E+00 -0.19008795825E+04  0.19008795825E+04  0.00000000000E+00 0.  1.
         23    2    1    2    0    0 -0.81761713751E+03  0.23535685283E+03 -0.68722291124E+03  0.10975708518E+04  0.92172735530E+02 0.  0.
        254    2    1    2    0    0  0.81761713751E+03 -0.23535685283E+03 -0.62393895164E+03  0.13930264504E+04  0.90957805849E+03 0.  0.
         23    2    4    4    0    0  0.73460648204E+02 -0.43386919437E+03 -0.35188456344E+03  0.57113676119E+03  0.93463946721E+02 0.  0.
         23    2    4    4    0    0  0.74415648930E+03  0.19851234154E+03 -0.27205438819E+03  0.82188968923E+03  0.91175878488E+02 0.  0.
          2    1    3    3  502    0 -0.57315812851E+03  0.12172353447E+03 -0.45764471201E+03  0.74348203849E+03  0.00000000000E+00 0. -1.
         -2    1    3    3    0  502 -0.24445900900E+03  0.11363331837E+03 -0.22957819923E+03  0.35408881327E+03  0.00000000000E+00 0.  1.
         11    1    5    5    0    0 -0.46823937944E+01 -0.51731646748E+01 -0.26211405466E+02  0.27124236780E+02  0.00000000000E+00 0.  1.
        -11    1    5    5    0    0  0.78143041998E+02 -0.42869602970E+03 -0.32567315798E+03  0.54401252441E+03  0.00000000000E+00 0. -1.
          1    1    6    6  503    0  0.60913100131E+03  0.19802312060E+03 -0.22242455106E+03  0.67803127801E+03  0.00000000000E+00 0. -1.
         -1    1    6    6    0  503  0.13502548799E+03  0.48922093619E+00 -0.49629837137E+02  0.14385841122E+03  0.00000000000E+00 0.  1.
<mgrwt>
<rscale>  0 0.21175291E+04</rscale>
<asrwt>0</asrwt>
<pdfrwt beam="1">  1        2 0.29244302E+00 0.21175291E+04</pdfrwt>
<pdfrwt beam="2">  1       -2 0.90725802E-01 0.21175291E+04</pdfrwt>
<totfact> 0.72402709E+00</totfact>
</mgrwt>
</event>
<event>
12    2  0.3561489E-008  0.2528008E+04  0.7818608E-02  0.8393075E-01
         -2   -1    0    0    0  501 -0.00000000000E+00  0.00000000000E+00  0.51930465641E+03  0.51930465641E+03  0.00000000000E+00 0.  1.
          2   -1    0    0  501    0  0.00000000000E+00 -0.00000000000E+00 -0.30766265406E+04  0.30766265406E+04  0.00000000000E+00 0. -1.
         23    2    1    2    0    0  0.25365082524E+03  0.59683234887E+03  0.14473672823E+03  0.67070612197E+03  0.91380456041E+02 0.  0.
        254    2    1    2    0    0 -0.25365082524E+03 -0.59683234887E+03 -0.27020586124E+04  0.29252250750E+04  0.91393293021E+03 0.  0.
         23    2    4    4    0    0 -0.26763708615E+03  0.69347395904E+02 -0.26042070409E+03  0.39232152118E+03  0.98277981579E+02 0.  0.
         23    2    4    4    0    0  0.13986260905E+02 -0.66617974477E+03 -0.24416379083E+04  0.25329035538E+04  0.10006832645E+03 0.  0.
          3    1    3    3  502    0  0.15065881564E+03  0.32877498861E+03  0.12585569787E+03  0.38292392005E+03  0.00000000000E+00 0. -1.
         -3    1    3    3    0  502  0.10299200960E+03  0.26805736026E+03  0.18881030366E+02  0.28778220191E+03  0.00000000000E+00 0.  1.
         11    1    5    5    0    0 -0.20321219119E+03  0.94691945655E+02 -0.19852276432E+03  0.29945458282E+03  0.00000000000E+00 0. -1.
        -11    1    5    5    0    0 -0.64424894956E+02 -0.25344549751E+02 -0.61897939770E+02  0.92866938358E+02  0.00000000000E+00 0.  1.
          4    1    6    6  503    0 -0.19529272705E+00 -0.57705638965E+03 -0.22156483666E+04  0.22895614863E+04  0.00000000000E+00 0. -1.
         -4    1    6    6    0  503  0.14181553633E+02 -0.89123355124E+02 -0.22598954167E+03  0.24334206754E+03  0.00000000000E+00 0.  1.
<mgrwt>
<rscale>  0 0.25280083E+04</rscale>
<asrwt>0</asrwt>
<pdfrwt beam="1">  1        2 0.47332717E+00 0.25280083E+04</pdfrwt>
<pdfrwt beam="2">  1       -2 0.79893023E-01 0.25280083E+04</pdfrwt>
<totfact> 0.19218123E+00</totfact>
</mgrwt>
</event>
<event>
12    2  0.3561489E-008  0.1243949E+04  0.7818608E-02  0.9075234E-01
          1   -1    0    0  501    0  0.00000000000E+00  0.00000000000E+00  0.27598832854E+04  0.27598832854E+04  0.00000000000E+00 0. -1.
         -1   -1    0    0    0  501 -0.00000000000E+00 -0.00000000000E+00 -0.14016986836E+03  0.14016986836E+03  0.00000000000E+00 0.  1.
         23    2    1    2    0    0 -0.26384095347E+03  0.36251164079E+02  0.86527971829E+03  0.91000071625E+03  0.92011505092E+02 0.  0.
        254    2    1    2    0    0  0.26384095347E+03 -0.36251164079E+02  0.17544336988E+04  0.19900524376E+04  0.90074685964E+03 0.  0.
         23    2    4    4    0    0  0.22613925674E+03  0.13221739265E+03  0.17728903871E+04  0.17944162029E+04  0.90381315924E+02 0.  0.
         23    2    4    4    0    0  0.37701696732E+02 -0.16846855673E+03 -0.18456688287E+02  0.19563623466E+03  0.90165483556E+02 0.  0.
          2    1    3    3  502    0 -0.45553970330E+01 -0.71180291054E+01  0.37333964476E+01  0.92388435157E+01  0.00000000000E+00 0. -1.
         -2    1    3    3    0  502 -0.25928555644E+03  0.43369193184E+02  0.86154632184E+03  0.90076187273E+03  0.00000000000E+00 0.  1.
         11    1    5    5    0    0  0.15201074478E+03  0.80141898932E+02  0.14080239103E+04  0.14184714739E+04  0.00000000000E+00 0. -1.
        -11    1    5    5    0    0  0.74128511958E+02  0.52075493722E+02  0.36486647681E+03  0.37594472895E+03  0.00000000000E+00 0.  1.
          4    1    6    6  503    0  0.66466957804E+02 -0.10260222323E+03 -0.39534781451E+01  0.12231395130E+03  0.00000000000E+00 0. -1.
         -4    1    6    6    0  503 -0.28765261072E+02 -0.65866333498E+02 -0.14503210142E+02  0.73322283362E+02  0.00000000000E+00 0.  1.
<mgrwt>
<rscale>  0 0.12439493E+04</rscale>
<asrwt>0</asrwt>
<pdfrwt beam="1">  1        1 0.42459739E+00 0.12439493E+04</pdfrwt>
<pdfrwt beam="2">  1       -1 0.21564597E-01 0.12439493E+04</pdfrwt>
<totfact> 0.15956746E+01</totfact>
</mgrwt>
</event>
<event>
12    2  0.3561489E-008  0.4056602E+04  0.7818608E-02  0.7993224E-01
         -2   -1    0    0    0  501 -0.00000000000E+00  0.00000000000E+00  0.14548846755E+04  0.14548846755E+04  0.00000000000E+00 0. -1.
          2   -1    0    0  501    0  0.00000000000E+00 -0.00000000000E+00 -0.28277190834E+04  0.28277190834E+04  0.00000000000E+00 0.  1.
         23    2    1    2    0    0  0.12682045734E+04  0.14109897910E+03 -0.21785132628E+04  0.25263595044E+04  0.91217036898E+02 0.  0.
        254    2    1    2    0    0 -0.12682045734E+04 -0.14109897910E+03  0.80567885488E+03  0.17562442545E+04  0.89834497972E+03 0.  0.
         23    2    4    4    0    0 -0.22601220600E+01  0.22012621044E+03  0.86573881133E+02  0.25337021497E+03  0.90778699388E+02 0.  0.
         23    2    4    4    0    0 -0.12659444513E+04 -0.36122518955E+03  0.71910497375E+03  0.15028740396E+04  0.91757420377E+02 0.  0.
          1    1    3    3  502    0  0.44999038051E+03  0.70350872388E+01 -0.75027715906E+03  0.87490379495E+03  0.00000000000E+00 0. -1.
         -1    1    3    3    0  502  0.81821419285E+03  0.13406389186E+03 -0.14282361037E+04  0.16514557095E+04  0.00000000000E+00 0.  1.
         11    1    5    5    0    0 -0.36354511647E+02  0.13751970648E+03  0.81323951551E+02  0.16385025262E+03  0.00000000000E+00 0.  1.
        -11    1    5    5    0    0  0.34094389587E+02  0.82606503962E+02  0.52499295822E+01  0.89519962347E+02  0.00000000000E+00 0. -1.
          2    1    6    6  503    0 -0.12436270437E+04 -0.36691499574E+03  0.70732802795E+03  0.14770063565E+04  0.00000000000E+00 0. -1.
         -2    1    6    6    0  503 -0.22317407625E+02  0.56898061967E+01  0.11776945798E+02  0.25867683120E+02  0.00000000000E+00 0.  1.
<mgrwt>
<rscale>  0 0.40566021E+04</rscale>
<asrwt>0</asrwt>
<pdfrwt beam="1">  1        2 0.43503371E+00 0.40566021E+04</pdfrwt>
<pdfrwt beam="2">  1       -2 0.22382841E+00 0.40566021E+04</pdfrwt>
<totfact> 0.16324820E-01</totfact>
</mgrwt>
</event>
<event>
12    2  0.3561489E-008  0.2317825E+04  0.7818608E-02  0.8470926E-01
          2   -1    0    0  501    0  0.00000000000E+00  0.00000000000E+00  0.18488062969E+04  0.18488062969E+04  0.00000000000E+00 0.  1.
         -2   -1    0    0    0  501 -0.00000000000E+00 -0.00000000000E+00 -0.72645696787E+03  0.72645696787E+03  0.00000000000E+00 0. -1.
         23    2    1    2    0    0 -0.75758511591E+02  0.61404195303E+03  0.13154358001E+04  0.14565426519E+04  0.91423632445E+02 0.  0.
        254    2    1    2    0    0  0.75758511591E+02 -0.61404195303E+03 -0.19308647105E+03  0.11187206128E+04  0.91184787775E+03 0.  0.
         23    2    4    4    0    0  0.11988171819E+03 -0.80298835923E+03 -0.31031891074E+03  0.87406301698E+03  0.92338506998E+02 0.  0.
         23    2    4    4    0    0 -0.44123206601E+02  0.18894640620E+03  0.11723243969E+03  0.24465759587E+03  0.92012458522E+02 0.  0.
          1    1    3    3  502    0 -0.29843605644E+02  0.49587513628E+02  0.15055333760E+03  0.16129435752E+03  0.00000000000E+00 0. -1.
         -1    1    3    3    0  502 -0.45914905946E+02  0.56445443940E+03  0.11648824625E+04  0.12952482944E+04  0.00000000000E+00 0.  1.
         11    1    5    5    0    0  0.13311759879E+02 -0.28316070240E+03 -0.14411694694E+03  0.31800452942E+03  0.00000000000E+00 0.  1.
        -11    1    5    5    0    0  0.10656995831E+03 -0.51982765683E+03 -0.16620196380E+03  0.55605848757E+03  0.00000000000E+00 0. -1.
          1    1    6    6  503    0  0.18240957662E+01  0.16020590005E+03  0.81620540168E+02  0.17980870477E+03  0.00000000000E+00 0. -1.
         -1    1    6    6    0  503 -0.45947302367E+02  0.28740506157E+02  0.35611899517E+02  0.64848891094E+02  0.00000000000E+00 0.  1.
<mgrwt>
<rscale>  0 0.23178250E+04</rscale>
<asrwt>0</asrwt>
<pdfrwt beam="1">  1        2 0.28443174E+00 0.23178250E+04</pdfrwt>
<pdfrwt beam="2">  1       -2 0.11176261E+00 0.23178250E+04</pdfrwt>
<totfact> 0.46395963E+00</totfact>
</mgrwt>
</event>
<event>
12    2  0.3561489E-008  0.1415882E+04  0.7818608E-02  0.8942402E-01
          2   -1    0    0  501    0  0.00000000000E+00  0.00000000000E+00  0.34348680677E+04  0.34348680677E+04  0.00000000000E+00 0. -1.
         -2   -1    0    0    0  501 -0.00000000000E+00 -0.00000000000E+00 -0.14590974905E+03  0.14590974905E+03  0.00000000000E+00 0.  1.
         23    2    1    2    0    0  0.20390514024E+03  0.11641337722E+01  0.78666509420E+02  0.23726282755E+03  0.92339418512E+02 0.  0.
        254    2    1    2    0    0 -0.20390514024E+03 -0.11641337722E+01  0.32102918093E+04  0.33435149892E+04  0.91188832711E+03 0.  0.
         23    2    4    4    0    0  0.25021417267E+03  0.27791683196E+03  0.15622009278E+04  0.16090250244E+04  0.92977913905E+02 0.  0.
         23    2    4    4    0    0 -0.45411931291E+03 -0.27908096573E+03  0.16480908814E+04  0.17344899648E+04  0.90229423656E+02 0.  0.
          4    1    3    3  502    0  0.33936600124E+02 -0.16006236457E+02  0.52358936679E+02  0.64415453764E+02  0.00000000000E+00 0. -1.
         -4    1    3    3    0  502  0.16996854011E+03  0.17170370229E+02  0.26307572742E+02  0.17284737379E+03  0.00000000000E+00 0.  1.
         11    1    5    5    0    0  0.79881423926E+02  0.38783656231E+02  0.45331897890E+03  0.46193431406E+03  0.00000000000E+00 0.  1.
        -11    1    5    5    0    0  0.17033274875E+03  0.23913317572E+03  0.11088819490E+04  0.11470907103E+04  0.00000000000E+00 0. -1.
          1    1    6    6  503    0 -0.35113782284E+03 -0.20860675289E+03  0.13721261090E+04  0.14316230673E+04  0.00000000000E+00 0. -1.
         -1    1    6    6    0  503 -0.10298149007E+03 -0.70474212840E+02  0.27596477245E+03  0.30286689751E+03  0.00000000000E+00 0.  1.
<mgrwt>
<rscale>  0 0.14158824E+04</rscale>
<asrwt>0</asrwt>
<pdfrwt beam="1">  1        2 0.52844118E+00 0.14158824E+04</pdfrwt>
<pdfrwt beam="2">  1       -2 0.22447656E-01 0.14158824E+04</pdfrwt>
<totfact> 0.15517887E+01</totfact>
</mgrwt>
</event>
<event>
12    2  0.3561489E-008  0.1135007E+04  0.7818608E-02  0.9171728E-01
         -2   -1    0    0    0  501 -0.00000000000E+00  0.00000000000E+00  0.27521217557E+03  0.27521217557E+03  0.00000000000E+00 0.  1.
          2   -1    0    0  501    0  0.00000000000E+00 -0.00000000000E+00 -0.11702242105E+04  0.11702242105E+04  0.00000000000E+00 0. -1.
         23    2    1    2    0    0  0.13066270659E+02  0.18293953380E+03 -0.71609113204E+02  0.21747514991E+03  0.92357865268E+02 0.  0.
        254    2    1    2    0    0 -0.13066270659E+02 -0.18293953380E+03 -0.82340292174E+03  0.12279612362E+04  0.89233336012E+03 0.  0.
         23    2    4    4    0    0 -0.16925516937E+02 -0.26584982794E+03 -0.98579473295E+03  0.10252038947E+04  0.91044857887E+02 0.  0.
         23    2    4    4    0    0  0.38592462781E+01  0.82910294136E+02  0.16239181121E+03  0.20275734144E+03  0.88602643893E+02 0.  0.
          3    1    3    3  502    0 -0.16918297034E+02  0.86827269690E+02 -0.76106834656E+02  0.11669384653E+03  0.00000000000E+00 0. -1.
         -3    1    3    3    0  502  0.29984567692E+02  0.96112264112E+02  0.44977214521E+01  0.10078130338E+03  0.00000000000E+00 0.  1.
         11    1    5    5    0    0 -0.50528550860E+02 -0.20464110087E+03 -0.70337746647E+03  0.73428262607E+03  0.00000000000E+00 0.  1.
        -11    1    5    5    0    0  0.33603033923E+02 -0.61208727070E+02 -0.28241726648E+03  0.29092126867E+03  0.00000000000E+00 0. -1.
          1    1    6    6  503    0 -0.33733430931E+02  0.22053846143E+02  0.23828993326E+02  0.46820267140E+02  0.00000000000E+00 0. -1.
         -1    1    6    6    0  503  0.37592677209E+02  0.60856447992E+02  0.13856281788E+03  0.15593707430E+03  0.00000000000E+00 0.  1.
<mgrwt>
<rscale>  0 0.11350065E+04</rscale>
<asrwt>0</asrwt>
<pdfrwt beam="1">  1        2 0.18003449E+00 0.11350065E+04</pdfrwt>
<pdfrwt beam="2">  1       -2 0.42340336E-01 0.11350065E+04</pdfrwt>
<totfact> 0.10333346E+02</totfact>
</mgrwt>
</event>
<event>
12    2  0.3561489E-008  0.2163584E+04  0.7818608E-02  0.8533740E-01
         -2   -1    0    0    0  501 -0.00000000000E+00  0.00000000000E+00  0.76054521178E+03  0.76054521178E+03  0.00000000000E+00 0.  1.
          2   -1    0    0  501    0  0.00000000000E+00 -0.00000000000E+00 -0.15387304334E+04  0.15387304334E+04  0.00000000000E+00 0. -1.
         23    2    1    2    0    0  0.75056859477E+02  0.36601587508E+03 -0.11810541827E+04  0.12419445013E+04  0.89084279059E+02 0.  0.
        254    2    1    2    0    0 -0.75056859477E+02 -0.36601587508E+03  0.40286896109E+03  0.10573311439E+04  0.90335186672E+03 0.  0.
         23    2    4    4    0    0 -0.74994007532E+02  0.58290238395E+01  0.61064879177E+03  0.62183830393E+03  0.90182318958E+02 0.  0.
         23    2    4    4    0    0 -0.62851944372E-01 -0.37184489892E+03 -0.20777983068E+03  0.43549283998E+03  0.90625177685E+02 0.  0.
          2    1    3    3  502    0  0.71734736041E+02  0.34777796790E+03 -0.10244673194E+04  0.10842641172E+04  0.00000000000E+00 0. -1.
         -2    1    3    3    0  502  0.33221234355E+01  0.18237907180E+02 -0.15658686329E+03  0.15768038406E+03  0.00000000000E+00 0.  1.
         11    1    5    5    0    0 -0.81981628559E+02  0.28022910307E+02  0.36730927330E+03  0.37738888851E+03  0.00000000000E+00 0. -1.
        -11    1    5    5    0    0  0.69876210269E+01 -0.22193886467E+02  0.24333951847E+03  0.24444941541E+03  0.00000000000E+00 0.  1.
          4    1    6    6  503    0 -0.11415481551E+02 -0.11305538059E+03 -0.19578972871E+02  0.11530467674E+03  0.00000000000E+00 0. -1.
         -4    1    6    6    0  503  0.11352629607E+02 -0.25878951833E+03 -0.18820085781E+03  0.32018816324E+03  0.00000000000E+00 0.  1.
<mgrwt>
<rscale>  0 0.21635841E+04</rscale>
<asrwt>0</asrwt>
<pdfrwt beam="1">  1        2 0.23672775E+00 0.21635841E+04</pdfrwt>
<pdfrwt beam="2">  1       -2 0.11700696E+00 0.21635841E+04</pdfrwt>
<totfact> 0.62556629E+00</totfact>
</mgrwt>
</event>
<event>
12    2  0.3561489E-008  0.2170117E+04  0.7818608E-02  0.8530970E-01
         -2   -1    0    0    0  501 -0.00000000000E+00  0.00000000000E+00  0.30959829686E+03  0.30959829686E+03  0.00000000000E+00 0.  1.
          2   -1    0    0  501    0  0.00000000000E+00 -0.00000000000E+00 -0.38028365696E+04  0.38028365696E+04  0.00000000000E+00 0. -1.
         23    2    1    2    0    0  0.88470460309E+03 -0.23483420219E+03 -0.13455758942E+04  0.16298820163E+04  0.89953113875E+02 0.  0.
        254    2    1    2    0    0 -0.88470460309E+03  0.23483420219E+03 -0.21476623786E+04  0.24825528502E+04  0.84425447853E+03 0.  0.
         23    2    4    4    0    0  0.26139684852E+02  0.11888174046E+03 -0.13791659314E+02  0.15773369402E+03  0.99365773905E+02 0.  0.
         23    2    4    4    0    0 -0.91084428794E+03  0.11595246173E+03 -0.21338707193E+04  0.23248191562E+04  0.91091010695E+02 0.  0.
          4    1    3    3  502    0  0.46690957507E+03 -0.10096165383E+03 -0.77042848614E+03  0.90650860949E+03  0.00000000000E+00 0. -1.
         -4    1    3    3    0  502  0.41779502802E+03 -0.13387254836E+03 -0.57514740804E+03  0.72337340677E+03  0.00000000000E+00 0.  1.
         11    1    5    5    0    0  0.42559680931E+02  0.94544077966E+02  0.27314903722E+02  0.10721946225E+03  0.00000000000E+00 0. -1.
        -11    1    5    5    0    0 -0.16419996079E+02  0.24337662493E+02 -0.41106563036E+02  0.50514231772E+02  0.00000000000E+00 0.  1.
          1    1    6    6  503    0 -0.64257703389E+03  0.54317988448E+02 -0.15726799718E+04  0.16997582129E+04  0.00000000000E+00 0. -1.
         -1    1    6    6    0  503 -0.26826725405E+03  0.61634473281E+02 -0.56119074743E+03  0.62506094334E+03  0.00000000000E+00 0.  1.
<mgrwt>
<rscale>  0 0.21701168E+04</rscale>
<asrwt>0</asrwt>
<pdfrwt beam="1">  1        2 0.58505180E+00 0.21701168E+04</pdfrwt>
<pdfrwt beam="2">  1       -2 0.47630506E-01 0.21701168E+04</pdfrwt>
<totfact> 0.18815260E+00</totfact>
</mgrwt>
</event>
<event>
12    2  0.3561489E-008  0.1162028E+04  0.7818608E-02  0.9146758E-01
         -2   -1    0    0    0  501 -0.00000000000E+00  0.00000000000E+00  0.15846702114E+03  0.15846702114E+03  0.00000000000E+00 0.  1.
          2   -1    0    0  501    0  0.00000000000E+00 -0.00000000000E+00 -0.21302679995E+04  0.21302679995E+04  0.00000000000E+00 0. -1.
         23    2    1    2    0    0 -0.63117836837E+02  0.17980742113E+03 -0.21707971493E+03  0.30222376287E+03  0.88887739238E+02 0.  0.
        254    2    1    2    0    0  0.63117836837E+02 -0.17980742113E+03 -0.17547212634E+04  0.19865112578E+04  0.91151834589E+03 0.  0.
         23    2    4    4    0    0 -0.10546116592E+03 -0.31413718490E+03 -0.17145675330E+04  0.17485583163E+04  0.88938921960E+02 0.  0.
         23    2    4    4    0    0  0.16857900275E+03  0.13432976377E+03 -0.40153730451E+02  0.23795294149E+03  0.92444116577E+02 0.  0.
          3    1    3    3  502    0 -0.24796388541E+02  0.10426881341E+03 -0.18058166934E+03  0.20999187040E+03  0.00000000000E+00 0. -1.
         -3    1    3    3    0  502 -0.38321448295E+02  0.75538607717E+02 -0.36498045596E+02  0.92231892465E+02  0.00000000000E+00 0.  1.
         11    1    5    5    0    0 -0.55382055503E+02 -0.26977880995E+03 -0.13299584086E+04  0.13581741961E+04  0.00000000000E+00 0. -1.
        -11    1    5    5    0    0 -0.50079110414E+02 -0.44358374956E+02 -0.38460912439E+03  0.39038412018E+03  0.00000000000E+00 0.  1.
          1    1    6    6  503    0  0.83916693823E+02  0.10779183085E+03  0.83050574917E+01  0.13685782506E+03  0.00000000000E+00 0. -1.
         -1    1    6    6    0  503  0.84662308930E+02  0.26537932925E+02 -0.48458787942E+02  0.10109511643E+03  0.00000000000E+00 0.  1.
<mgrwt>
<rscale>  0 0.11620279E+04</rscale>
<asrwt>0</asrwt>
<pdfrwt beam="1">  1        2 0.32773351E+00 0.11620279E+04</pdfrwt>
<pdfrwt beam="2">  1       -2 0.24379544E-01 0.11620279E+04</pdfrwt>
<totfact> 0.84157781E+01</totfact>
</mgrwt>
</event>
<event>
12    2  0.3561489E-008  0.1517187E+04  0.7818608E-02  0.8873104E-01
          2   -1    0    0  501    0  0.00000000000E+00  0.00000000000E+00  0.16537082206E+04  0.16537082206E+04  0.00000000000E+00 0. -1.
         -2   -1    0    0    0  501 -0.00000000000E+00 -0.00000000000E+00 -0.34798389107E+03  0.34798389107E+03  0.00000000000E+00 0.  1.
         23    2    1    2    0    0  0.27465152654E+03  0.26334240947E+03  0.43409257890E+02  0.39333867766E+03  0.89712128605E+02 0.  0.
        254    2    1    2    0    0 -0.27465152654E+03 -0.26334240947E+03  0.12623150717E+04  0.16083534340E+04  0.92118333842E+03 0.  0.
         23    2    4    4    0    0 -0.12102986534E+03 -0.50263235667E+03  0.11907993495E+04  0.13014029500E+04  0.91427748678E+02 0.  0.
         23    2    4    4    0    0 -0.15362166120E+03  0.23928994720E+03  0.71515722199E+02  0.30695048407E+03  0.90800922517E+02 0.  0.
          3    1    3    3  502    0  0.17704405650E+03  0.16716154017E+03  0.70842812306E+02  0.25358683426E+03  0.00000000000E+00 0. -1.
         -3    1    3    3    0  502  0.97607470035E+02  0.96180869296E+02 -0.27433554417E+02  0.13975184340E+03  0.00000000000E+00 0.  1.
         11    1    5    5    0    0 -0.11439990991E+03 -0.38890236570E+03  0.84266431264E+03  0.93510188388E+03  0.00000000000E+00 0. -1.
        -11    1    5    5    0    0 -0.66299554265E+01 -0.11372999097E+03  0.34813503683E+03  0.36630106609E+03  0.00000000000E+00 0.  1.
          1    1    6    6  503    0 -0.16162511506E+03  0.23461188181E+03  0.58286880746E+02  0.29079679051E+03  0.00000000000E+00 0. -1.
         -1    1    6    6    0  503  0.80034538574E+01  0.46780653851E+01  0.13228841454E+02  0.16153693559E+02  0.00000000000E+00 0.  1.
<mgrwt>
<rscale>  0 0.15171866E+04</rscale>
<asrwt>0</asrwt>
<pdfrwt beam="1">  1        2 0.25441664E+00 0.15171866E+04</pdfrwt>
<pdfrwt beam="2">  1       -2 0.53535984E-01 0.15171866E+04</pdfrwt>
<totfact> 0.33015193E+01</totfact>
</mgrwt>
</event>
<event>
12    2  0.3561489E-008  0.1835775E+04  0.7818608E-02  0.8687503E-01
         -1   -1    0    0    0  501 -0.00000000000E+00  0.00000000000E+00  0.38711158729E+03  0.38711158729E+03  0.00000000000E+00 0.  1.
          1   -1    0    0  501    0  0.00000000000E+00 -0.00000000000E+00 -0.21764207738E+04  0.21764207738E+04  0.00000000000E+00 0. -1.
         23    2    1    2    0    0  0.48011982739E+03 -0.72586995474E+02  0.11263255989E+02  0.49436987012E+03  0.92145466406E+02 0.  0.
        254    2    1    2    0    0 -0.48011982739E+03  0.72586995474E+02 -0.18005724425E+04  0.20691624910E+04  0.89643090802E+03 0.  0.
         23    2    4    4    0    0 -0.61959949298E+03  0.32999341283E+03 -0.11631892854E+04  0.13616677428E+04  0.91271813791E+02 0.  0.
         23    2    4    4    0    0  0.13947966559E+03 -0.25740641736E+03 -0.63738315717E+03  0.70749474821E+03  0.92622291575E+02 0.  0.
          3    1    3    3  502    0  0.22590943549E+03 -0.51424361175E+02  0.48115562741E+02  0.23663187728E+03  0.00000000000E+00 0. -1.
         -3    1    3    3    0  502  0.25421039190E+03 -0.21162634299E+02 -0.36852306752E+02  0.25773799284E+03  0.00000000000E+00 0.  1.
         11    1    5    5    0    0 -0.27024509959E+03  0.17743158980E+03 -0.46775981302E+03  0.56860674072E+03  0.00000000000E+00 0.  1.
        -11    1    5    5    0    0 -0.34935439339E+03  0.15256182303E+03 -0.69542947233E+03  0.79306100208E+03  0.00000000000E+00 0. -1.
          1    1    6    6  503    0  0.94764791578E+02 -0.12124335964E+03 -0.24040019876E+03  0.28543400909E+03  0.00000000000E+00 0. -1.
         -1    1    6    6    0  503  0.44714874013E+02 -0.13616305772E+03 -0.39698295840E+03  0.42206073912E+03  0.00000000000E+00 0.  1.
<mgrwt>
<rscale>  0 0.18357753E+04</rscale>
<asrwt>0</asrwt>
<pdfrwt beam="1">  1        1 0.33483396E+00 0.18357753E+04</pdfrwt>
<pdfrwt beam="2">  1       -1 0.59555629E-01 0.18357753E+04</pdfrwt>
<totfact> 0.60805277E+00</totfact>
</mgrwt>
</event>
<event>
12    2  0.3561489E-008  0.2146097E+04  0.7818608E-02  0.8541205E-01
          2   -1    0    0  501    0  0.00000000000E+00  0.00000000000E+00  0.10404224460E+04  0.10404224460E+04  0.00000000000E+00 0. -1.
         -2   -1    0    0    0  501 -0.00000000000E+00 -0.00000000000E+00 -0.11066979527E+04  0.11066979527E+04  0.00000000000E+00 0.  1.
         23    2    1    2    0    0 -0.57559520775E+03 -0.37717676498E+02 -0.69448699384E+03  0.90733783170E+03  0.90649268717E+02 0.  0.
        254    2    1    2    0    0  0.57559520775E+03  0.37717676498E+02  0.62821148710E+03  0.12397825670E+04  0.89982146821E+03 0.  0.
         23    2    4    4    0    0  0.17081930400E+03  0.25142264512E+03 -0.13433506240E+03  0.34477314382E+03  0.91815198148E+02 0.  0.
         23    2    4    4    0    0  0.40477590375E+03 -0.21370496863E+03  0.76254654950E+03  0.89500942319E+03  0.10025607998E+03 0.  0.
          1    1    3    3  502    0 -0.39355278415E+02 -0.51152598517E+01 -0.18266258069E+02  0.43688213586E+02  0.00000000000E+00 0. -1.
         -1    1    3    3    0  502 -0.53623992933E+03 -0.32602416646E+02 -0.67622073577E+03  0.86364961811E+03  0.00000000000E+00 0.  1.
         11    1    5    5    0    0  0.84105092395E+02  0.18971754982E+03 -0.11276006142E+03  0.23618053842E+03  0.00000000000E+00 0.  1.
        -11    1    5    5    0    0  0.86714211604E+02  0.61705095299E+02 -0.21575000981E+02  0.10859260540E+03  0.00000000000E+00 0. -1.
          3    1    6    6  503    0  0.37971615968E+02 -0.78538271670E+01  0.12776186679E+03  0.13351636914E+03  0.00000000000E+00 0. -1.
         -3    1    6    6    0  503  0.36680428778E+03 -0.20585114146E+03  0.63478468271E+03  0.76149305405E+03  0.00000000000E+00 0.  1.
<mgrwt>
<rscale>  0 0.21460973E+04</rscale>
<asrwt>0</asrwt>
<pdfrwt beam="1">  1        2 0.16006499E+00 0.21460973E+04</pdfrwt>
<pdfrwt beam="2">  1       -2 0.17026122E+00 0.21460973E+04</pdfrwt>
<totfact> 0.46241729E+00</totfact>
</mgrwt>
</event>
<event>
12    2  0.3561489E-008  0.2247116E+04  0.7818608E-02  0.8499070E-01
         -1   -1    0    0    0  501 -0.00000000000E+00  0.00000000000E+00  0.97600094987E+03  0.97600094987E+03  0.00000000000E+00 0.  1.
          1   -1    0    0  501    0  0.00000000000E+00 -0.00000000000E+00 -0.12934230365E+04  0.12934230365E+04  0.00000000000E+00 0. -1.
         23    2    1    2    0    0 -0.44606533789E+03 -0.15439603791E+02 -0.97076861266E+03  0.10722584658E+04  0.90187865543E+02 0.  0.
        254    2    1    2    0    0  0.44606533789E+03  0.15439603791E+02  0.65334652598E+03  0.11971655206E+04  0.89840466034E+03 0.  0.
         23    2    4    4    0    0  0.59985646217E+03  0.23650972674E+03  0.23659970532E+03  0.69296086598E+03  0.91927771515E+02 0.  0.
         23    2    4    4    0    0 -0.15379112428E+03 -0.22107012295E+03  0.41674682067E+03  0.50420465464E+03  0.89558428195E+02 0.  0.
          4    1    3    3  502    0 -0.44356483069E+03 -0.12324740975E+02 -0.92092044683E+03  0.10222505210E+04  0.00000000000E+00 0. -1.
         -4    1    3    3    0  502 -0.25005072027E+01 -0.31148628157E+01 -0.49848165833E+02  0.50007944805E+02  0.00000000000E+00 0.  1.
         11    1    5    5    0    0  0.56042359095E+03  0.19490980873E+03  0.22434474092E+03  0.63434611815E+03  0.00000000000E+00 0. -1.
        -11    1    5    5    0    0  0.39432871217E+02  0.41599918007E+02  0.12254964398E+02  0.58614747829E+02  0.00000000000E+00 0.  1.
          3    1    6    6  503    0 -0.11697269384E+03 -0.15162395686E+03  0.35825989451E+03  0.40622972246E+03  0.00000000000E+00 0. -1.
         -3    1    6    6    0  503 -0.36818430443E+02 -0.69446166091E+02  0.58486926159E+02  0.97974932184E+02  0.00000000000E+00 0.  1.
<mgrwt>
<rscale>  0 0.22471156E+04</rscale>
<asrwt>0</asrwt>
<pdfrwt beam="1">  1        1 0.19898816E+00 0.22471156E+04</pdfrwt>
<pdfrwt beam="2">  1       -1 0.15015399E+00 0.22471156E+04</pdfrwt>
<totfact> 0.28891596E+00</totfact>
</mgrwt>
</event>
<event>
12    2  0.3561489E-008  0.2269020E+04  0.7818608E-02  0.8490237E-01
         -2   -1    0    0    0  501 -0.00000000000E+00  0.00000000000E+00  0.63073701490E+03  0.63073701490E+03  0.00000000000E+00 0.  1.
          2   -1    0    0  501    0  0.00000000000E+00 -0.00000000000E+00 -0.20406494774E+04  0.20406494774E+04  0.00000000000E+00 0. -1.
         23    2    1    2    0    0 -0.35003536788E+03  0.47550328278E+03 -0.14708088156E+04  0.15873450626E+04  0.88077494944E+02 0.  0.
        254    2    1    2    0    0  0.35003536788E+03 -0.47550328278E+03  0.60896353083E+02  0.10840414297E+04  0.90708837759E+03 0.  0.
         23    2    4    4    0    0  0.64733918511E+03 -0.30629417440E+03 -0.14959866050E+02  0.72198843707E+03  0.90439835351E+02 0.  0.
         23    2    4    4    0    0 -0.29730381723E+03 -0.16920910839E+03  0.75856219134E+02  0.36205299262E+03  0.91142313916E+02 0.  0.
          2    1    3    3  502    0 -0.31407930425E+03  0.46012277141E+03 -0.13927667927E+04  0.15000527034E+04  0.00000000000E+00 0. -1.
         -2    1    3    3    0  502 -0.35956063632E+02  0.15380511372E+02 -0.78042022841E+02  0.87292359179E+02  0.00000000000E+00 0.  1.
         11    1    5    5    0    0  0.51425895152E+03 -0.20528668806E+03  0.48996050654E+01  0.55374082353E+03  0.00000000000E+00 0. -1.
        -11    1    5    5    0    0  0.13308023359E+03 -0.10100748633E+03 -0.19859471116E+02  0.16824761353E+03  0.00000000000E+00 0.  1.
          1    1    6    6  503    0 -0.20321554928E+03 -0.15896244836E+03  0.69474918174E+02  0.26719353231E+03  0.00000000000E+00 0. -1.
         -1    1    6    6    0  503 -0.94088267951E+02 -0.10246660030E+02  0.63813009595E+01  0.94859460307E+02  0.00000000000E+00 0.  1.
<mgrwt>
<rscale>  0 0.22690202E+04</rscale>
<asrwt>0</asrwt>
<pdfrwt beam="1">  1        2 0.31394607E+00 0.22690202E+04</pdfrwt>
<pdfrwt beam="2">  1       -2 0.97036464E-01 0.22690202E+04</pdfrwt>
<totfact> 0.51110480E+00</totfact>
</mgrwt>
</event>
<event>
12    2  0.3561489E-008  0.1664810E+04  0.7818608E-02  0.8781693E-01
         -1   -1    0    0    0  501 -0.00000000000E+00  0.00000000000E+00  0.24745268905E+03  0.24745268905E+03  0.00000000000E+00 0.  1.
          1   -1    0    0  501    0  0.00000000000E+00 -0.00000000000E+00 -0.28001229405E+04  0.28001229405E+04  0.00000000000E+00 0. -1.
         23    2    1    2    0    0 -0.33145392036E+03 -0.34354058726E+03 -0.14562270542E+04  0.15350326297E+04  0.88578239267E+02 0.  0.
        254    2    1    2    0    0  0.33145392036E+03  0.34354058726E+03 -0.10964431973E+04  0.15125429999E+04  0.92613001526E+03 0.  0.
         23    2    4    4    0    0  0.18803598296E+03 -0.29788733249E+03 -0.27248753991E+03  0.45463031787E+03  0.91350275170E+02 0.  0.
         23    2    4    4    0    0  0.14341793741E+03  0.64142791975E+03 -0.82395565739E+03  0.10579126820E+04  0.90982616004E+02 0.  0.
          2    1    3    3  502    0 -0.14999299741E+03 -0.17678276593E+03 -0.83843996853E+03  0.86990322820E+03  0.00000000000E+00 0. -1.
         -2    1    3    3    0  502 -0.18146092295E+03 -0.16675782133E+03 -0.61778708566E+03  0.66512940150E+03  0.00000000000E+00 0.  1.
         11    1    5    5    0    0  0.11596885749E+03 -0.25343142935E+03 -0.19828737503E+03  0.34204407375E+03  0.00000000000E+00 0. -1.
        -11    1    5    5    0    0  0.72067125462E+02 -0.44455903142E+02 -0.74200164888E+02  0.11258624412E+03  0.00000000000E+00 0.  1.
          1    1    6    6  503    0  0.96088867489E+02  0.37436031932E+03 -0.55169520928E+03  0.67360694999E+03  0.00000000000E+00 0. -1.
         -1    1    6    6    0  503  0.47329069918E+02  0.26706760043E+03 -0.27226044811E+03  0.38430573202E+03  0.00000000000E+00 0.  1.
<mgrwt>
<rscale>  0 0.16648098E+04</rscale>
<asrwt>0</asrwt>
<pdfrwt beam="1">  1        1 0.43078813E+00 0.16648098E+04</pdfrwt>
<pdfrwt beam="2">  1       -1 0.38069646E-01 0.16648098E+04</pdfrwt>
<totfact> 0.53179597E+00</totfact>
</mgrwt>
</event>
<event>
12    2  0.3561489E-008  0.1040677E+04  0.7818608E-02  0.9265023E-01
          1   -1    0    0  501    0  0.00000000000E+00  0.00000000000E+00  0.21578655497E+03  0.21578655497E+03  0.00000000000E+00 0. -1.
         -1   -1    0    0    0  501 -0.00000000000E+00 -0.00000000000E+00 -0.12547209165E+04  0.12547209165E+04  0.00000000000E+00 0.  1.
         23    2    1    2    0    0 -0.90451199409E+02 -0.54046869167E+02 -0.22247706725E+03  0.26363949251E+03  0.94378244422E+02 0.  0.
        254    2    1    2    0    0  0.90451199409E+02  0.54046869167E+02 -0.81645729429E+03  0.12068679790E+04  0.88251080545E+03 0.  0.
         23    2    4    4    0    0 -0.32727571869E+03 -0.12466836377E+03 -0.14095746977E+03  0.38806179862E+03  0.89840716262E+02 0.  0.
         23    2    4    4    0    0  0.41772691810E+03  0.17871523294E+03 -0.67549982453E+03  0.81880618035E+03  0.87798835166E+02 0.  0.
          1    1    3    3  502    0 -0.27466709963E+02 -0.76140260465E+01 -0.75276084073E+00  0.28512456887E+02  0.00000000000E+00 0. -1.
         -1    1    3    3    0  502 -0.62984489446E+02 -0.46432843121E+02 -0.22172430641E+03  0.23512703563E+03  0.00000000000E+00 0.  1.
         11    1    5    5    0    0 -0.33285553524E+03 -0.12075692725E+03 -0.14130752565E+03  0.38123858622E+03  0.00000000000E+00 0. -1.
        -11    1    5    5    0    0  0.55798165480E+01 -0.39114365179E+01  0.35005588857E+00  0.68232124009E+01  0.00000000000E+00 0.  1.
          4    1    6    6  503    0  0.34388210813E+03  0.10786028203E+03 -0.52888663584E+03  0.64000767050E+03  0.00000000000E+00 0.  1.
         -4    1    6    6    0  503  0.73844809969E+02  0.70854950903E+02 -0.14661318869E+03  0.17879850985E+03  0.00000000000E+00 0. -1.
<mgrwt>
<rscale>  0 0.10406765E+04</rscale>
<asrwt>0</asrwt>
<pdfrwt beam="1">  1        1 0.33197931E-01 0.10406765E+04</pdfrwt>
<pdfrwt beam="2">  1       -1 0.19303399E+00 0.10406765E+04</pdfrwt>
<totfact> 0.22698260E+01</totfact>
</mgrwt>
</event>
<event>
12    2  0.3561489E-008  0.2167387E+04  0.7818608E-02  0.8532126E-01
         -1   -1    0    0    0  501 -0.00000000000E+00  0.00000000000E+00  0.74845537096E+03  0.74845537096E+03  0.00000000000E+00 0.  1.
          1   -1    0    0  501    0  0.00000000000E+00 -0.00000000000E+00 -0.15690865239E+04  0.15690865239E+04  0.00000000000E+00 0. -1.
         23    2    1    2    0    0 -0.22200548869E+03  0.83449405351E+03 -0.10517553491E+03  0.87455554585E+03  0.90104091382E+02 0.  0.
        254    2    1    2    0    0  0.22200548869E+03 -0.83449405351E+03 -0.71545561799E+03  0.14429863490E+04  0.90811128153E+03 0.  0.
         23    2    4    4    0    0  0.22680422235E+03 -0.82446807520E+03 -0.15352457058E+03  0.87364132662E+03  0.92149940385E+02 0.  0.
         23    2    4    4    0    0 -0.47987336625E+01 -0.10025978307E+02 -0.56193104742E+03  0.56934502234E+03  0.90904919175E+02 0.  0.
          3    1    3    3  502    0  0.10890854599E+01  0.59481874394E+02 -0.23432712635E+02  0.63940374647E+02  0.00000000000E+00 0. -1.
         -3    1    3    3    0  502 -0.22309457414E+03  0.77501217912E+03 -0.81742822273E+02  0.81061517120E+03  0.00000000000E+00 0.  1.
         11    1    5    5    0    0  0.14236667434E+03 -0.65749804772E+03 -0.11221784484E+03  0.68202990948E+03  0.00000000000E+00 0.  1.
        -11    1    5    5    0    0  0.84437548005E+02 -0.16697002748E+03 -0.41306725736E+02  0.19161141715E+03  0.00000000000E+00 0. -1.
          3    1    6    6  503    0 -0.25626096545E+02 -0.43593283586E+02 -0.36546469878E+03  0.36894649646E+03  0.00000000000E+00 0. -1.
         -3    1    6    6    0  503  0.20827362883E+02  0.33567305279E+02 -0.19646634864E+03  0.20039852589E+03  0.00000000000E+00 0.  1.
<mgrwt>
<rscale>  0 0.21673867E+04</rscale>
<asrwt>0</asrwt>
<pdfrwt beam="1">  1        1 0.24139793E+00 0.21673867E+04</pdfrwt>
<pdfrwt beam="2">  1       -1 0.11514698E+00 0.21673867E+04</pdfrwt>
<totfact> 0.36664360E+00</totfact>
</mgrwt>
</event>
<event>
12    2  0.3561489E-008  0.1234246E+04  0.7818608E-02  0.9083398E-01
          1   -1    0    0  501    0  0.00000000000E+00  0.00000000000E+00  0.56114324056E+03  0.56114324056E+03  0.00000000000E+00 0. -1.
         -1   -1    0    0    0  501 -0.00000000000E+00 -0.00000000000E+00 -0.67868731394E+03  0.67868731394E+03  0.00000000000E+00 0.  1.
         23    2    1    2    0    0 -0.19268112545E+03  0.63492540300E+02 -0.23431265360E+03  0.32321538716E+03  0.91697590372E+02 0.  0.
        254    2    1    2    0    0  0.19268112545E+03 -0.63492540300E+02  0.11676858023E+03  0.91661516734E+03  0.88622296567E+03 0.  0.
         23    2    4    4    0    0  0.21996321287E+03 -0.25243829317E+03 -0.29481257987E+03  0.45325076812E+03  0.80080551222E+02 0.  0.
         23    2    4    4    0    0 -0.27282087419E+02  0.18894575287E+03  0.41158116010E+03  0.46336439921E+03  0.94141942248E+02 0.  0.
          1    1    3    3  502    0 -0.38771343795E+02 -0.12488701792E+02 -0.90661985560E+02  0.99392053997E+02  0.00000000000E+00 0. -1.
         -1    1    3    3    0  502 -0.15390978165E+03  0.75981242092E+02 -0.14365066804E+03  0.22382333316E+03  0.00000000000E+00 0.  1.
         11    1    5    5    0    0 -0.69082558547E+01 -0.54823792906E+01 -0.58800710580E+01  0.10599797983E+02  0.00000000000E+00 0.  1.
        -11    1    5    5    0    0  0.22687146872E+03 -0.24695591388E+03 -0.28893250881E+03  0.44265097014E+03  0.00000000000E+00 0. -1.
          4    1    6    6  503    0 -0.56326140273E+02  0.73115388968E+02  0.20350076192E+03  0.22345257726E+03  0.00000000000E+00 0.  1.
         -4    1    6    6    0  503  0.29044052854E+02  0.11583036390E+03  0.20808039818E+03  0.23991182196E+03  0.00000000000E+00 0. -1.
<mgrwt>
<rscale>  0 0.12342460E+04</rscale>
<asrwt>0</asrwt>
<pdfrwt beam="1">  1        1 0.86329729E-01 0.12342460E+04</pdfrwt>
<pdfrwt beam="2">  1       -1 0.10441343E+00 0.12342460E+04</pdfrwt>
<totfact> 0.32124050E+01</totfact>
</mgrwt>
</event>
<event>
12    2  0.3561489E-008  0.1471862E+04  0.7818608E-02  0.8903383E-01
         -2   -1    0    0    0  501 -0.00000000000E+00  0.00000000000E+00  0.23364751770E+03  0.23364751770E+03  0.00000000000E+00 0.  1.
          2   -1    0    0  501    0  0.00000000000E+00 -0.00000000000E+00 -0.23179976612E+04  0.23179976612E+04  0.00000000000E+00 0. -1.
         23    2    1    2    0    0 -0.24022913213E+03 -0.44718986659E+03 -0.76437075563E+03  0.92145997837E+03  0.84480926664E+02 0.  0.
        254    2    1    2    0    0  0.24022913213E+03  0.44718986659E+03 -0.13199793879E+04  0.16301852006E+04  0.81084486244E+03 0.  0.
         23    2    4    4    0    0  0.49489515174E+03  0.11653483941E+03 -0.58790937142E+03  0.78245658434E+03  0.89996096338E+02 0.  0.
         23    2    4    4    0    0 -0.25466601961E+03  0.33065502718E+03 -0.73207001648E+03  0.84772861622E+03  0.92356749597E+02 0.  0.
          1    1    3    3  502    0 -0.13641820378E+03 -0.31674131304E+03 -0.56054425142E+03  0.65813740473E+03  0.00000000000E+00 0. -1.
         -1    1    3    3    0  502 -0.10381092835E+03 -0.13044855355E+03 -0.20382650421E+03  0.26332257364E+03  0.00000000000E+00 0.  1.
         11    1    5    5    0    0  0.24084620931E+02  0.19117258094E+02 -0.66221205921E+02  0.73012236208E+02  0.00000000000E+00 0. -1.
        -11    1    5    5    0    0  0.47081053081E+03  0.97417581315E+02 -0.52168816550E+03  0.70944434813E+03  0.00000000000E+00 0.  1.
          4    1    6    6  503    0 -0.28763673654E+02  0.35010611208E+01 -0.37084614305E+02  0.47062458172E+02  0.00000000000E+00 0. -1.
         -4    1    6    6    0  503 -0.22590234596E+03  0.32715396606E+03 -0.69498540217E+03  0.80066615805E+03  0.00000000000E+00 0.  1.
<mgrwt>
<rscale>  0 0.14718619E+04</rscale>
<asrwt>0</asrwt>
<pdfrwt beam="1">  1        2 0.35661502E+00 0.14718619E+04</pdfrwt>
<pdfrwt beam="2">  1       -2 0.35945772E-01 0.14718619E+04</pdfrwt>
<totfact> 0.31262526E+01</totfact>
</mgrwt>
</event>
<event>
12    2  0.3561489E-008  0.2419525E+04  0.7818608E-02  0.8432230E-01
         -2   -1    0    0    0  501 -0.00000000000E+00  0.00000000000E+00  0.91582788607E+03  0.91582788607E+03  0.00000000000E+00 0.  1.
          2   -1    0    0  501    0  0.00000000000E+00 -0.00000000000E+00 -0.15980348801E+04  0.15980348801E+04  0.00000000000E+00 0. -1.
         23    2    1    2    0    0 -0.27063447278E+02 -0.43970556020E+03 -0.12721734567E+04  0.13493391119E+04  0.90649461989E+02 0.  0.
        254    2    1    2    0    0  0.27063447278E+02  0.43970556020E+03  0.58996646275E+03  0.11645236543E+04  0.90220923531E+03 0.  0.
         23    2    4    4    0    0  0.30771076041E+03 -0.10719528861E+02  0.53357621564E+03  0.62286826327E+03  0.91980841027E+02 0.  0.
         23    2    4    4    0    0 -0.28064731314E+03  0.45042508906E+03  0.56390247111E+02  0.54165539098E+03  0.92547433150E+02 0.  0.
          1    1    3    3  502    0  0.30069220426E+01 -0.37311328535E+03 -0.99383016687E+03  0.10615653375E+04  0.00000000000E+00 0. -1.
         -1    1    3    3    0  502 -0.30070369321E+02 -0.66592274850E+02 -0.27834328987E+03  0.28777377434E+03  0.00000000000E+00 0.  1.
         11    1    5    5    0    0  0.19768673287E+03  0.35866201090E+02  0.31106344406E+03  0.37030648788E+03  0.00000000000E+00 0. -1.
        -11    1    5    5    0    0  0.11002402754E+03 -0.46585729951E+02  0.22251277158E+03  0.25256177539E+03  0.00000000000E+00 0.  1.
          2    1    6    6  503    0 -0.11174699076E+03  0.10777850192E+03 -0.16267081153E+01  0.15526184850E+03  0.00000000000E+00 0. -1.
         -2    1    6    6    0  503 -0.16890032238E+03  0.34264658714E+03  0.58016955227E+02  0.38639354248E+03  0.00000000000E+00 0.  1.
<mgrwt>
<rscale>  0 0.24195247E+04</rscale>
<asrwt>0</asrwt>
<pdfrwt beam="1">  1        2 0.24585152E+00 0.24195247E+04</pdfrwt>
<pdfrwt beam="2">  1       -2 0.14089660E+00 0.24195247E+04</pdfrwt>
<totfact> 0.35462498E+00</totfact>
</mgrwt>
</event>
<event>
12    2  0.3561489E-008  0.2459767E+04  0.7818608E-02  0.8417461E-01
         -2   -1    0    0    0  501 -0.00000000000E+00  0.00000000000E+00  0.46400490175E+03  0.46400490175E+03  0.00000000000E+00 0.  1.
          2   -1    0    0  501    0  0.00000000000E+00 -0.00000000000E+00 -0.32599070718E+04  0.32599070718E+04  0.00000000000E+00 0. -1.
         23    2    1    2    0    0  0.45825410871E+03  0.32831842636E+03  0.14513424255E+03  0.59184700014E+03  0.10690699686E+03 0.  0.
        254    2    1    2    0    0 -0.45825410871E+03 -0.32831842636E+03 -0.29410364126E+04  0.31320649734E+04  0.91779409465E+03 0.  0.
         23    2    4    4    0    0 -0.30264538965E+03  0.29160794008E+03 -0.12393722512E+04  0.13120063997E+04  0.93208331890E+02 0.  0.
         23    2    4    4    0    0 -0.15560871906E+03 -0.61992636645E+03 -0.17016641614E+04  0.18200585737E+04  0.91812419546E+02 0.  0.
          2    1    3    3  502    0  0.38554574716E+03  0.31253251968E+03  0.14634459989E+03  0.51743486635E+03  0.00000000000E+00 0.  1.
         -2    1    3    3    0  502  0.72708361555E+02  0.15785906690E+02 -0.12103573365E+01  0.74412133788E+02  0.00000000000E+00 0. -1.
         11    1    5    5    0    0 -0.14429285028E+03  0.10974166210E+03 -0.66022150194E+03  0.68465764486E+03  0.00000000000E+00 0.  1.
        -11    1    5    5    0    0 -0.15835253937E+03  0.18186627798E+03 -0.57915074929E+03  0.62734875484E+03  0.00000000000E+00 0. -1.
          4    1    6    6  503    0 -0.15044452366E+03 -0.62130896928E+03 -0.16948242789E+04  0.18113773010E+04  0.00000000000E+00 0. -1.
         -4    1    6    6    0  503 -0.51641954016E+01  0.13826028280E+01 -0.68398824529E+01  0.86812727578E+01  0.00000000000E+00 0.  1.
<mgrwt>
<rscale>  0 0.24597665E+04</rscale>
<asrwt>0</asrwt>
<pdfrwt beam="1">  1        2 0.50152415E+00 0.24597665E+04</pdfrwt>
<pdfrwt beam="2">  1       -2 0.71385372E-01 0.24597665E+04</pdfrwt>
<totfact> 0.18888166E+00</totfact>
</mgrwt>
</event>
<event>
12    2  0.3561489E-008  0.1702153E+04  0.7818608E-02  0.8760137E-01
          1   -1    0    0  501    0  0.00000000000E+00  0.00000000000E+00  0.27512105771E+04  0.27512105771E+04  0.00000000000E+00 0.  1.
         -1   -1    0    0    0  501 -0.00000000000E+00 -0.00000000000E+00 -0.26327726951E+03  0.26327726951E+03  0.00000000000E+00 0. -1.
         23    2    1    2    0    0  0.16706177772E+03 -0.45320302767E+03  0.15721575924E+04  0.16471053271E+04  0.89296368124E+02 0.  0.
        254    2    1    2    0    0 -0.16706177772E+03  0.45320302767E+03  0.91577571517E+03  0.13673825195E+04  0.89318932610E+03 0.  0.
         23    2    4    4    0    0 -0.96867883601E+02  0.64524479278E+02  0.94930599752E+03  0.96079218801E+03  0.91613079444E+02 0.  0.
         23    2    4    4    0    0 -0.70193894121E+02  0.38867854839E+03 -0.33530282345E+02  0.40659033148E+03  0.90516413250E+02 0.  0.
          1    1    3    3  502    0 -0.51846440448E+01 -0.50172503850E+02  0.11794082665E+03  0.12827392279E+03  0.00000000000E+00 0. -1.
         -1    1    3    3    0  502  0.17224642177E+03 -0.40303052382E+03  0.14542167657E+04  0.15188314043E+04  0.00000000000E+00 0.  1.
         11    1    5    5    0    0 -0.11344224376E+03  0.55922276488E+02  0.74754022580E+03  0.75816412001E+03  0.00000000000E+00 0. -1.
        -11    1    5    5    0    0  0.16574360156E+02  0.86022027902E+01  0.20176577171E+03  0.20262806800E+03  0.00000000000E+00 0.  1.
          4    1    6    6  503    0 -0.52106670028E+02  0.37475995369E+03 -0.17631160161E+02  0.37877564040E+03  0.00000000000E+00 0. -1.
         -4    1    6    6    0  503 -0.18087224093E+02  0.13918594706E+02 -0.15899122184E+02  0.27814691086E+02  0.00000000000E+00 0.  1.
<mgrwt>
<rscale>  0 0.17021530E+04</rscale>
<asrwt>0</asrwt>
<pdfrwt beam="1">  1        1 0.42326315E+00 0.17021530E+04</pdfrwt>
<pdfrwt beam="2">  1       -1 0.40504197E-01 0.17021530E+04</pdfrwt>
<totfact> 0.51260355E+00</totfact>
</mgrwt>
</event>
<event>
12    2  0.3561489E-008  0.1610798E+04  0.7818608E-02  0.8813942E-01
         -2   -1    0    0    0  501 -0.00000000000E+00  0.00000000000E+00  0.10210695033E+04  0.10210695033E+04  0.00000000000E+00 0.  1.
          2   -1    0    0  501    0  0.00000000000E+00 -0.00000000000E+00 -0.63528229188E+03  0.63528229188E+03  0.00000000000E+00 0. -1.
         23    2    1    2    0    0 -0.16123440808E+03  0.50081535959E+03  0.30137061642E+03  0.61327173465E+03  0.92007680826E+02 0.  0.
        254    2    1    2    0    0  0.16123440808E+03 -0.50081535959E+03  0.84416594994E+02  0.10430800605E+04  0.89670356997E+03 0.  0.
         23    2    4    4    0    0 -0.67862953757E+02 -0.23261460849E+03 -0.37458922751E+03  0.45602212860E+03  0.94467750218E+02 0.  0.
         23    2    4    4    0    0  0.22909736184E+03 -0.26820075111E+03  0.45900582251E+03  0.58705793192E+03  0.97639265843E+02 0.  0.
          3    1    3    3  502    0 -0.10517683798E+03  0.22281721051E+03  0.10231830731E+03  0.26679338927E+03  0.00000000000E+00 0. -1.
         -3    1    3    3    0  502 -0.56057570108E+02  0.27799814908E+03  0.19905230911E+03  0.34647834539E+03  0.00000000000E+00 0.  1.
         11    1    5    5    0    0 -0.71446775577E+02 -0.18609947974E+03 -0.23139587642E+03  0.30542054568E+03  0.00000000000E+00 0. -1.
        -11    1    5    5    0    0  0.35838218202E+01 -0.46515128751E+02 -0.14319335110E+03  0.15060158293E+03  0.00000000000E+00 0.  1.
          1    1    6    6  503    0  0.97227748988E+02 -0.10814903826E+03  0.26900522908E+03  0.30579938345E+03  0.00000000000E+00 0. -1.
         -1    1    6    6    0  503  0.13186961285E+03 -0.16005171285E+03  0.19000059343E+03  0.28125854847E+03  0.00000000000E+00 0.  1.
<mgrwt>
<rscale>  0 0.16107978E+04</rscale>
<asrwt>0</asrwt>
<pdfrwt beam="1">  1        2 0.97735737E-01 0.16107978E+04</pdfrwt>
<pdfrwt beam="2">  1       -2 0.15708762E+00 0.16107978E+04</pdfrwt>
<totfact> 0.11725532E+01</totfact>
</mgrwt>
</event>
<event>
12    2  0.3561489E-008  0.3277080E+04  0.7818608E-02  0.8168752E-01
         -2   -1    0    0    0  501 -0.00000000000E+00  0.00000000000E+00  0.99281295460E+03  0.99281295460E+03  0.00000000000E+00 0. -1.
          2   -1    0    0  501    0  0.00000000000E+00 -0.00000000000E+00 -0.27042490028E+04  0.27042490028E+04  0.00000000000E+00 0.  1.
         23    2    1    2    0    0 -0.10731153067E+04 -0.10275603257E+04 -0.47093596839E+03  0.15613011406E+04  0.91781702767E+02 0.  0.
        254    2    1    2    0    0  0.10731153067E+04  0.10275603257E+04 -0.12405000798E+04  0.21357608167E+04  0.90287160428E+03 0.  0.
         23    2    4    4    0    0 -0.24165281876E+02 -0.11295979403E+03 -0.15135009765E+03  0.21236709830E+03  0.94069423657E+02 0.  0.
         23    2    4    4    0    0  0.10972805886E+04  0.11405201197E+04 -0.10891499822E+04  0.19233937184E+04  0.91568984087E+02 0.  0.
          4    1    3    3  502    0 -0.82311046864E+03 -0.73375536629E+03 -0.34001288357E+03  0.11539135765E+04  0.00000000000E+00 0. -1.
         -4    1    3    3    0  502 -0.25000483809E+03 -0.29380495942E+03 -0.13092308481E+03  0.40738756410E+03  0.00000000000E+00 0.  1.
         11    1    5    5    0    0 -0.45211754947E+02 -0.78233133733E+02 -0.14559502517E+03  0.17135471209E+03  0.00000000000E+00 0.  1.
        -11    1    5    5    0    0  0.21046473072E+02 -0.34726660296E+02 -0.57550724810E+01  0.41012386218E+02  0.00000000000E+00 0. -1.
          1    1    6    6  503    0  0.29506285832E+03  0.28858561373E+03 -0.33112568133E+03  0.52913888881E+03  0.00000000000E+00 0. -1.
         -1    1    6    6    0  503  0.80221773028E+03  0.85193450601E+03 -0.75802430083E+03  0.13942548296E+04  0.00000000000E+00 0.  1.
<mgrwt>
<rscale>  0 0.32770801E+04</rscale>
<asrwt>0</asrwt>
<pdfrwt beam="1">  1        2 0.41603830E+00 0.32770801E+04</pdfrwt>
<pdfrwt beam="2">  1       -2 0.15274046E+00 0.32770801E+04</pdfrwt>
<totfact> 0.63052140E-01</totfact>
</mgrwt>
</event>
<event>
12    2  0.3561489E-008  0.1133855E+04  0.7818608E-02  0.9172808E-01
         -1   -1    0    0    0  501 -0.00000000000E+00  0.00000000000E+00  0.28491780678E+03  0.28491780678E+03  0.00000000000E+00 0.  1.
          1   -1    0    0  501    0  0.00000000000E+00 -0.00000000000E+00 -0.11280691934E+04  0.11280691934E+04  0.00000000000E+00 0. -1.
         23    2    1    2    0    0  0.59527613462E+01 -0.16942950432E+03 -0.55637676399E+02  0.20465220314E+03  0.10022564998E+03 0.  0.
        254    2    1    2    0    0 -0.59527613462E+01  0.16942950432E+03 -0.78751371025E+03  0.12083347971E+04  0.90064051968E+03 0.  0.
         23    2    4    4    0    0 -0.37904476986E+01  0.22465081971E+03 -0.96844882348E+03  0.99836746182E+03  0.91444555995E+02 0.  0.
         23    2    4    4    0    0 -0.21623136476E+01 -0.55221315383E+02  0.18093511323E+03  0.20996733526E+03  0.91075229352E+02 0.  0.
          2    1    3    3  502    0  0.12989505187E+02 -0.58565401403E+02 -0.70507760658E+02  0.92574174582E+02  0.00000000000E+00 0. -1.
         -2    1    3    3    0  502 -0.70367438410E+01 -0.11086410292E+03  0.14870084259E+02  0.11207802856E+03  0.00000000000E+00 0.  1.
         11    1    5    5    0    0 -0.27128580236E+02  0.15334706748E+03 -0.49228374600E+03  0.51632796704E+03  0.00000000000E+00 0. -1.
        -11    1    5    5    0    0  0.23338132537E+02  0.71303752225E+02 -0.47616507748E+03  0.48203949478E+03  0.00000000000E+00 0.  1.
          1    1    6    6  503    0 -0.77178687588E+01 -0.78062909642E+02  0.10902524800E+03  0.13431265042E+03  0.00000000000E+00 0. -1.
         -1    1    6    6    0  503  0.55555551112E+01  0.22841594259E+02  0.71909865230E+02  0.75654684841E+02  0.00000000000E+00 0.  1.
<mgrwt>
<rscale>  0 0.11338554E+04</rscale>
<asrwt>0</asrwt>
<pdfrwt beam="1">  1        1 0.17354911E+00 0.11338554E+04</pdfrwt>
<pdfrwt beam="2">  1       -1 0.43833509E-01 0.11338554E+04</pdfrwt>
<totfact> 0.61732831E+01</totfact>
</mgrwt>
</event>
<event>
12    2  0.3561489E-008  0.1951073E+04  0.7818608E-02  0.8629844E-01
         -2   -1    0    0    0  501 -0.00000000000E+00  0.00000000000E+00  0.19325045051E+04  0.19325045051E+04  0.00000000000E+00 0.  1.
          2   -1    0    0  501    0  0.00000000000E+00 -0.00000000000E+00 -0.49245494494E+03  0.49245494494E+03  0.00000000000E+00 0. -1.
         23    2    1    2    0    0 -0.40440209650E+03  0.46162289088E+03  0.55694198878E+00  0.62224563141E+03  0.10272568607E+03 0.  0.
        254    2    1    2    0    0  0.40440209650E+03 -0.46162289088E+03  0.14394926182E+04  0.18027138186E+04  0.89498679602E+03 0.  0.
         23    2    4    4    0    0 -0.15537940487E+03  0.59658423559E+02  0.73461907545E+03  0.75864330665E+03  0.90402399055E+02 0.  0.
         23    2    4    4    0    0  0.55978150137E+03 -0.52128131444E+03  0.70487354271E+03  0.10440705120E+04  0.90260648537E+02 0.  0.
          3    1    3    3  502    0 -0.35650136667E+03  0.44275711974E+03  0.15450343444E+02  0.56865262210E+03  0.00000000000E+00 0. -1.
         -3    1    3    3    0  502 -0.47900729828E+02  0.18865771149E+02 -0.14893401455E+02  0.53593009301E+02  0.00000000000E+00 0.  1.
         11    1    5    5    0    0 -0.15416263123E+03  0.55255355195E+02  0.73589767987E+03  0.75389963946E+03  0.00000000000E+00 0. -1.
        -11    1    5    5    0    0 -0.12167736441E+01  0.44030683641E+01 -0.12786044223E+01  0.47436671878E+01  0.00000000000E+00 0.  1.
          2    1    6    6  503    0  0.38000674122E+03 -0.30136130163E+03  0.41647038413E+03  0.63927407139E+03  0.00000000000E+00 0. -1.
         -2    1    6    6    0  503  0.17977476015E+03 -0.21992001281E+03  0.28840315858E+03  0.40479644057E+03  0.00000000000E+00 0.  1.
<mgrwt>
<rscale>  0 0.19510729E+04</rscale>
<asrwt>0</asrwt>
<pdfrwt beam="1">  1        2 0.75762300E-01 0.19510729E+04</pdfrwt>
<pdfrwt beam="2">  1       -2 0.29730838E+00 0.19510729E+04</pdfrwt>
<totfact> 0.19321001E+00</totfact>
</mgrwt>
</event>
<event>
12    2  0.3561489E-008  0.2927457E+04  0.7818608E-02  0.8264755E-01
          2   -1    0    0  501    0  0.00000000000E+00  0.00000000000E+00  0.19443218105E+04  0.19443218105E+04  0.00000000000E+00 0. -1.
         -2   -1    0    0    0  501 -0.00000000000E+00 -0.00000000000E+00 -0.11019273580E+04  0.11019273580E+04  0.00000000000E+00 0.  1.
         23    2    1    2    0    0  0.12237696098E+04 -0.43702727949E+03  0.56812072688E+03  0.14211475131E+04  0.91072458566E+02 0.  0.
        254    2    1    2    0    0 -0.12237696098E+04  0.43702727949E+03  0.27427372566E+03  0.16251016554E+04  0.93654920467E+03 0.  0.
         23    2    4    4    0    0 -0.11205289580E+04  0.57505136607E+03 -0.30954501880E+02  0.12630655720E+04  0.90040205821E+02 0.  0.
         23    2    4    4    0    0 -0.10324065186E+03 -0.13802408658E+03  0.30522822754E+03  0.36203608341E+03  0.90534933193E+02 0.  0.
          3    1    3    3  502    0  0.52935404531E+03 -0.20717207781E+03  0.29421829687E+03  0.64007841810E+03  0.00000000000E+00 0. -1.
         -3    1    3    3    0  502  0.69441556451E+03 -0.22985520168E+03  0.27390243001E+03  0.78106909498E+03  0.00000000000E+00 0.  1.
         11    1    5    5    0    0 -0.45982174215E+03  0.18785594359E+03 -0.22245855620E+02  0.49721300083E+03  0.00000000000E+00 0.  1.
        -11    1    5    5    0    0 -0.66070721581E+03  0.38719542247E+03 -0.87086462599E+01  0.76585257114E+03  0.00000000000E+00 0. -1.
          3    1    6    6  503    0 -0.70358467143E+02 -0.99985184283E+02  0.28053562998E+03  0.30601893841E+03  0.00000000000E+00 0. -1.
         -3    1    6    6    0  503 -0.32882184720E+02 -0.38038902292E+02  0.24692597559E+02  0.56017144999E+02  0.00000000000E+00 0.  1.
<mgrwt>
<rscale>  0 0.29274572E+04</rscale>
<asrwt>0</asrwt>
<pdfrwt beam="1">  1        2 0.29912643E+00 0.29274572E+04</pdfrwt>
<pdfrwt beam="2">  1       -2 0.16952729E+00 0.29274572E+04</pdfrwt>
<totfact> 0.13272428E+00</totfact>
</mgrwt>
</event>
<event>
12    2  0.3561489E-008  0.2704120E+04  0.7818608E-02  0.8333670E-01
          2   -1    0    0  501    0  0.00000000000E+00  0.00000000000E+00  0.12901723146E+04  0.12901723146E+04  0.00000000000E+00 0. -1.
         -2   -1    0    0    0  501 -0.00000000000E+00 -0.00000000000E+00 -0.14169159973E+04  0.14169159973E+04  0.00000000000E+00 0.  1.
         23    2    1    2    0    0  0.57759285812E+03 -0.38731253290E+03 -0.10318950383E+04  0.12476106397E+04  0.90002390077E+02 0.  0.
        254    2    1    2    0    0 -0.57759285812E+03  0.38731253290E+03  0.90515135559E+03  0.14594776722E+04  0.90947874704E+03 0.  0.
         23    2    4    4    0    0  0.23776535641E+03  0.85122398086E+02  0.17701305358E+03  0.32156512170E+03  0.91062171008E+02 0.  0.
         23    2    4    4    0    0 -0.81535821452E+03  0.30219013481E+03  0.72813830201E+03  0.11379125505E+04  0.92367149149E+02 0.  0.
          2    1    3    3  502    0  0.24837791821E+01 -0.16911831831E+02 -0.27999208468E+02  0.32804494962E+02  0.00000000000E+00 0. -1.
         -2    1    3    3    0  502  0.57510907893E+03 -0.37040070107E+03 -0.10038958299E+04  0.12148061447E+04  0.00000000000E+00 0.  1.
         11    1    5    5    0    0  0.17592868829E+03  0.33967731682E+02  0.81586481627E+02  0.19687829780E+03  0.00000000000E+00 0.  1.
        -11    1    5    5    0    0  0.61836668119E+02  0.51154666405E+02  0.95426571955E+02  0.12468682390E+03  0.00000000000E+00 0. -1.
          2    1    6    6  503    0 -0.65044990579E+03  0.22033759198E+03  0.53035715552E+03  0.86770527646E+03  0.00000000000E+00 0. -1.
         -2    1    6    6    0  503 -0.16490830874E+03  0.81852542839E+02  0.19778114648E+03  0.27020727408E+03  0.00000000000E+00 0.  1.
<mgrwt>
<rscale>  0 0.27041197E+04</rscale>
<asrwt>0</asrwt>
<pdfrwt beam="1">  1        2 0.19848805E+00 0.27041197E+04</pdfrwt>
<pdfrwt beam="2">  1       -2 0.21798708E+00 0.27041197E+04</pdfrwt>
<totfact> 0.14954041E+00</totfact>
</mgrwt>
</event>
<event>
12    2  0.3561489E-008  0.1391626E+04  0.7818608E-02  0.8959903E-01
         -2   -1    0    0    0  501 -0.00000000000E+00  0.00000000000E+00  0.35223744497E+03  0.35223744497E+03  0.00000000000E+00 0. -1.
          2   -1    0    0  501    0  0.00000000000E+00 -0.00000000000E+00 -0.13745147949E+04  0.13745147949E+04  0.00000000000E+00 0.  1.
         23    2    1    2    0    0  0.18352089531E+02  0.31170147703E+03 -0.61138277795E+03  0.69315371952E+03  0.95804841946E+02 0.  0.
        254    2    1    2    0    0 -0.18352089531E+02 -0.31170147703E+03 -0.41089457196E+03  0.10335985203E+04  0.89554281974E+03 0.  0.
         23    2    4    4    0    0 -0.19289067758E+03  0.25644273128E+03 -0.73212108174E+02  0.34365374054E+03  0.98834167584E+02 0.  0.
         23    2    4    4    0    0  0.17453858805E+03 -0.56814420831E+03 -0.33768246379E+03  0.68994477979E+03  0.93502901891E+02 0.  0.
          2    1    3    3  502    0 -0.12828975061E+02  0.83870959979E+02 -0.92054310462E+02  0.12519151970E+03  0.00000000000E+00 0. -1.
         -2    1    3    3    0  502  0.31181064592E+02  0.22783051705E+03 -0.51932846749E+03  0.56796219983E+03  0.00000000000E+00 0.  1.
         11    1    5    5    0    0 -0.18496006572E+03  0.18534996810E+03 -0.74039551238E+02  0.27211521775E+03  0.00000000000E+00 0. -1.
        -11    1    5    5    0    0 -0.79306118628E+01  0.71092763178E+02  0.82744306432E+00  0.71538522789E+02  0.00000000000E+00 0.  1.
          3    1    6    6  503    0  0.16265639965E+03 -0.56189661893E+03 -0.33957951878E+03  0.67638684515E+03  0.00000000000E+00 0. -1.
         -3    1    6    6    0  503  0.11882188398E+02 -0.62475893725E+01  0.18970549935E+01  0.13557934642E+02  0.00000000000E+00 0.  1.
<mgrwt>
<rscale>  0 0.13916258E+04</rscale>
<asrwt>0</asrwt>
<pdfrwt beam="1">  1        2 0.21146381E+00 0.13916258E+04</pdfrwt>
<pdfrwt beam="2">  1       -2 0.54190376E-01 0.13916258E+04</pdfrwt>
<totfact> 0.46726478E+01</totfact>
</mgrwt>
</event>
<event>
12    2  0.3561489E-008  0.2746170E+04  0.7818608E-02  0.8320178E-01
          1   -1    0    0  501    0  0.00000000000E+00  0.00000000000E+00  0.61742348205E+03  0.61742348205E+03  0.00000000000E+00 0. -1.
         -1   -1    0    0    0  501 -0.00000000000E+00 -0.00000000000E+00 -0.30535958661E+04  0.30535958661E+04  0.00000000000E+00 0.  1.
         23    2    1    2    0    0 -0.38712291664E+03 -0.10086459271E+04 -0.31845229017E+03  0.11301316499E+04  0.92492843990E+02 0.  0.
        254    2    1    2    0    0  0.38712291664E+03  0.10086459271E+04 -0.21177200939E+04  0.25408876982E+04  0.89673917060E+03 0.  0.
         23    2    4    4    0    0 -0.26798176352E+03  0.22912529068E+03 -0.39235550492E+03  0.53539863318E+03  0.91630943248E+02 0.  0.
         23    2    4    4    0    0  0.65510468016E+03  0.77952063643E+03 -0.17253645889E+04  0.20054890650E+04  0.91043179778E+02 0.  0.
          1    1    3    3  502    0 -0.23744548621E+03 -0.64687098678E+03 -0.24790462395E+03  0.73231081859E+03  0.00000000000E+00 0. -1.
         -1    1    3    3    0  502 -0.14967743043E+03 -0.36177494033E+03 -0.70547666220E+02  0.39782083133E+03  0.00000000000E+00 0.  1.
         11    1    5    5    0    0 -0.12887660312E+03  0.13112582966E+03 -0.26643768000E+03  0.32371623277E+03  0.00000000000E+00 0. -1.
        -11    1    5    5    0    0 -0.13910516040E+03  0.97999461016E+02 -0.12591782492E+03  0.21168240040E+03  0.00000000000E+00 0.  1.
          1    1    6    6  503    0  0.59140024947E+03  0.73896998832E+03 -0.16102419540E+04  0.18678088899E+04  0.00000000000E+00 0.  1.
         -1    1    6    6    0  503  0.63704430683E+02  0.40550648111E+02 -0.11512263493E+03  0.13768017513E+03  0.00000000000E+00 0. -1.
<mgrwt>
<rscale>  0 0.27461695E+04</rscale>
<asrwt>0</asrwt>
<pdfrwt beam="1">  1        1 0.94988227E-01 0.27461695E+04</pdfrwt>
<pdfrwt beam="2">  1       -1 0.46978398E+00 0.27461695E+04</pdfrwt>
<totfact> 0.67532845E-02</totfact>
</mgrwt>
</event>
<event>
12    2  0.3561489E-008  0.1438924E+04  0.7818608E-02  0.8926115E-01
          2   -1    0    0  501    0  0.00000000000E+00  0.00000000000E+00  0.96162757930E+03  0.96162757930E+03  0.00000000000E+00 0. -1.
         -2   -1    0    0    0  501 -0.00000000000E+00 -0.00000000000E+00 -0.53828085082E+03  0.53828085082E+03  0.00000000000E+00 0.  1.
         23    2    1    2    0    0 -0.22778824943E+03 -0.10898481445E+02 -0.24901051574E+03  0.35068177315E+03  0.94684769592E+02 0.  0.
        254    2    1    2    0    0  0.22778824943E+03  0.10898481445E+02  0.67235724422E+03  0.11492266570E+04  0.90368765719E+03 0.  0.
         23    2    4    4    0    0 -0.16400566671E+03 -0.31302090124E+03  0.99721983547E+02  0.37805451701E+03  0.90004447141E+02 0.  0.
         23    2    4    4    0    0  0.39179391613E+03  0.32391938269E+03  0.57263526068E+03  0.77117213996E+03  0.91482722297E+02 0.  0.
          4    1    3    3  502    0 -0.89890026931E+02 -0.30920543250E+02 -0.15753928634E+03  0.18399707518E+03  0.00000000000E+00 0. -1.
         -4    1    3    3    0  502 -0.13789822250E+03  0.20022061805E+02 -0.91471229407E+02  0.16668469797E+03  0.00000000000E+00 0.  1.
         11    1    5    5    0    0 -0.12819046671E+03 -0.21054991503E+03  0.10813601193E+03  0.26917923313E+03  0.00000000000E+00 0.  1.
        -11    1    5    5    0    0 -0.35815200002E+02 -0.10247098621E+03 -0.84140283854E+01  0.10887528388E+03  0.00000000000E+00 0. -1.
          2    1    6    6  503    0  0.13282144053E+03  0.10937598333E+03  0.26146339239E+03  0.31299799736E+03  0.00000000000E+00 0. -1.
         -2    1    6    6    0  503  0.25897247561E+03  0.21454339936E+03  0.31117186828E+03  0.45817414259E+03  0.00000000000E+00 0.  1.
<mgrwt>
<rscale>  0 0.14389242E+04</rscale>
<asrwt>0</asrwt>
<pdfrwt beam="1">  1        2 0.14794270E+00 0.14389242E+04</pdfrwt>
<pdfrwt beam="2">  1       -2 0.82812439E-01 0.14389242E+04</pdfrwt>
<totfact> 0.33110167E+01</totfact>
</mgrwt>
</event>
<event>
12    2  0.3561489E-008  0.1663748E+04  0.7818608E-02  0.8782315E-01
         -1   -1    0    0    0  501 -0.00000000000E+00  0.00000000000E+00  0.58305259826E+03  0.58305259826E+03  0.00000000000E+00 0.  1.
          1   -1    0    0  501    0  0.00000000000E+00 -0.00000000000E+00 -0.11868814087E+04  0.11868814087E+04  0.00000000000E+00 0. -1.
         23    2    1    2    0    0  0.49891633805E+03 -0.64938394865E+02 -0.54649299686E+03  0.74873399893E+03  0.93880232353E+02 0.  0.
        254    2    1    2    0    0 -0.49891633805E+03  0.64938394865E+02 -0.57335813618E+02  0.10212000081E+04  0.88680750643E+03 0.  0.
         23    2    4    4    0    0 -0.19625041068E+03  0.10657439136E+03 -0.45219685758E+03  0.51372833757E+03  0.97787945216E+02 0.  0.
         23    2    4    4    0    0 -0.30266592737E+03 -0.41635996490E+02  0.39486104397E+03  0.50747167050E+03  0.90950714779E+02 0.  0.
          3    1    3    3  502    0  0.28266237403E+03 -0.37946733252E+02 -0.37660312753E+03  0.47240648590E+03  0.00000000000E+00 0. -1.
         -3    1    3    3    0  502  0.21625396403E+03 -0.26991661613E+02 -0.16988986932E+03  0.27632751302E+03  0.00000000000E+00 0.  1.
         11    1    5    5    0    0 -0.54585703464E+02 -0.13750564375E+02 -0.81587075580E+02  0.99121783403E+02  0.00000000000E+00 0.  1.
        -11    1    5    5    0    0 -0.14166470722E+03  0.12032495573E+03 -0.37060978200E+03  0.41460655417E+03  0.00000000000E+00 0. -1.
          3    1    6    6  503    0 -0.27527836107E+03 -0.28538849771E+02  0.38759027189E+03  0.47625503764E+03  0.00000000000E+00 0. -1.
         -3    1    6    6    0  503 -0.27387566302E+02 -0.13097146719E+02  0.72707720816E+01  0.31216632855E+02  0.00000000000E+00 0.  1.
<mgrwt>
<rscale>  0 0.16637479E+04</rscale>
<asrwt>0</asrwt>
<pdfrwt beam="1">  1        1 0.18259714E+00 0.16637479E+04</pdfrwt>
<pdfrwt beam="2">  1       -1 0.89700401E-01 0.16637479E+04</pdfrwt>
<totfact> 0.12690944E+01</totfact>
</mgrwt>
</event>
<event>
12    2  0.3561489E-008  0.1132223E+04  0.7818608E-02  0.9174342E-01
          2   -1    0    0  501    0  0.00000000000E+00  0.00000000000E+00  0.10228843306E+04  0.10228843306E+04  0.00000000000E+00 0. -1.
         -2   -1    0    0    0  501 -0.00000000000E+00 -0.00000000000E+00 -0.31331248060E+03  0.31331248060E+03  0.00000000000E+00 0.  1.
         23    2    1    2    0    0 -0.46958236281E+02  0.14290717054E+03 -0.13652725646E+02  0.17543942603E+03  0.89247184502E+02 0.  0.
        254    2    1    2    0    0  0.46958236281E+02 -0.14290717054E+03  0.72322457565E+03  0.11607573852E+04  0.89536382831E+03 0.  0.
         23    2    4    4    0    0 -0.95038024285E+02  0.34939362069E+03  0.40799805653E+03  0.55230450731E+03  0.86427579059E+02 0.  0.
         23    2    4    4    0    0  0.14199626057E+03 -0.49230079123E+03  0.31522651912E+03  0.60845287786E+03  0.91236720461E+02 0.  0.
          4    1    3    3  502    0 -0.22658057088E+02  0.98172965435E+02  0.33371191119E+02  0.10613649273E+03  0.00000000000E+00 0. -1.
         -4    1    3    3    0  502 -0.24300179194E+02  0.44734205102E+02 -0.47023916765E+02  0.69302933292E+02  0.00000000000E+00 0.  1.
         11    1    5    5    0    0 -0.98029205154E+02  0.29119465974E+03  0.29910377774E+03  0.42879730034E+03  0.00000000000E+00 0. -1.
        -11    1    5    5    0    0  0.29911808688E+01  0.58198960948E+02  0.10889427879E+03  0.12350720696E+03  0.00000000000E+00 0.  1.
          1    1    6    6  503    0  0.11563729024E+03 -0.42982306812E+03  0.23475247244E+03  0.50321821916E+03  0.00000000000E+00 0. -1.
         -1    1    6    6    0  503  0.26358970323E+02 -0.62477723111E+02  0.80474046686E+02  0.10523465870E+03  0.00000000000E+00 0.  1.
<mgrwt>
<rscale>  0 0.11322233E+04</rscale>
<asrwt>0</asrwt>
<pdfrwt beam="1">  1        2 0.15736682E+00 0.11322233E+04</pdfrwt>
<pdfrwt beam="2">  1       -2 0.48201921E-01 0.11322233E+04</pdfrwt>
<totfact> 0.98364360E+01</totfact>
</mgrwt>
</event>
<event>
12    2  0.3561489E-008  0.1728670E+04  0.7818608E-02  0.8745179E-01
         -1   -1    0    0    0  501 -0.00000000000E+00  0.00000000000E+00  0.89739358770E+03  0.89739358770E+03  0.00000000000E+00 0.  1.
          1   -1    0    0  501    0  0.00000000000E+00 -0.00000000000E+00 -0.83249453888E+03  0.83249453888E+03  0.00000000000E+00 0. -1.
         23    2    1    2    0    0  0.48814595481E+03  0.23223141540E+03 -0.28404323062E+03  0.61732327280E+03  0.90496203206E+02 0.  0.
        254    2    1    2    0    0 -0.48814595481E+03 -0.23223141540E+03  0.34894227944E+03  0.11125648538E+04  0.90764637166E+03 0.  0.
         23    2    4    4    0    0 -0.10652122607E+02  0.10001509229E+03 -0.24162307744E+03  0.27865414873E+03  0.95655301230E+02 0.  0.
         23    2    4    4    0    0 -0.47749383220E+03 -0.33224650768E+03  0.59056535687E+03  0.83391070504E+03  0.90837886314E+02 0.  0.
          1    1    3    3  502    0  0.41252763861E+03  0.21956373688E+03 -0.26893010637E+03  0.53917593537E+03  0.00000000000E+00 0. -1.
         -1    1    3    3    0  502  0.75618316201E+02  0.12667678514E+02 -0.15113124251E+02  0.78147337438E+02  0.00000000000E+00 0.  1.
         11    1    5    5    0    0  0.27987478207E+01 -0.15190065598E+02 -0.68832712017E+02  0.70544406765E+02  0.00000000000E+00 0.  1.
        -11    1    5    5    0    0 -0.13450870428E+02  0.11520515789E+03 -0.17279036542E+03  0.20810974197E+03  0.00000000000E+00 0. -1.
          2    1    6    6  503    0 -0.26697305593E+03 -0.22963953759E+03  0.31721827614E+03  0.47395818860E+03  0.00000000000E+00 0. -1.
         -2    1    6    6    0  503 -0.21052077627E+03 -0.10260697009E+03  0.27334708073E+03  0.35995251645E+03  0.00000000000E+00 0.  1.
<mgrwt>
<rscale>  0 0.17286703E+04</rscale>
<asrwt>0</asrwt>
<pdfrwt beam="1">  1        1 0.12807608E+00 0.17286703E+04</pdfrwt>
<pdfrwt beam="2">  1       -1 0.13806055E+00 0.17286703E+04</pdfrwt>
<totfact> 0.85543769E+00</totfact>
</mgrwt>
</event>
<event>
12    2  0.3561489E-008  0.2324314E+04  0.7818608E-02  0.8468396E-01
          2   -1    0    0  501    0  0.00000000000E+00  0.00000000000E+00  0.16450992113E+04  0.16450992113E+04  0.00000000000E+00 0. -1.
         -2   -1    0    0    0  501 -0.00000000000E+00 -0.00000000000E+00 -0.82098909731E+03  0.82098909731E+03  0.00000000000E+00 0.  1.
         23    2    1    2    0    0  0.20291857507E+03  0.96080832163E+03  0.22231764066E+03  0.10109908764E+04  0.91371985353E+02 0.  0.
        254    2    1    2    0    0 -0.20291857507E+03 -0.96080832163E+03  0.60179247337E+03  0.14550974323E+04  0.88928385647E+03 0.  0.
         23    2    4    4    0    0 -0.47078157471E+03 -0.24942208855E+03  0.37096036288E+03  0.65551559958E+03  0.90787890815E+02 0.  0.
         23    2    4    4    0    0  0.26786299964E+03 -0.71138623308E+03  0.23083211049E+03  0.79958183270E+03  0.90701073591E+02 0.  0.
          2    1    3    3  502    0  0.20601615604E+02  0.66088173388E+02  0.39703901930E+02  0.79802713336E+02  0.00000000000E+00 0. -1.
         -2    1    3    3    0  502  0.18231695947E+03  0.89472014824E+03  0.18261373873E+03  0.93118816302E+03  0.00000000000E+00 0.  1.
         11    1    5    5    0    0 -0.40806484341E+02 -0.79388159836E+01  0.59824440788E+01  0.41999804770E+02  0.00000000000E+00 0. -1.
        -11    1    5    5    0    0 -0.42997509037E+03 -0.24148327257E+03  0.36497791880E+03  0.61351579481E+03  0.00000000000E+00 0.  1.
          2    1    6    6  503    0  0.24433403633E+02 -0.57127492648E+02  0.46414052245E+02  0.77555179551E+02  0.00000000000E+00 0. -1.
         -2    1    6    6    0  503  0.24342959601E+03 -0.65425874043E+03  0.18441805824E+03  0.72202665315E+03  0.00000000000E+00 0.  1.
<mgrwt>
<rscale>  0 0.23243137E+04</rscale>
<asrwt>0</asrwt>
<pdfrwt beam="1">  1        2 0.25309219E+00 0.23243137E+04</pdfrwt>
<pdfrwt beam="2">  1       -2 0.12630602E+00 0.23243137E+04</pdfrwt>
<totfact> 0.44481257E+00</totfact>
</mgrwt>
</event>
<event>
12    2  0.3561489E-008  0.2917066E+04  0.7818608E-02  0.8267818E-01
         -1   -1    0    0    0  501 -0.00000000000E+00  0.00000000000E+00  0.13246257903E+04  0.13246257903E+04  0.00000000000E+00 0.  1.
          1   -1    0    0  501    0  0.00000000000E+00 -0.00000000000E+00 -0.16059764794E+04  0.16059764794E+04  0.00000000000E+00 0. -1.
         23    2    1    2    0    0  0.10434384961E+04 -0.66567536367E+03  0.32516604013E+03  0.12829437290E+04  0.91236358577E+02 0.  0.
        254    2    1    2    0    0 -0.10434384961E+04  0.66567536367E+03 -0.60651672930E+03  0.16476585407E+04  0.90278931027E+03 0.  0.
         23    2    4    4    0    0 -0.80689838712E+03  0.20746805131E+03  0.11188473923E+02  0.83815026483E+03  0.90789234116E+02 0.  0.
         23    2    4    4    0    0 -0.23654010903E+03  0.45820731236E+03 -0.61770520322E+03  0.80950827586E+03  0.88536807728E+02 0.  0.
          3    1    3    3  502    0  0.57422272436E+02 -0.61827031931E+02  0.13547288206E+02  0.85460097513E+02  0.00000000000E+00 0. -1.
         -3    1    3    3    0  502  0.98601622371E+03 -0.60384833174E+03  0.31161875192E+03  0.11974836315E+04  0.00000000000E+00 0.  1.
         11    1    5    5    0    0 -0.60336121551E+03  0.14689249054E+03 -0.30514865642E+02  0.62173412097E+03  0.00000000000E+00 0.  1.
        -11    1    5    5    0    0 -0.20353717161E+03  0.60575560771E+02  0.41703339565E+02  0.21641614385E+03  0.00000000000E+00 0. -1.
          4    1    6    6  503    0 -0.57909439091E+02  0.65995703153E+02 -0.14766632966E+03  0.17179720861E+03  0.00000000000E+00 0. -1.
         -4    1    6    6    0  503 -0.17863066994E+03  0.39221160920E+03 -0.47003887357E+03  0.63771106726E+03  0.00000000000E+00 0.  1.
<mgrwt>
<rscale>  0 0.29170656E+04</rscale>
<asrwt>0</asrwt>
<pdfrwt beam="1">  1        1 0.24707331E+00 0.29170656E+04</pdfrwt>
<pdfrwt beam="2">  1       -1 0.20378858E+00 0.29170656E+04</pdfrwt>
<totfact> 0.67154514E-01</totfact>
</mgrwt>
</event>
<event>
12    2  0.3561489E-008  0.3294569E+04  0.7818608E-02  0.8164279E-01
          2   -1    0    0  501    0  0.00000000000E+00  0.00000000000E+00  0.15030499723E+04  0.15030499723E+04  0.00000000000E+00 0. -1.
         -2   -1    0    0    0  501 -0.00000000000E+00 -0.00000000000E+00 -0.18053600737E+04  0.18053600737E+04  0.00000000000E+00 0.  1.
         23    2    1    2    0    0  0.10619746240E+04 -0.31533773264E+03  0.91007039642E+03  0.14366347814E+04  0.91996635270E+02 0.  0.
        254    2    1    2    0    0 -0.10619746240E+04  0.31533773264E+03 -0.12123804978E+04  0.18717752647E+04  0.89802460002E+03 0.  0.
         23    2    4    4    0    0 -0.11939517927E+04  0.22660061252E+03 -0.11518247171E+04  0.16768901358E+04  0.91605829038E+02 0.  0.
         23    2    4    4    0    0  0.13197716866E+03  0.88737120121E+02 -0.60555780745E+02  0.19488512884E+03  0.94978741455E+02 0.  0.
          4    1    3    3  502    0  0.48259729956E+03 -0.14956923449E+03  0.47401416878E+03  0.69279184583E+03  0.00000000000E+00 0. -1.
         -4    1    3    3    0  502  0.57937732447E+03 -0.16576849815E+03  0.43605622764E+03  0.74384293554E+03  0.00000000000E+00 0.  1.
         11    1    5    5    0    0 -0.85954980134E+03  0.16980339356E+03 -0.77311089138E+03  0.11684859879E+04  0.00000000000E+00 0.  1.
        -11    1    5    5    0    0 -0.33440199135E+03  0.56797218952E+02 -0.37871382572E+03  0.50840414799E+03  0.00000000000E+00 0. -1.
          2    1    6    6  503    0  0.12127658015E+03  0.94201566819E+02 -0.79138345460E+02  0.17275653911E+03  0.00000000000E+00 0.  1.
         -2    1    6    6    0  503  0.10700588512E+02 -0.54644466985E+01  0.18582564714E+02  0.22128589733E+02  0.00000000000E+00 0. -1.
<mgrwt>
<rscale>  0 0.32945691E+04</rscale>
<asrwt>0</asrwt>
<pdfrwt beam="1">  1        2 0.23123846E+00 0.32945691E+04</pdfrwt>
<pdfrwt beam="2">  1       -2 0.27774770E+00 0.32945691E+04</pdfrwt>
<totfact> 0.45918898E-01</totfact>
</mgrwt>
</event>
<event>
12    2  0.3561489E-008  0.1395340E+04  0.7818608E-02  0.8957199E-01
          2   -1    0    0  501    0  0.00000000000E+00  0.00000000000E+00  0.26751873419E+04  0.26751873419E+04  0.00000000000E+00 0. -1.
         -2   -1    0    0    0  501 -0.00000000000E+00 -0.00000000000E+00 -0.18194737945E+03  0.18194737945E+03  0.00000000000E+00 0.  1.
         23    2    1    2    0    0  0.91465246360E+02 -0.12859651648E+03  0.14906678805E+04  0.15018180850E+04  0.91999321298E+02 0.  0.
        254    2    1    2    0    0 -0.91465246360E+02  0.12859651648E+03  0.10025720819E+04  0.13553166363E+04  0.89823685624E+03 0.  0.
         23    2    4    4    0    0 -0.18367369131E+03 -0.17715113372E+03  0.98760497464E+03  0.10237188059E+04  0.86706739117E+02 0.  0.
         23    2    4    4    0    0  0.92208444945E+02  0.30574765020E+03  0.14967107246E+02  0.33159783038E+03  0.88028881014E+02 0.  0.
          1    1    3    3  502    0  0.88003938325E+02 -0.91681767566E+02  0.13619634806E+04  0.13678796593E+04  0.00000000000E+00 0. -1.
         -1    1    3    3    0  502  0.34613080347E+01 -0.36914748913E+02  0.12870439988E+03  0.13393842574E+03  0.00000000000E+00 0.  1.
         11    1    5    5    0    0 -0.94193344886E+01 -0.35360702619E+02  0.69701016297E+02  0.78723153041E+02  0.00000000000E+00 0. -1.
        -11    1    5    5    0    0 -0.17425435682E+03 -0.14179043110E+03  0.91790395834E+03  0.94499565288E+03  0.00000000000E+00 0.  1.
          2    1    6    6  503    0  0.10145951556E+03  0.22684518773E+03 -0.88589991056E+01  0.24865891168E+03  0.00000000000E+00 0.  1.
         -2    1    6    6    0  503 -0.92510706120E+01  0.78902462471E+02  0.23826106352E+02  0.82938918702E+02  0.00000000000E+00 0. -1.
<mgrwt>
<rscale>  0 0.13953399E+04</rscale>
<asrwt>0</asrwt>
<pdfrwt beam="1">  1        2 0.41156726E+00 0.13953399E+04</pdfrwt>
<pdfrwt beam="2">  1       -2 0.27991906E-01 0.13953399E+04</pdfrwt>
<totfact> 0.31366463E+01</totfact>
</mgrwt>
</event>
<event>
12    2  0.3561489E-008  0.1552945E+04  0.7818608E-02  0.8849989E-01
         -1   -1    0    0    0  501 -0.00000000000E+00  0.00000000000E+00  0.36831731687E+03  0.36831731687E+03  0.00000000000E+00 0.  1.
          1   -1    0    0  501    0  0.00000000000E+00 -0.00000000000E+00 -0.16369303918E+04  0.16369303918E+04  0.00000000000E+00 0. -1.
         23    2    1    2    0    0 -0.21587255799E+03  0.46618310609E+03 -0.41121605672E+03  0.66436328410E+03  0.91390799641E+02 0.  0.
        254    2    1    2    0    0  0.21587255799E+03 -0.46618310609E+03 -0.85739701824E+03  0.13408844246E+04  0.89381974890E+03 0.  0.
         23    2    4    4    0    0  0.81262879640E+02  0.25115535441E+03 -0.35068125846E+03  0.44817988433E+03  0.90582537115E+02 0.  0.
         23    2    4    4    0    0  0.13460967835E+03 -0.71733846050E+03 -0.50671575978E+03  0.89270454026E+03  0.86407769100E+02 0.  0.
          3    1    3    3  502    0 -0.60893877000E+02  0.23731183144E+03 -0.20619433203E+03  0.32022034938E+03  0.00000000000E+00 0. -1.
         -3    1    3    3    0  502 -0.15497868099E+03  0.22887127466E+03 -0.20502172469E+03  0.34414293473E+03  0.00000000000E+00 0.  1.
         11    1    5    5    0    0  0.88509168796E+02  0.25566278130E+03 -0.33988397686E+03  0.43441736663E+03  0.00000000000E+00 0. -1.
        -11    1    5    5    0    0 -0.72462891560E+01 -0.45074268867E+01 -0.10797281595E+02  0.13762517702E+02  0.00000000000E+00 0.  1.
          4    1    6    6  503    0  0.11558997086E+03 -0.45783487703E+03 -0.36179455384E+03  0.59486898993E+03  0.00000000000E+00 0. -1.
         -4    1    6    6    0  503  0.19019707496E+02 -0.25950358348E+03 -0.14492120594E+03  0.29783555033E+03  0.00000000000E+00 0.  1.
<mgrwt>
<rscale>  0 0.15529453E+04</rscale>
<asrwt>0</asrwt>
<pdfrwt beam="1">  1        1 0.25183544E+00 0.15529453E+04</pdfrwt>
<pdfrwt beam="2">  1       -1 0.56664204E-01 0.15529453E+04</pdfrwt>
<totfact> 0.15983161E+01</totfact>
</mgrwt>
</event>
<event>
12    2  0.3561489E-008  0.3672227E+04  0.7818608E-02  0.8074145E-01
         -1   -1    0    0    0  501 -0.00000000000E+00  0.00000000000E+00  0.12976081553E+04  0.12976081553E+04  0.00000000000E+00 0.  1.
          1   -1    0    0  501    0  0.00000000000E+00 -0.00000000000E+00 -0.25980971996E+04  0.25980971996E+04  0.00000000000E+00 0. -1.
         23    2    1    2    0    0 -0.85216693547E+02 -0.11217123925E+04 -0.20002193981E+04  0.22980198938E+04  0.12048740771E+03 0.  0.
        254    2    1    2    0    0  0.85216693547E+02  0.11217123925E+04  0.69973035378E+03  0.15976854611E+04  0.89301494293E+03 0.  0.
         23    2    4    4    0    0  0.10647609927E+02  0.12483386445E+04  0.67821883802E+03  0.14237534819E+04  0.92900173160E+02 0.  0.
         23    2    4    4    0    0  0.74569083620E+02 -0.12662625197E+03  0.21511515756E+02  0.17393197918E+03  0.90525312209E+02 0.  0.
          1    1    3    3  502    0 -0.21359241867E+02 -0.90817793703E+03 -0.15958164969E+04  0.18362662318E+04  0.00000000000E+00 0. -1.
         -1    1    3    3    0  502 -0.63857451680E+02 -0.21353445547E+03 -0.40440290122E+03  0.46175366195E+03  0.00000000000E+00 0.  1.
         11    1    5    5    0    0  0.19202545405E+02  0.10819897175E+04  0.55233555024E+03  0.12149670969E+04  0.00000000000E+00 0. -1.
        -11    1    5    5    0    0 -0.85549354779E+01  0.16634892701E+03  0.12588328778E+03  0.20878638504E+03  0.00000000000E+00 0.  1.
          2    1    6    6  503    0  0.26762674396E+02  0.89065827219E+01 -0.21183086460E+01  0.28285246828E+02  0.00000000000E+00 0.  1.
         -2    1    6    6    0  503  0.47806409224E+02 -0.13553283470E+03  0.23629824402E+02  0.14564673235E+03  0.00000000000E+00 0. -1.
<mgrwt>
<rscale>  0 0.36722266E+04</rscale>
<asrwt>0</asrwt>
<pdfrwt beam="1">  1        1 0.39970726E+00 0.36722266E+04</pdfrwt>
<pdfrwt beam="2">  1       -1 0.19963202E+00 0.36722266E+04</pdfrwt>
<totfact> 0.14088117E-01</totfact>
</mgrwt>
</event>
<event>
12    2  0.3561489E-008  0.1658067E+04  0.7818608E-02  0.8785648E-01
         -2   -1    0    0    0  501 -0.00000000000E+00  0.00000000000E+00  0.78368061055E+03  0.78368061055E+03  0.00000000000E+00 0.  1.
          2   -1    0    0  501    0  0.00000000000E+00 -0.00000000000E+00 -0.87701122649E+03  0.87701122649E+03  0.00000000000E+00 0. -1.
         23    2    1    2    0    0  0.50524074806E+03  0.27072545114E+03 -0.58108743931E+02  0.59021079359E+03  0.12810804562E+03 0.  0.
        254    2    1    2    0    0 -0.50524074806E+03 -0.27072545114E+03 -0.35221872011E+02  0.10704810435E+04  0.90339836215E+03 0.  0.
         23    2    4    4    0    0 -0.40649241284E+03 -0.40393366479E+03 -0.36957854719E+03  0.68791031029E+03  0.90740317497E+02 0.  0.
         23    2    4    4    0    0 -0.98748335222E+02  0.13320821364E+03  0.33435667518E+03  0.38257073316E+03  0.84085181489E+02 0.  0.
          1    1    3    3  502    0  0.35312394539E+03  0.24665482484E+03 -0.18236909575E+02  0.43112377376E+03  0.00000000000E+00 0. -1.
         -1    1    3    3    0  502  0.15211680267E+03  0.24070626300E+02 -0.39871834356E+02  0.15908701984E+03  0.00000000000E+00 0.  1.
         11    1    5    5    0    0 -0.28273560635E+03 -0.29973390715E+03 -0.21774564641E+03  0.46603970295E+03  0.00000000000E+00 0. -1.
        -11    1    5    5    0    0 -0.12375680649E+03 -0.10419975763E+03 -0.15183290078E+03  0.22187060734E+03  0.00000000000E+00 0.  1.
          1    1    6    6  503    0 -0.11992383896E+02  0.74488021447E+02  0.18809276166E+03  0.20266023192E+03  0.00000000000E+00 0. -1.
         -1    1    6    6    0  503 -0.86755951326E+02  0.58720192197E+02  0.14626391351E+03  0.17991050124E+03  0.00000000000E+00 0.  1.
<mgrwt>
<rscale>  0 0.16580672E+04</rscale>
<asrwt>0</asrwt>
<pdfrwt beam="1">  1        2 0.13492480E+00 0.16580672E+04</pdfrwt>
<pdfrwt beam="2">  1       -2 0.12056625E+00 0.16580672E+04</pdfrwt>
<totfact> 0.15230734E+01</totfact>
</mgrwt>
</event>
<event>
12    2  0.3561489E-008  0.1800096E+04  0.7818608E-02  0.8706248E-01
          1   -1    0    0  501    0  0.00000000000E+00  0.00000000000E+00  0.76773555746E+03  0.76773555746E+03  0.00000000000E+00 0. -1.
         -1   -1    0    0    0  501 -0.00000000000E+00 -0.00000000000E+00 -0.10551636326E+04  0.10551636326E+04  0.00000000000E+00 0.  1.
         23    2    1    2    0    0  0.14214989891E+03  0.63308854927E+03 -0.28604928830E+03  0.71488162926E+03  0.90685409762E+02 0.  0.
        254    2    1    2    0    0 -0.14214989891E+03 -0.63308854927E+03 -0.13787868547E+01  0.11080175608E+04  0.89816107076E+03 0.  0.
         23    2    4    4    0    0 -0.87526812326E+02 -0.53570926848E+03 -0.40182290988E+03  0.68179257254E+03  0.93456395461E+02 0.  0.
         23    2    4    4    0    0 -0.54623086582E+02 -0.97379280788E+02  0.40044412302E+03  0.42622498827E+03  0.94052320788E+02 0.  0.
          4    1    3    3  502    0  0.13196014300E+03  0.43247575155E+03 -0.17113172937E+03  0.48346129505E+03  0.00000000000E+00 0. -1.
         -4    1    3    3    0  502  0.10189755911E+02  0.20061279772E+03 -0.11491755893E+03  0.23142033421E+03  0.00000000000E+00 0.  1.
         11    1    5    5    0    0 -0.18062331622E+02 -0.37706767336E+03 -0.26893889512E+03  0.46350232732E+03  0.00000000000E+00 0. -1.
        -11    1    5    5    0    0 -0.69464480704E+02 -0.15864159512E+03 -0.13288401475E+03  0.21829024522E+03  0.00000000000E+00 0.  1.
          4    1    6    6  503    0 -0.67541675955E+02 -0.74232619511E+02  0.19729936875E+03  0.22135808253E+03  0.00000000000E+00 0. -1.
         -4    1    6    6    0  503  0.12918589373E+02 -0.23146661277E+02  0.20314475427E+03  0.20486690574E+03  0.00000000000E+00 0.  1.
<mgrwt>
<rscale>  0 0.18000963E+04</rscale>
<asrwt>0</asrwt>
<pdfrwt beam="1">  1        1 0.11811316E+00 0.18000963E+04</pdfrwt>
<pdfrwt beam="2">  1       -1 0.16233287E+00 0.18000963E+04</pdfrwt>
<totfact> 0.62515778E+00</totfact>
</mgrwt>
</event>
<event>
12    2  0.3561489E-008  0.1144575E+04  0.7818608E-02  0.9162803E-01
          1   -1    0    0  501    0  0.00000000000E+00  0.00000000000E+00  0.30806131348E+03  0.30806131348E+03  0.00000000000E+00 0. -1.
         -1   -1    0    0    0  501 -0.00000000000E+00 -0.00000000000E+00 -0.10631415576E+04  0.10631415576E+04  0.00000000000E+00 0.  1.
         23    2    1    2    0    0 -0.17679754775E+03  0.91377470870E+02 -0.88507622723E+02  0.23626431514E+03  0.91542406881E+02 0.  0.
        254    2    1    2    0    0  0.17679754775E+03 -0.91377470870E+02 -0.66657262135E+03  0.11349385559E+04  0.89674926877E+03 0.  0.
         23    2    4    4    0    0 -0.35271982379E+03 -0.43487590891E+02 -0.36257694836E+03  0.51580497913E+03  0.91051020648E+02 0.  0.
         23    2    4    4    0    0  0.52951737154E+03 -0.47889879979E+02 -0.30399567300E+03  0.61913357676E+03  0.90724469167E+02 0.  0.
          4    1    3    3  502    0 -0.20036646813E+02  0.30066094208E+02  0.14490013292E+02  0.38928109660E+02  0.00000000000E+00 0. -1.
         -4    1    3    3    0  502 -0.15676090093E+03  0.61311376662E+02 -0.10299763602E+03  0.19733620548E+03  0.00000000000E+00 0.  1.
         11    1    5    5    0    0 -0.35034683588E+03 -0.49012135023E+02 -0.36588945569E+03  0.50894026032E+03  0.00000000000E+00 0.  1.
        -11    1    5    5    0    0 -0.23729879156E+01  0.55245441319E+01  0.33125073362E+01  0.68647188118E+01  0.00000000000E+00 0. -1.
          4    1    6    6  503    0  0.45807527436E+01 -0.91714343984E-01  0.60595448213E+01  0.75966960358E+01  0.00000000000E+00 0. -1.
         -4    1    6    6    0  503  0.52493661880E+03 -0.47798165635E+02 -0.31005521782E+03  0.61153688073E+03  0.00000000000E+00 0.  1.
<mgrwt>
<rscale>  0 0.11445747E+04</rscale>
<asrwt>0</asrwt>
<pdfrwt beam="1">  1        1 0.47394048E-01 0.11445747E+04</pdfrwt>
<pdfrwt beam="2">  1       -1 0.16356024E+00 0.11445747E+04</pdfrwt>
<totfact> 0.23115816E+01</totfact>
</mgrwt>
</event>
<event>
12    2  0.3561489E-008  0.1424889E+04  0.7818608E-02  0.8935997E-01
         -1   -1    0    0    0  501 -0.00000000000E+00  0.00000000000E+00  0.20633663172E+03  0.20633663172E+03  0.00000000000E+00 0.  1.
          1   -1    0    0  501    0  0.00000000000E+00 -0.00000000000E+00 -0.24599465710E+04  0.24599465710E+04  0.00000000000E+00 0. -1.
         23    2    1    2    0    0 -0.35048272187E+03 -0.19464813515E+03 -0.44268304213E+03  0.60407684360E+03  0.90634002111E+02 0.  0.
        254    2    1    2    0    0  0.35048272187E+03  0.19464813515E+03 -0.18109268971E+04  0.20622063591E+04  0.90139492228E+03 0.  0.
         23    2    4    4    0    0  0.34857063198E+03  0.41215581349E+03 -0.53981972463E+03  0.76911628928E+03  0.93598243955E+02 0.  0.
         23    2    4    4    0    0  0.19120898834E+01 -0.21750767833E+03 -0.12711071725E+04  0.12930900698E+04  0.95159016650E+02 0.  0.
          3    1    3    3  502    0 -0.81788914502E+00  0.62620140076E+01 -0.17818043861E+01  0.65617519731E+01  0.00000000000E+00 0. -1.
         -3    1    3    3    0  502 -0.34966483272E+03 -0.20091014916E+03 -0.44090123774E+03  0.59751509162E+03  0.00000000000E+00 0.  1.
         11    1    5    5    0    0  0.21063182852E+03  0.26003844655E+03 -0.26963552991E+03  0.42975467404E+03  0.00000000000E+00 0. -1.
        -11    1    5    5    0    0  0.13793880346E+03  0.15211736694E+03 -0.27018419472E+03  0.33936161524E+03  0.00000000000E+00 0.  1.
          3    1    6    6  503    0  0.39078912099E+02 -0.18146666571E+03 -0.98660314553E+03  0.10039138802E+04  0.00000000000E+00 0. -1.
         -3    1    6    6    0  503 -0.37166822215E+02 -0.36041012625E+02 -0.28450402695E+03  0.28917618957E+03  0.00000000000E+00 0.  1.
<mgrwt>
<rscale>  0 0.14248889E+04</rscale>
<asrwt>0</asrwt>
<pdfrwt beam="1">  1        1 0.37845331E+00 0.14248889E+04</pdfrwt>
<pdfrwt beam="2">  1       -1 0.31744098E-01 0.14248889E+04</pdfrwt>
<totfact> 0.13019242E+01</totfact>
</mgrwt>
</event>
<event>
12    2  0.3561489E-008  0.1719678E+04  0.7818608E-02  0.8750220E-01
          2   -1    0    0  501    0  0.00000000000E+00  0.00000000000E+00  0.20968022855E+04  0.20968022855E+04  0.00000000000E+00 0. -1.
         -2   -1    0    0    0  501 -0.00000000000E+00 -0.00000000000E+00 -0.35259550951E+03  0.35259550951E+03  0.00000000000E+00 0.  1.
         23    2    1    2    0    0 -0.70448104027E+02  0.20846443348E+03  0.14626137323E+04  0.14820003390E+04  0.93089846497E+02 0.  0.
        254    2    1    2    0    0  0.70448104027E+02 -0.20846443348E+03  0.28159304366E+03  0.96739745597E+03  0.89896765247E+03 0.  0.
         23    2    4    4    0    0  0.12280822636E+03 -0.37888576480E+03 -0.19249558112E+03  0.45178048967E+03  0.91732103811E+02 0.  0.
         23    2    4    4    0    0 -0.52360122330E+02  0.17042133132E+03  0.47408862478E+03  0.51561696629E+03  0.96518491495E+02 0.  0.
          4    1    3    3  502    0 -0.65677210561E+02  0.20632787443E+03  0.14603305167E+04  0.14762960089E+04  0.00000000000E+00 0. -1.
         -4    1    3    3    0  502 -0.47708934662E+01  0.21365590528E+01  0.22832156029E+01  0.57043301571E+01  0.00000000000E+00 0.  1.
         11    1    5    5    0    0  0.91521031577E+02 -0.18744781914E+03 -0.60644126640E+02  0.21723373177E+03  0.00000000000E+00 0. -1.
        -11    1    5    5    0    0  0.31287194780E+02 -0.19143794566E+03 -0.13185145448E+03  0.23454675791E+03  0.00000000000E+00 0.  1.
          3    1    6    6  503    0  0.12496445873E+01 -0.93008547697E+01  0.54703735073E+01  0.10862435148E+02  0.00000000000E+00 0. -1.
         -3    1    6    6    0  503 -0.53609766918E+02  0.17972218608E+03  0.46861825128E+03  0.50475453114E+03  0.00000000000E+00 0.  1.
<mgrwt>
<rscale>  0 0.17196780E+04</rscale>
<asrwt>0</asrwt>
<pdfrwt beam="1">  1        2 0.32258496E+00 0.17196780E+04</pdfrwt>
<pdfrwt beam="2">  1       -2 0.54245464E-01 0.17196780E+04</pdfrwt>
<totfact> 0.17939700E+01</totfact>
</mgrwt>
</event>
<event>
12    2  0.3561489E-008  0.3191958E+04  0.7818608E-02  0.8190944E-01
         -1   -1    0    0    0  501 -0.00000000000E+00  0.00000000000E+00  0.13658350058E+04  0.13658350058E+04  0.00000000000E+00 0.  1.
          1   -1    0    0  501    0  0.00000000000E+00 -0.00000000000E+00 -0.18649020531E+04  0.18649020531E+04  0.00000000000E+00 0. -1.
         23    2    1    2    0    0 -0.13314723646E+04  0.43399274227E+03  0.70750334991E+02  0.14050773879E+04  0.89824819834E+02 0.  0.
        254    2    1    2    0    0  0.13314723646E+04 -0.43399274227E+03 -0.56981738223E+03  0.18256596710E+04  0.10233147254E+04 0.  0.
         23    2    4    4    0    0  0.26653507255E+03  0.16660691109E+03  0.19536615269E+03  0.38035086733E+03  0.87749877172E+02 0.  0.
         23    2    4    4    0    0  0.10649372920E+04 -0.60059965336E+03 -0.76518353492E+03  0.14453088036E+04  0.92737890104E+02 0.  0.
          3    1    3    3  502    0 -0.66372501563E+03  0.24003447098E+03 -0.32639635859E+01  0.70580315746E+03  0.00000000000E+00 0. -1.
         -3    1    3    3    0  502 -0.66774734892E+03  0.19395827129E+03  0.74014298577E+02  0.69927423046E+03  0.00000000000E+00 0.  1.
         11    1    5    5    0    0  0.25504678899E+03  0.12844854620E+03  0.18044263838E+03  0.33779792678E+03  0.00000000000E+00 0. -1.
        -11    1    5    5    0    0  0.11488283560E+02  0.38158364886E+02  0.14923514307E+02  0.42552940547E+02  0.00000000000E+00 0.  1.
          1    1    6    6  503    0  0.24208649371E+03 -0.15609451311E+03 -0.22296110048E+03  0.36425680472E+03  0.00000000000E+00 0. -1.
         -1    1    6    6    0  503  0.82285079829E+03 -0.44450514025E+03 -0.54222243444E+03  0.10810519989E+04  0.00000000000E+00 0.  1.
<mgrwt>
<rscale>  0 0.31919577E+04</rscale>
<asrwt>0</asrwt>
<pdfrwt beam="1">  1        1 0.28690801E+00 0.31919577E+04</pdfrwt>
<pdfrwt beam="2">  1       -1 0.21012846E+00 0.31919577E+04</pdfrwt>
<totfact> 0.39539042E-01</totfact>
</mgrwt>
</event>
<event>
12    2  0.3561489E-008  0.1259675E+04  0.7818608E-02  0.9062169E-01
         -1   -1    0    0    0  501 -0.00000000000E+00  0.00000000000E+00  0.57226161983E+03  0.57226161983E+03  0.00000000000E+00 0.  1.
          1   -1    0    0  501    0  0.00000000000E+00 -0.00000000000E+00 -0.69320590144E+03  0.69320590144E+03  0.00000000000E+00 0. -1.
         23    2    1    2    0    0 -0.14391261003E+03  0.13530244273E+03  0.19934122872E+03  0.29609066973E+03  0.94420172099E+02 0.  0.
        254    2    1    2    0    0  0.14391261003E+03 -0.13530244273E+03 -0.32028551032E+03  0.96937685155E+03  0.89335943598E+03 0.  0.
         23    2    4    4    0    0 -0.68457732247E+02 -0.44582584733E+03 -0.35404137018E+03  0.58078044701E+03  0.92268567655E+02 0.  0.
         23    2    4    4    0    0  0.21237034227E+03  0.31052340460E+03  0.33755859865E+02  0.38859640454E+03  0.91333238544E+02 0.  0.
          4    1    3    3  502    0 -0.24728012401E+02  0.17725767545E+02 -0.61418847506E+01  0.31038688449E+02  0.00000000000E+00 0. -1.
         -4    1    3    3    0  502 -0.11918459763E+03  0.11757667519E+03  0.20548311347E+03  0.26505198128E+03  0.00000000000E+00 0.  1.
         11    1    5    5    0    0  0.16568226647E+02 -0.17968174348E+03 -0.12513712451E+03  0.21958901385E+03  0.00000000000E+00 0.  1.
        -11    1    5    5    0    0 -0.85025958893E+02 -0.26614410385E+03 -0.22890424567E+03  0.36119143316E+03  0.00000000000E+00 0. -1.
          3    1    6    6  503    0  0.14806007138E+03  0.14977760925E+03  0.44026300434E+02  0.21515908556E+03  0.00000000000E+00 0. -1.
         -3    1    6    6    0  503  0.64310270896E+02  0.16074579534E+03 -0.10270440568E+02  0.17343731897E+03  0.00000000000E+00 0.  1.
<mgrwt>
<rscale>  0 0.12596748E+04</rscale>
<asrwt>0</asrwt>
<pdfrwt beam="1">  1        1 0.10664706E+00 0.12596748E+04</pdfrwt>
<pdfrwt beam="2">  1       -1 0.88040249E-01 0.12596748E+04</pdfrwt>
<totfact> 0.34568779E+01</totfact>
</mgrwt>
</event>
<event>
12    2  0.3561489E-008  0.2005276E+04  0.7818608E-02  0.8604158E-01
          1   -1    0    0  501    0  0.00000000000E+00  0.00000000000E+00  0.12544148337E+04  0.12544148337E+04  0.00000000000E+00 0. -1.
         -1   -1    0    0    0  501 -0.00000000000E+00 -0.00000000000E+00 -0.80139597191E+03  0.80139597191E+03  0.00000000000E+00 0.  1.
         23    2    1    2    0    0  0.86835203435E+02  0.34419407420E+03  0.89478133358E+03  0.96684747375E+03  0.90280060416E+02 0.  0.
        254    2    1    2    0    0 -0.86835203435E+02 -0.34419407420E+03 -0.44176247178E+03  0.10889633319E+04  0.92988017691E+03 0.  0.
         23    2    4    4    0    0  0.32064549396E+03 -0.21465121196E+02 -0.45102245897E+03  0.56119837520E+03  0.90818905574E+02 0.  0.
         23    2    4    4    0    0 -0.40748069739E+03 -0.32272895301E+03  0.92599871850E+01  0.52776495667E+03  0.90860366900E+02 0.  0.
          2    1    3    3  502    0  0.30885012459E+02  0.23865422709E+03  0.67637859856E+03  0.71791206474E+03  0.00000000000E+00 0. -1.
         -2    1    3    3    0  502  0.55950190976E+02  0.10553984711E+03  0.21840273502E+03  0.24893540901E+03  0.00000000000E+00 0.  1.
         11    1    5    5    0    0  0.32187486521E+03 -0.15879264399E+02 -0.45227317470E+03  0.55534368138E+03  0.00000000000E+00 0. -1.
        -11    1    5    5    0    0 -0.12293712526E+01 -0.55858567967E+01  0.12507157390E+01  0.58546938169E+01  0.00000000000E+00 0.  1.
          1    1    6    6  503    0 -0.39172510317E+03 -0.32023833014E+03 -0.55536548729E+01  0.50599603519E+03  0.00000000000E+00 0. -1.
         -1    1    6    6    0  503 -0.15755594224E+02 -0.24906228664E+01  0.14813642058E+02  0.21768921485E+02  0.00000000000E+00 0.  1.
<mgrwt>
<rscale>  0 0.20052760E+04</rscale>
<asrwt>0</asrwt>
<pdfrwt beam="1">  1        1 0.19298690E+00 0.20052760E+04</pdfrwt>
<pdfrwt beam="2">  1       -1 0.12329169E+00 0.20052760E+04</pdfrwt>
<totfact> 0.52383960E+00</totfact>
</mgrwt>
</event>
<event>
12    2  0.3561489E-008  0.1145159E+04  0.7818608E-02  0.9162261E-01
          2   -1    0    0  501    0  0.00000000000E+00  0.00000000000E+00  0.81793548375E+03  0.81793548375E+03  0.00000000000E+00 0.  1.
         -2   -1    0    0    0  501 -0.00000000000E+00 -0.00000000000E+00 -0.40082271412E+03  0.40082271412E+03  0.00000000000E+00 0. -1.
         23    2    1    2    0    0 -0.11611801576E+03 -0.15602231548E+03  0.10831842357E+03  0.24022204588E+03  0.90262915594E+02 0.  0.
        254    2    1    2    0    0  0.11611801576E+03  0.15602231548E+03  0.30879434607E+03  0.97853615199E+03  0.90793870722E+03 0.  0.
         23    2    4    4    0    0 -0.33781825243E+03 -0.81318135219E+02  0.28540675898E+03  0.45869516721E+03  0.90611409617E+02 0.  0.
         23    2    4    4    0    0  0.45393626819E+03  0.23734045070E+03  0.23387587086E+02  0.51984098478E+03  0.85434449220E+02 0.  0.
          3    1    3    3  502    0 -0.16469554768E+01 -0.51780144173E+02  0.95400440669E+00  0.51815112828E+02  0.00000000000E+00 0. -1.
         -3    1    3    3    0  502 -0.11447106028E+03 -0.10424217130E+03  0.10736441916E+03  0.18840693305E+03  0.00000000000E+00 0.  1.
         11    1    5    5    0    0 -0.34056400567E+03 -0.70386714595E+02  0.27781327498E+03  0.44510487225E+03  0.00000000000E+00 0.  1.
        -11    1    5    5    0    0  0.27457532321E+01 -0.10931420624E+02  0.75934840014E+01  0.13590294955E+02  0.00000000000E+00 0. -1.
          1    1    6    6  503    0  0.21699386970E+02  0.19682549592E+02 -0.17576673177E+02  0.34164390720E+02  0.00000000000E+00 0. -1.
         -1    1    6    6    0  503  0.43223688122E+03  0.21765790110E+03  0.40964260263E+02  0.48567659406E+03  0.00000000000E+00 0.  1.
<mgrwt>
<rscale>  0 0.11451587E+04</rscale>
<asrwt>0</asrwt>
<pdfrwt beam="1">  1        2 0.12583623E+00 0.11451587E+04</pdfrwt>
<pdfrwt beam="2">  1       -2 0.61665033E-01 0.11451587E+04</pdfrwt>
<totfact> 0.80938135E+01</totfact>
</mgrwt>
</event>
<event>
12    2  0.3561489E-008  0.1289443E+04  0.7818608E-02  0.9037979E-01
         -2   -1    0    0    0  501 -0.00000000000E+00  0.00000000000E+00  0.30190488955E+04  0.30190488955E+04  0.00000000000E+00 0.  1.
          2   -1    0    0  501    0  0.00000000000E+00 -0.00000000000E+00 -0.13768107588E+03  0.13768107588E+03  0.00000000000E+00 0. -1.
         23    2    1    2    0    0 -0.15709271101E+03  0.81600117424E+02  0.95280366336E+02  0.22084963408E+03  0.91430375953E+02 0.  0.
        254    2    1    2    0    0  0.15709271101E+03 -0.81600117424E+02  0.27860874533E+04  0.29358803373E+04  0.90872072636E+03 0.  0.
         23    2    4    4    0    0  0.43635074161E+02  0.42534071072E+02 -0.30147186742E+02  0.11314650140E+03  0.90443966143E+02 0.  0.
         23    2    4    4    0    0  0.11345763685E+03 -0.12413418850E+03  0.28162346400E+04  0.28227338359E+04  0.91470369458E+02 0.  0.
          1    1    3    3  502    0 -0.16497923941E+03  0.88698979260E+02  0.83756910436E+02  0.20518498581E+03  0.00000000000E+00 0. -1.
         -1    1    3    3    0  502  0.78865283937E+01 -0.70988618354E+01  0.11523455899E+02  0.15664648267E+02  0.00000000000E+00 0.  1.
         11    1    5    5    0    0  0.44433500272E+02  0.38841248784E+02 -0.59351191780E+02  0.83699118987E+02  0.00000000000E+00 0.  1.
        -11    1    5    5    0    0 -0.79842611138E+00  0.36928222879E+01  0.29204005038E+02  0.29447382413E+02  0.00000000000E+00 0. -1.
          3    1    6    6  503    0  0.46232776468E+01 -0.44190112285E+02  0.35063478259E+03  0.35343866722E+03  0.00000000000E+00 0. -1.
         -3    1    6    6    0  503  0.10883435921E+03 -0.79944076212E+02  0.24655998574E+04  0.24692951687E+04  0.00000000000E+00 0.  1.
<mgrwt>
<rscale>  0 0.12894431E+04</rscale>
<asrwt>0</asrwt>
<pdfrwt beam="1">  1        2 0.21181706E-01 0.12894431E+04</pdfrwt>
<pdfrwt beam="2">  1       -2 0.46446901E+00 0.12894431E+04</pdfrwt>
<totfact> 0.73781656E-01</totfact>
</mgrwt>
</event>
<event>
12    2  0.3561489E-008  0.2135486E+04  0.7818608E-02  0.8545771E-01
         -1   -1    0    0    0  501 -0.00000000000E+00  0.00000000000E+00  0.89430687610E+03  0.89430687610E+03  0.00000000000E+00 0.  1.
          1   -1    0    0  501    0  0.00000000000E+00 -0.00000000000E+00 -0.12748141810E+04  0.12748141810E+04  0.00000000000E+00 0. -1.
         23    2    1    2    0    0 -0.77188044673E+03 -0.33157917494E+03  0.21853820206E+03  0.87274475352E+03  0.90444932051E+02 0.  0.
        254    2    1    2    0    0  0.77188044673E+03  0.33157917494E+03 -0.59904550695E+03  0.12963763036E+04  0.78485146858E+03 0.  0.
         23    2    4    4    0    0  0.69683862516E+02  0.23860812812E+03  0.11178838232E+03  0.28922200672E+03  0.96762840230E+02 0.  0.
         23    2    4    4    0    0  0.70219658422E+03  0.92971046816E+02 -0.71083388927E+03  0.10071542968E+04  0.85739728663E+02 0.  0.
          4    1    3    3  502    0 -0.25646750044E+03 -0.78358176584E+02  0.10114598367E+03  0.28661139655E+03  0.00000000000E+00 0. -1.
         -4    1    3    3    0  502 -0.51541294630E+03 -0.25322099835E+03  0.11739221839E+03  0.58613335697E+03  0.00000000000E+00 0.  1.
         11    1    5    5    0    0  0.41210001166E+02  0.20741439277E+03  0.55098809934E+02  0.21852888455E+03  0.00000000000E+00 0. -1.
        -11    1    5    5    0    0  0.28473861350E+02  0.31193735348E+02  0.56689572388E+02  0.70693122174E+02  0.00000000000E+00 0.  1.
          4    1    6    6  503    0  0.65318727018E+03  0.88418828884E+02 -0.62577892796E+03  0.90888435233E+03  0.00000000000E+00 0. -1.
         -4    1    6    6    0  503  0.49009314033E+02  0.45522179318E+01 -0.85054961308E+02  0.98269944506E+02  0.00000000000E+00 0.  1.
<mgrwt>
<rscale>  0 0.21354860E+04</rscale>
<asrwt>0</asrwt>
<pdfrwt beam="1">  1        1 0.19612526E+00 0.21354860E+04</pdfrwt>
<pdfrwt beam="2">  1       -1 0.13758567E+00 0.21354860E+04</pdfrwt>
<totfact> 0.37926112E+00</totfact>
</mgrwt>
</event>
<event>
12    2  0.3561489E-008  0.1612237E+04  0.7818608E-02  0.8813065E-01
          1   -1    0    0  501    0  0.00000000000E+00  0.00000000000E+00  0.12404057194E+04  0.12404057194E+04  0.00000000000E+00 0. -1.
         -1   -1    0    0    0  501 -0.00000000000E+00 -0.00000000000E+00 -0.52388271211E+03  0.52388271211E+03  0.00000000000E+00 0.  1.
         23    2    1    2    0    0 -0.29695159922E+03  0.25386229211E+03  0.67195186789E+03  0.78270119573E+03  0.92062660233E+02 0.  0.
        254    2    1    2    0    0  0.29695159922E+03 -0.25386229211E+03  0.44571139410E+02  0.98158723579E+03  0.89938901448E+03 0.  0.
         23    2    4    4    0    0  0.27701816296E+03  0.30023120520E+03  0.29640614796E+02  0.41945926059E+03  0.90496773776E+02 0.  0.
         23    2    4    4    0    0  0.19933436262E+02 -0.55409349731E+03  0.14930524614E+02  0.56212797520E+03  0.91367359045E+02 0.  0.
          4    1    3    3  502    0 -0.17799312211E+03  0.20807139276E+03  0.45067053512E+03  0.52733214128E+03  0.00000000000E+00 0. -1.
         -4    1    3    3    0  502 -0.11895847711E+03  0.45790899350E+02  0.22128133277E+03  0.25536905445E+03  0.00000000000E+00 0.  1.
         11    1    5    5    0    0  0.20138196601E+03  0.25040537561E+03  0.53586129894E+02  0.32577449514E+03  0.00000000000E+00 0. -1.
        -11    1    5    5    0    0  0.75636196956E+02  0.49825829588E+02 -0.23945515098E+02  0.93684765450E+02  0.00000000000E+00 0.  1.
          3    1    6    6  503    0  0.42479041239E+02 -0.50967391766E+03  0.21442945404E+02  0.51189038983E+03  0.00000000000E+00 0. -1.
         -3    1    6    6    0  503 -0.22545604978E+02 -0.44419579645E+02 -0.65124207898E+01  0.50237585374E+02  0.00000000000E+00 0.  1.
<mgrwt>
<rscale>  0 0.16122371E+04</rscale>
<asrwt>0</asrwt>
<pdfrwt beam="1">  1        1 0.19083165E+00 0.16122371E+04</pdfrwt>
<pdfrwt beam="2">  1       -1 0.80597341E-01 0.16122371E+04</pdfrwt>
<totfact> 0.14696454E+01</totfact>
</mgrwt>
</event>
<event>
12    2  0.3561489E-008  0.1514109E+04  0.7818608E-02  0.8875124E-01
          1   -1    0    0  501    0  0.00000000000E+00  0.00000000000E+00  0.15786198639E+04  0.15786198639E+04  0.00000000000E+00 0. -1.
         -1   -1    0    0    0  501 -0.00000000000E+00 -0.00000000000E+00 -0.36305864347E+03  0.36305864347E+03  0.00000000000E+00 0.  1.
         23    2    1    2    0    0  0.24957826866E+03  0.13239252624E+03  0.89934917154E+03  0.94701220063E+03  0.90476972752E+02 0.  0.
        254    2    1    2    0    0 -0.24957826866E+03 -0.13239252624E+03  0.31621204891E+03  0.99466630677E+03  0.89975213739E+03 0.  0.
         23    2    4    4    0    0 -0.27849481618E+03 -0.46436635116E+02  0.60817940979E+03  0.67645534488E+03  0.89408698712E+02 0.  0.
         23    2    4    4    0    0  0.28916547520E+02 -0.85955891126E+02 -0.29196736088E+03  0.31821096188E+03  0.88253580692E+02 0.  0.
          1    1    3    3  502    0  0.22331054376E+03  0.13522089151E+03  0.86584287176E+03  0.90434294769E+03  0.00000000000E+00 0. -1.
         -1    1    3    3    0  502  0.26267724903E+02 -0.28283652697E+01  0.33506299781E+02  0.42669252943E+02  0.00000000000E+00 0.  1.
         11    1    5    5    0    0 -0.20178489369E+03 -0.64438359200E+02  0.37995095674E+03  0.43500824704E+03  0.00000000000E+00 0.  1.
        -11    1    5    5    0    0 -0.76709922492E+02  0.18001724084E+02  0.22822845305E+03  0.24144709785E+03  0.00000000000E+00 0. -1.
          1    1    6    6  503    0 -0.25496589482E+02 -0.45478055587E+02 -0.17911440615E+03  0.18654838542E+03  0.00000000000E+00 0. -1.
         -1    1    6    6    0  503  0.54413137002E+02 -0.40477835540E+02 -0.11285295473E+03  0.13166257646E+03  0.00000000000E+00 0.  1.
<mgrwt>
<rscale>  0 0.15141091E+04</rscale>
<asrwt>0</asrwt>
<pdfrwt beam="1">  1        1 0.24286459E+00 0.15141091E+04</pdfrwt>
<pdfrwt beam="2">  1       -1 0.55855177E-01 0.15141091E+04</pdfrwt>
<totfact> 0.18082845E+01</totfact>
</mgrwt>
</event>
<event>
12    2  0.3561489E-008  0.1150790E+04  0.7818608E-02  0.9157055E-01
          1   -1    0    0  501    0  0.00000000000E+00  0.00000000000E+00  0.13592542591E+04  0.13592542591E+04  0.00000000000E+00 0. -1.
         -1   -1    0    0    0  501 -0.00000000000E+00 -0.00000000000E+00 -0.24357409402E+03  0.24357409402E+03  0.00000000000E+00 0.  1.
         23    2    1    2    0    0  0.38899437942E+02  0.16072457556E+03  0.42323310231E+02  0.19381387977E+03  0.91798703386E+02 0.  0.
        254    2    1    2    0    0 -0.38899437942E+02 -0.16072457556E+03  0.10733568549E+04  0.14090144733E+04  0.89770891317E+03 0.  0.
         23    2    4    4    0    0 -0.41213982313E+03  0.36574851166E+02  0.28775773751E+03  0.51219310965E+03  0.91325311560E+02 0.  0.
         23    2    4    4    0    0  0.37324038518E+03 -0.19729942672E+03  0.78559911735E+03  0.89682136370E+03  0.94271609161E+02 0.  0.
          2    1    3    3  502    0  0.44522971168E+02  0.10798587243E+03  0.67713057759E+02  0.13501222832E+03  0.00000000000E+00 0. -1.
         -2    1    3    3    0  502 -0.56235332260E+01  0.52738703129E+02 -0.25389747528E+02  0.58801651450E+02  0.00000000000E+00 0.  1.
         11    1    5    5    0    0 -0.22176987039E+03  0.65111428822E+02  0.16227528580E+03  0.28240864356E+03  0.00000000000E+00 0. -1.
        -11    1    5    5    0    0 -0.19036995273E+03 -0.28536577656E+02  0.12548245171E+03  0.22978446609E+03  0.00000000000E+00 0.  1.
          1    1    6    6  503    0  0.11620233622E+03 -0.19966329190E+02  0.25939088217E+03  0.28493028445E+03  0.00000000000E+00 0. -1.
         -1    1    6    6    0  503  0.25703804896E+03 -0.17733309753E+03  0.52620823518E+03  0.61189107925E+03  0.00000000000E+00 0.  1.
<mgrwt>
<rscale>  0 0.11507895E+04</rscale>
<asrwt>0</asrwt>
<pdfrwt beam="1">  1        1 0.20911604E+00 0.11507895E+04</pdfrwt>
<pdfrwt beam="2">  1       -1 0.37472938E-01 0.11507895E+04</pdfrwt>
<totfact> 0.55899077E+01</totfact>
</mgrwt>
</event>
<event>
12    2  0.3561489E-008  0.1290597E+04  0.7818608E-02  0.9037055E-01
          1   -1    0    0  501    0  0.00000000000E+00  0.00000000000E+00  0.35058433713E+03  0.35058433713E+03  0.00000000000E+00 0. -1.
         -1   -1    0    0    0  501 -0.00000000000E+00 -0.00000000000E+00 -0.11877599251E+04  0.11877599251E+04  0.00000000000E+00 0.  1.
         23    2    1    2    0    0  0.21460814219E+03 -0.24683011384E+03 -0.18241786956E+03  0.38699210044E+03  0.97492804232E+02 0.  0.
        254    2    1    2    0    0 -0.21460814219E+03  0.24683011384E+03 -0.65475771837E+03  0.11513521617E+04  0.88877577081E+03 0.  0.
         23    2    4    4    0    0 -0.10087752073E+02  0.12763341339E+03  0.20282499406E+03  0.25683418909E+03  0.91835567817E+02 0.  0.
         23    2    4    4    0    0 -0.20452039012E+03  0.11919670045E+03 -0.85758271242E+03  0.89451797265E+03  0.93154985748E+02 0.  0.
          1    1    3    3  502    0  0.78476335183E+02 -0.56045373237E+02 -0.11929096232E+02  0.97169554809E+02  0.00000000000E+00 0. -1.
         -1    1    3    3    0  502  0.13613180701E+03 -0.19078474060E+03 -0.17048877333E+03  0.28982254563E+03  0.00000000000E+00 0.  1.
         11    1    5    5    0    0  0.94694106841E+01  0.53326884344E+02  0.18664136078E+02  0.57286789996E+02  0.00000000000E+00 0.  1.
        -11    1    5    5    0    0 -0.19557162757E+02  0.74306529049E+02  0.18416085798E+03  0.19954739909E+03  0.00000000000E+00 0. -1.
          2    1    6    6  503    0 -0.14555741317E+03  0.65130372033E+02 -0.41147786906E+03  0.44129690982E+03  0.00000000000E+00 0. -1.
         -2    1    6    6    0  503 -0.58962976949E+02  0.54066328412E+02 -0.44610484336E+03  0.45322106282E+03  0.00000000000E+00 0.  1.
<mgrwt>
<rscale>  0 0.12905968E+04</rscale>
<asrwt>0</asrwt>
<pdfrwt beam="1">  1        1 0.53936052E-01 0.12905968E+04</pdfrwt>
<pdfrwt beam="2">  1       -1 0.18273230E+00 0.12905968E+04</pdfrwt>
<totfact> 0.13976812E+01</totfact>
</mgrwt>
</event>
<event>
12    2  0.3561489E-008  0.2232910E+04  0.7818608E-02  0.8504854E-01
          2   -1    0    0  501    0  0.00000000000E+00  0.00000000000E+00  0.75511475122E+03  0.75511475122E+03  0.00000000000E+00 0. -1.
         -2   -1    0    0    0  501 -0.00000000000E+00 -0.00000000000E+00 -0.16507055776E+04  0.16507055776E+04  0.00000000000E+00 0.  1.
         23    2    1    2    0    0 -0.33874141305E+03 -0.56710330085E+02  0.55786613682E+03  0.66158147419E+03  0.92269246948E+02 0.  0.
        254    2    1    2    0    0  0.33874141305E+03  0.56710330085E+02 -0.14534569632E+04  0.17442388546E+04  0.90103841853E+03 0.  0.
         23    2    4    4    0    0  0.56978868942E+02  0.32036435880E+03 -0.12924269430E+03  0.36200117211E+03  0.91985111209E+02 0.  0.
         23    2    4    4    0    0  0.28176254410E+03 -0.26365402872E+03 -0.13242142689E+04  0.13822376825E+04  0.90188707081E+02 0.  0.
          4    1    3    3  502    0 -0.19745114504E+03 -0.77418131735E+02  0.35419444805E+03  0.41283680653E+03  0.00000000000E+00 0. -1.
         -4    1    3    3    0  502 -0.14129026800E+03  0.20707801650E+02  0.20367168878E+03  0.24874466766E+03  0.00000000000E+00 0.  1.
         11    1    5    5    0    0  0.43727006804E+02  0.31183181673E+03 -0.13819660799E+03  0.34387415651E+03  0.00000000000E+00 0. -1.
        -11    1    5    5    0    0  0.13251862138E+02  0.85325420675E+01  0.89539136965E+01  0.18127015605E+02  0.00000000000E+00 0.  1.
          3    1    6    6  503    0  0.27076554460E+03 -0.26941116841E+03 -0.12521664868E+04  0.13091284385E+04  0.00000000000E+00 0. -1.
         -3    1    6    6    0  503  0.10996999509E+02  0.57571396952E+01 -0.72047782146E+02  0.73109244065E+02  0.00000000000E+00 0.  1.
<mgrwt>
<rscale>  0 0.22329103E+04</rscale>
<asrwt>0</asrwt>
<pdfrwt beam="1">  1        2 0.11617150E+00 0.22329103E+04</pdfrwt>
<pdfrwt beam="2">  1       -2 0.25395470E+00 0.22329103E+04</pdfrwt>
<totfact> 0.20585170E+00</totfact>
</mgrwt>
</event>
<event>
12    2  0.3561489E-008  0.1229292E+04  0.7818608E-02  0.9087596E-01
         -2   -1    0    0    0  501 -0.00000000000E+00  0.00000000000E+00  0.13351067621E+04  0.13351067621E+04  0.00000000000E+00 0.  1.
          2   -1    0    0  501    0  0.00000000000E+00 -0.00000000000E+00 -0.28296604693E+03  0.28296604693E+03  0.00000000000E+00 0. -1.
         23    2    1    2    0    0 -0.27321192237E+03 -0.28715788440E+02  0.31816054709E+03  0.42946350169E+03  0.87996673404E+02 0.  0.
        254    2    1    2    0    0  0.27321192237E+03  0.28715788440E+02  0.73398016804E+03  0.11886093073E+04  0.89364190104E+03 0.  0.
         23    2    4    4    0    0 -0.11635164501E+03  0.90994934012E+02 -0.14126746309E+03  0.22461467349E+03  0.93152950068E+02 0.  0.
         23    2    4    4    0    0  0.38956356738E+03 -0.62279145571E+02  0.87524763113E+03  0.96399463381E+03  0.87113565034E+02 0.  0.
          1    1    3    3  502    0 -0.46635129570E+02 -0.29639925238E+02  0.29946298637E+02  0.62850149404E+02  0.00000000000E+00 0. -1.
         -1    1    3    3    0  502 -0.22657679280E+03  0.92413679755E+00  0.28821424845E+03  0.36661335228E+03  0.00000000000E+00 0.  1.
         11    1    5    5    0    0 -0.59568924974E+02  0.27610331372E+02 -0.75151453585E+01  0.66085283012E+02  0.00000000000E+00 0.  1.
        -11    1    5    5    0    0 -0.56782720038E+02  0.63384602640E+02 -0.13375231773E+03  0.15852939048E+03  0.00000000000E+00 0. -1.
          1    1    6    6  503    0  0.19292905620E+03  0.36104330597E+01  0.48693440951E+03  0.52377454607E+03  0.00000000000E+00 0. -1.
         -1    1    6    6    0  503  0.19663451118E+03 -0.65889578631E+02  0.38831322163E+03  0.44022008774E+03  0.00000000000E+00 0.  1.
<mgrwt>
<rscale>  0 0.12292923E+04</rscale>
<asrwt>0</asrwt>
<pdfrwt beam="1">  1        2 0.43533239E-01 0.12292923E+04</pdfrwt>
<pdfrwt beam="2">  1       -2 0.20540104E+00 0.12292923E+04</pdfrwt>
<totfact> 0.14146336E+01</totfact>
</mgrwt>
</event>
<event>
12    2  0.3561489E-008  0.2203688E+04  0.7818608E-02  0.8516895E-01
          2   -1    0    0  501    0  0.00000000000E+00  0.00000000000E+00  0.68820570717E+03  0.68820570717E+03  0.00000000000E+00 0. -1.
         -2   -1    0    0    0  501 -0.00000000000E+00 -0.00000000000E+00 -0.17640948874E+04  0.17640948874E+04  0.00000000000E+00 0.  1.
         23    2    1    2    0    0 -0.14305224637E+03  0.85053972916E+03 -0.12679274727E+03  0.87694445238E+03  0.95254373814E+02 0.  0.
        254    2    1    2    0    0  0.14305224637E+03 -0.85053972916E+03 -0.94909643295E+03  0.15753561422E+04  0.91492139531E+03 0.  0.
         23    2    4    4    0    0  0.27500665995E+03  0.86683735397E+02 -0.17872242181E+03  0.35156708374E+03  0.92276634713E+02 0.  0.
         23    2    4    4    0    0 -0.13195441358E+03 -0.93722346456E+03 -0.77037401114E+03  0.12237890584E+04  0.91562834905E+02 0.  0.
          3    1    3    3  502    0 -0.12423651127E+03  0.75729631088E+03 -0.14248845802E+03  0.78053531238E+03  0.00000000000E+00 0. -1.
         -3    1    3    3    0  502 -0.18815735100E+02  0.93243418278E+02  0.15695710745E+02  0.96409139999E+02  0.00000000000E+00 0.  1.
         11    1    5    5    0    0  0.10189278595E+03  0.76227953272E+02 -0.96103872046E+02  0.15946408659E+03  0.00000000000E+00 0.  1.
        -11    1    5    5    0    0  0.17311387400E+03  0.10455782125E+02 -0.82618549760E+02  0.19210299715E+03  0.00000000000E+00 0. -1.
          1    1    6    6  503    0 -0.41315353434E+02 -0.33114294986E+03 -0.32855949400E+03  0.46830967614E+03  0.00000000000E+00 0. -1.
         -1    1    6    6    0  503 -0.90639060143E+02 -0.60608051470E+03 -0.44181451715E+03  0.75547938230E+03  0.00000000000E+00 0.  1.
<mgrwt>
<rscale>  0 0.22036880E+04</rscale>
<asrwt>0</asrwt>
<pdfrwt beam="1">  1        2 0.10587780E+00 0.22036880E+04</pdfrwt>
<pdfrwt beam="2">  1       -2 0.27139921E+00 0.22036880E+04</pdfrwt>
<totfact> 0.18180049E+00</totfact>
</mgrwt>
</event>
<event>
12    2  0.3561489E-008  0.1623216E+04  0.7818608E-02  0.8806411E-01
         -2   -1    0    0    0  501 -0.00000000000E+00  0.00000000000E+00  0.20283339705E+03  0.20283339705E+03  0.00000000000E+00 0.  1.
          2   -1    0    0  501    0  0.00000000000E+00 -0.00000000000E+00 -0.32475307200E+04  0.32475307200E+04  0.00000000000E+00 0. -1.
         23    2    1    2    0    0  0.50939395993E+03 -0.11903986950E+03 -0.65385174291E+03  0.84241237493E+03  0.92107604446E+02 0.  0.
        254    2    1    2    0    0 -0.50939395993E+03  0.11903986950E+03 -0.23908455801E+04  0.26079517422E+04  0.90089788801E+03 0.  0.
         23    2    4    4    0    0 -0.53165561151E+03 -0.17564566916E+03 -0.76039521538E+03  0.94844854076E+03  0.88570088360E+02 0.  0.
         23    2    4    4    0    0  0.22261651580E+02  0.29468553866E+03 -0.16304503647E+04  0.16595032014E+04  0.90814843637E+02 0.  0.
          2    1    3    3  502    0  0.22265605400E+03 -0.66606958519E+02 -0.36006319342E+03  0.42855304055E+03  0.00000000000E+00 0. -1.
         -2    1    3    3    0  502  0.28673790593E+03 -0.52432910982E+02 -0.29378854949E+03  0.41385933439E+03  0.00000000000E+00 0.  1.
         11    1    5    5    0    0 -0.26395199588E+02 -0.73465996453E+01 -0.11996299650E+02  0.29909702321E+02  0.00000000000E+00 0. -1.
        -11    1    5    5    0    0 -0.50526041192E+03 -0.16829906952E+03 -0.74839891573E+03  0.91853883844E+03  0.00000000000E+00 0.  1.
          4    1    6    6  503    0 -0.29586417845E+02  0.44627947637E+02 -0.25850089354E+03  0.26398810919E+03  0.00000000000E+00 0. -1.
         -4    1    6    6    0  503  0.51848069425E+02  0.25005759103E+03 -0.13719494712E+04  0.13955150922E+04  0.00000000000E+00 0.  1.
<mgrwt>
<rscale>  0 0.16232162E+04</rscale>
<asrwt>0</asrwt>
<pdfrwt beam="1">  1        2 0.49962010E+00 0.16232162E+04</pdfrwt>
<pdfrwt beam="2">  1       -2 0.31205139E-01 0.16232162E+04</pdfrwt>
<totfact> 0.11094693E+01</totfact>
</mgrwt>
</event>
<event>
12    2  0.3561489E-008  0.1938513E+04  0.7818608E-02  0.8635920E-01
         -2   -1    0    0    0  501 -0.00000000000E+00  0.00000000000E+00  0.67137163727E+03  0.67137163727E+03  0.00000000000E+00 0.  1.
          2   -1    0    0  501    0  0.00000000000E+00 -0.00000000000E+00 -0.13993121468E+04  0.13993121468E+04  0.00000000000E+00 0. -1.
         23    2    1    2    0    0 -0.72002909536E+03 -0.28314404981E+03 -0.44673060575E+03  0.89840912475E+03  0.94648138979E+02 0.  0.
        254    2    1    2    0    0  0.72002909536E+03  0.28314404981E+03 -0.28120990377E+03  0.11722746593E+04  0.83458757228E+03 0.  0.
         23    2    4    4    0    0 -0.46465925832E+02  0.34658919251E+03 -0.12070729254E+03  0.38144828935E+03  0.93002130860E+02 0.  0.
         23    2    4    4    0    0  0.76649502119E+03 -0.63445142705E+02 -0.16050261123E+03  0.79082636997E+03  0.90029748366E+02 0.  0.
          1    1    3    3  502    0 -0.68730823371E+03 -0.26770353480E+03 -0.39928114210E+03  0.83873906616E+03  0.00000000000E+00 0. -1.
         -1    1    3    3    0  502 -0.32720861648E+02 -0.15440515011E+02 -0.47449463656E+02  0.59670058589E+02  0.00000000000E+00 0.  1.
         11    1    5    5    0    0 -0.69665975244E+02  0.29542842607E+03 -0.11648168839E+03  0.32511426725E+03  0.00000000000E+00 0.  1.
        -11    1    5    5    0    0  0.23200049412E+02  0.51160766441E+02 -0.42256041480E+01  0.56334022100E+02  0.00000000000E+00 0. -1.
          3    1    6    6  503    0  0.18380052759E+03  0.13017997103E+02 -0.65217023056E+02  0.19546192030E+03  0.00000000000E+00 0. -1.
         -3    1    6    6    0  503  0.58269449360E+03 -0.76463139808E+02 -0.95285588178E+02  0.59536444967E+03  0.00000000000E+00 0.  1.
<mgrwt>
<rscale>  0 0.19385133E+04</rscale>
<asrwt>0</asrwt>
<pdfrwt beam="1">  1        2 0.21527879E+00 0.19385133E+04</pdfrwt>
<pdfrwt beam="2">  1       -2 0.10328795E+00 0.19385133E+04</pdfrwt>
<totfact> 0.10342002E+01</totfact>
</mgrwt>
</event>
<event>
12    2  0.3561489E-008  0.3641384E+04  0.7818608E-02  0.8081077E-01
          2   -1    0    0  501    0  0.00000000000E+00  0.00000000000E+00  0.16601672541E+04  0.16601672541E+04  0.00000000000E+00 0. -1.
         -2   -1    0    0    0  501 -0.00000000000E+00 -0.00000000000E+00 -0.19967382560E+04  0.19967382560E+04  0.00000000000E+00 0.  1.
         23    2    1    2    0    0  0.16796792172E+03 -0.13809637321E+03 -0.18580262796E+04  0.18729836490E+04  0.92316102948E+02 0.  0.
        254    2    1    2    0    0 -0.16796792172E+03  0.13809637321E+03  0.15214552777E+04  0.17839218611E+04  0.90568604560E+03 0.  0.
         23    2    4    4    0    0 -0.35645504719E+03 -0.84106316124E+02  0.14088037624E+04  0.14584255433E+04  0.90238302512E+02 0.  0.
         23    2    4    4    0    0  0.18848712546E+03  0.22220268933E+03  0.11265151533E+03  0.32549631778E+03  0.91411472863E+02 0.  0.
          2    1    3    3  502    0  0.11683649398E+03 -0.39221207666E+02 -0.10867976279E+04  0.10937632986E+04  0.00000000000E+00 0. -1.
         -2    1    3    3    0  502  0.51131427748E+02 -0.98875165545E+02 -0.77122865171E+03  0.77922035040E+03  0.00000000000E+00 0.  1.
         11    1    5    5    0    0 -0.26669673421E+03 -0.29169992604E+02  0.10974758469E+04  0.11297925788E+04  0.00000000000E+00 0. -1.
        -11    1    5    5    0    0 -0.89758312977E+02 -0.54936323520E+02  0.31132791549E+03  0.32863296450E+03  0.00000000000E+00 0.  1.
          1    1    6    6  503    0  0.12105824316E+03  0.19277670174E+03  0.61196709041E+02  0.23571803531E+03  0.00000000000E+00 0. -1.
         -1    1    6    6    0  503  0.67428882301E+02  0.29425987595E+02  0.51454806288E+02  0.89778282477E+02  0.00000000000E+00 0.  1.
<mgrwt>
<rscale>  0 0.36413841E+04</rscale>
<asrwt>0</asrwt>
<pdfrwt beam="1">  1        2 0.25541035E+00 0.36413841E+04</pdfrwt>
<pdfrwt beam="2">  1       -2 0.30719050E+00 0.36413841E+04</pdfrwt>
<totfact> 0.24070853E-01</totfact>
</mgrwt>
</event>
<event>
12    2  0.3561489E-008  0.1586044E+04  0.7818608E-02  0.8829168E-01
          1   -1    0    0  501    0  0.00000000000E+00  0.00000000000E+00  0.41725276383E+04  0.41725276383E+04  0.00000000000E+00 0. -1.
         -1   -1    0    0    0  501 -0.00000000000E+00 -0.00000000000E+00 -0.15072014719E+03  0.15072014719E+03  0.00000000000E+00 0.  1.
         23    2    1    2    0    0  0.16163103037E+03  0.94239060211E+02  0.14146875127E+02  0.20771976962E+03  0.89116654819E+02 0.  0.
        254    2    1    2    0    0 -0.16163103037E+03 -0.94239060211E+02  0.40076606160E+04  0.41155280159E+04  0.91718135947E+03 0.  0.
         23    2    4    4    0    0 -0.38682853634E+03 -0.38594586095E+03  0.22450055596E+04  0.23123736654E+04  0.91823101832E+02 0.  0.
         23    2    4    4    0    0  0.22519750598E+03  0.29170680074E+03  0.17626550564E+04  0.18031543505E+04  0.92768471485E+02 0.  0.
          1    1    3    3  502    0 -0.58278802086E+01  0.25327902547E+02 -0.95789500697E+00  0.26007391218E+02  0.00000000000E+00 0. -1.
         -1    1    3    3    0  502  0.16745891058E+03  0.68911157664E+02  0.15104770134E+02  0.18171237840E+03  0.00000000000E+00 0.  1.
         11    1    5    5    0    0 -0.14725343491E+03 -0.18688573896E+03  0.82604693180E+03  0.85962979652E+03  0.00000000000E+00 0. -1.
        -11    1    5    5    0    0 -0.23957510143E+03 -0.19906012199E+03  0.14189586278E+04  0.14527438689E+04  0.00000000000E+00 0.  1.
          2    1    6    6  503    0  0.12032141184E+03  0.22269843988E+03  0.12476596956E+04  0.12730775912E+04  0.00000000000E+00 0. -1.
         -2    1    6    6    0  503  0.10487609413E+03  0.69008360859E+02  0.51499536086E+03  0.53007675925E+03  0.00000000000E+00 0.  1.
<mgrwt>
<rscale>  0 0.15860441E+04</rscale>
<asrwt>0</asrwt>
<pdfrwt beam="1">  1        1 0.64192724E+00 0.15860441E+04</pdfrwt>
<pdfrwt beam="2">  1       -1 0.23187718E-01 0.15860441E+04</pdfrwt>
<totfact> 0.10468483E+00</totfact>
</mgrwt>
</event>
<event>
12    2  0.3561489E-008  0.1974953E+04  0.7818608E-02  0.8618421E-01
         -2   -1    0    0    0  501 -0.00000000000E+00  0.00000000000E+00  0.48841171021E+03  0.48841171021E+03  0.00000000000E+00 0.  1.
          2   -1    0    0  501    0  0.00000000000E+00 -0.00000000000E+00 -0.19964915571E+04  0.19964915571E+04  0.00000000000E+00 0. -1.
         23    2    1    2    0    0 -0.59492522844E+03 -0.32555923497E+03 -0.10861615607E+04  0.12836993898E+04  0.90621986917E+02 0.  0.
        254    2    1    2    0    0  0.59492522844E+03  0.32555923497E+03 -0.42191828623E+03  0.12012038776E+04  0.89719054403E+03 0.  0.
         23    2    4    4    0    0  0.15305035978E+03 -0.11056073276E+03 -0.52448657420E+03  0.56438892729E+03  0.88321042103E+02 0.  0.
         23    2    4    4    0    0  0.44187486866E+03  0.43611996773E+03  0.10256828797E+03  0.63681495027E+03  0.97770145643E+02 0.  0.
          3    1    3    3  502    0 -0.59788602084E+03 -0.32312148686E+03 -0.10836005540E+04  0.12790877022E+04  0.00000000000E+00 0. -1.
         -3    1    3    3    0  502  0.29607923991E+01 -0.24377481117E+01 -0.25610066761E+01  0.46116876175E+01  0.00000000000E+00 0.  1.
         11    1    5    5    0    0  0.14316790557E+03 -0.12559299503E+03 -0.47809055672E+03  0.51462727290E+03  0.00000000000E+00 0. -1.
        -11    1    5    5    0    0  0.98824542112E+01  0.15032262269E+02 -0.46396017477E+02  0.49761654393E+02  0.00000000000E+00 0.  1.
          4    1    6    6  503    0  0.10463084533E+03  0.11744918645E+03 -0.15451406222E+02  0.15805274799E+03  0.00000000000E+00 0.  1.
         -4    1    6    6    0  503  0.33724402332E+03  0.31867078128E+03  0.11801969419E+03  0.47876220227E+03  0.00000000000E+00 0. -1.
<mgrwt>
<rscale>  0 0.19749530E+04</rscale>
<asrwt>0</asrwt>
<pdfrwt beam="1">  1        2 0.30715255E+00 0.19749530E+04</pdfrwt>
<pdfrwt beam="2">  1       -2 0.75140263E-01 0.19749530E+04</pdfrwt>
<totfact> 0.99345317E+00</totfact>
</mgrwt>
</event>
<event>
12    2  0.3561489E-008  0.2325865E+04  0.7818608E-02  0.8467792E-01
          2   -1    0    0  501    0  0.00000000000E+00  0.00000000000E+00  0.11881966791E+04  0.11881966791E+04  0.00000000000E+00 0. -1.
         -2   -1    0    0    0  501 -0.00000000000E+00 -0.00000000000E+00 -0.11382050339E+04  0.11382050339E+04  0.00000000000E+00 0.  1.
         23    2    1    2    0    0  0.63878397399E+03  0.75292076703E+03  0.29741879393E+02  0.99203724353E+03  0.91206722914E+02 0.  0.
        254    2    1    2    0    0 -0.63878397399E+03 -0.75292076703E+03  0.20249765823E+02  0.13343644694E+04  0.89732036496E+03 0.  0.
         23    2    4    4    0    0 -0.65308451096E+03 -0.79429919425E+03 -0.23558846635E+03  0.10588724367E+04  0.90985291829E+02 0.  0.
         23    2    4    4    0    0  0.14300536967E+02  0.41378427220E+02  0.25583823217E+03  0.27549203270E+03  0.92336230386E+02 0.  0.
          3    1    3    3  502    0  0.26227106524E+03  0.28721164037E+03 -0.30536535774E+02  0.39013986984E+03  0.00000000000E+00 0. -1.
         -3    1    3    3    0  502  0.37651290875E+03  0.46570912667E+03  0.60278415168E+02  0.60189737369E+03  0.00000000000E+00 0.  1.
         11    1    5    5    0    0 -0.32418023867E+03 -0.45902851023E+03 -0.14782739175E+03  0.58107911518E+03  0.00000000000E+00 0.  1.
        -11    1    5    5    0    0 -0.32890427229E+03 -0.33527068402E+03 -0.87761074600E+02  0.47779332154E+03  0.00000000000E+00 0. -1.
          4    1    6    6  503    0  0.12187823431E+02 -0.27770765644E+02  0.51570297323E+02  0.59826867129E+02  0.00000000000E+00 0. -1.
         -4    1    6    6    0  503  0.21127135367E+01  0.69149192864E+02  0.20426793485E+03  0.21566516557E+03  0.00000000000E+00 0.  1.
<mgrwt>
<rscale>  0 0.23258645E+04</rscale>
<asrwt>0</asrwt>
<pdfrwt beam="1">  1        2 0.18279949E+00 0.23258645E+04</pdfrwt>
<pdfrwt beam="2">  1       -2 0.17510847E+00 0.23258645E+04</pdfrwt>
<totfact> 0.34161441E+00</totfact>
</mgrwt>
</event>
<event>
12    2  0.3561489E-008  0.2086490E+04  0.7818608E-02  0.8567218E-01
         -1   -1    0    0    0  501 -0.00000000000E+00  0.00000000000E+00  0.66974465321E+03  0.66974465321E+03  0.00000000000E+00 0.  1.
          1   -1    0    0  501    0  0.00000000000E+00 -0.00000000000E+00 -0.16250368630E+04  0.16250368630E+04  0.00000000000E+00 0. -1.
         23    2    1    2    0    0 -0.34459528603E+03  0.74368497051E+03 -0.37144723882E+03  0.90431455818E+03  0.89434458708E+02 0.  0.
        254    2    1    2    0    0  0.34459528603E+03 -0.74368497051E+03 -0.58384497098E+03  0.13904669580E+04  0.95953643221E+03 0.  0.
         23    2    4    4    0    0  0.33065627630E+03 -0.15154444903E+03  0.18307884740E+03  0.41706490763E+03  0.90144216238E+02 0.  0.
         23    2    4    4    0    0  0.13939009732E+02 -0.59214052147E+03 -0.76692381838E+03  0.97340205041E+03  0.92275215423E+02 0.  0.
          1    1    3    3  502    0 -0.32853588908E+03  0.73706057855E+03 -0.36618195802E+03  0.88616214839E+03  0.00000000000E+00 0. -1.
         -1    1    3    3    0  502 -0.16059396952E+02  0.66243919506E+01 -0.52652808092E+01  0.18152409790E+02  0.00000000000E+00 0.  1.
         11    1    5    5    0    0  0.58381915503E+02 -0.68582533029E+02  0.41622167772E+02  0.99219034185E+02  0.00000000000E+00 0.  1.
        -11    1    5    5    0    0  0.27227436079E+03 -0.82961916003E+02  0.14145667963E+03  0.31784587344E+03  0.00000000000E+00 0. -1.
          1    1    6    6  503    0  0.29398875722E+02 -0.40693064919E+03 -0.46256471739E+03  0.61678437474E+03  0.00000000000E+00 0. -1.
         -1    1    6    6    0  503 -0.15459865989E+02 -0.18520987228E+03 -0.30435910099E+03  0.35661767567E+03  0.00000000000E+00 0.  1.
<mgrwt>
<rscale>  0 0.20864896E+04</rscale>
<asrwt>0</asrwt>
<pdfrwt beam="1">  1        1 0.25000567E+00 0.20864896E+04</pdfrwt>
<pdfrwt beam="2">  1       -1 0.10303764E+00 0.20864896E+04</pdfrwt>
<totfact> 0.43927057E+00</totfact>
</mgrwt>
</event>
<event>
12    2  0.3561489E-008  0.1339163E+04  0.7818608E-02  0.8999072E-01
          1   -1    0    0  501    0  0.00000000000E+00  0.00000000000E+00  0.93130468255E+03  0.93130468255E+03  0.00000000000E+00 0. -1.
         -1   -1    0    0    0  501 -0.00000000000E+00 -0.00000000000E+00 -0.48140997619E+03  0.48140997619E+03  0.00000000000E+00 0.  1.
         23    2    1    2    0    0 -0.23429437882E+03  0.27390169912E+03  0.13838170324E+03  0.39634614665E+03  0.89581110976E+02 0.  0.
        254    2    1    2    0    0  0.23429437882E+03 -0.27390169912E+03  0.31151300312E+03  0.10163685121E+04  0.89780209653E+03 0.  0.
         23    2    4    4    0    0  0.16987143111E+03 -0.20017098927E+03 -0.28905128118E+03  0.40092738884E+03  0.90925243552E+02 0.  0.
         23    2    4    4    0    0  0.64422947707E+02 -0.73730709852E+02  0.60056428430E+03  0.61544112326E+03  0.92215957707E+02 0.  0.
          4    1    3    3  502    0 -0.20291227709E+03  0.24081121022E+03  0.85072283059E+02  0.32619123916E+03  0.00000000000E+00 0. -1.
         -4    1    3    3    0  502 -0.31382101731E+02  0.33090488909E+02  0.53309420180E+02  0.70154907492E+02  0.00000000000E+00 0.  1.
         11    1    5    5    0    0  0.25549447514E+02 -0.21894110052E+01 -0.61180345511E+02  0.66337036907E+02  0.00000000000E+00 0. -1.
        -11    1    5    5    0    0  0.14432198360E+03 -0.19798157827E+03 -0.22787093567E+03  0.33459035193E+03  0.00000000000E+00 0.  1.
          1    1    6    6  503    0  0.21537383125E+01 -0.62060682015E+02  0.18671028624E+03  0.19676609929E+03  0.00000000000E+00 0. -1.
         -1    1    6    6    0  503  0.62269209395E+02 -0.11670027838E+02  0.41385399805E+03  0.41867502396E+03  0.00000000000E+00 0.  1.
<mgrwt>
<rscale>  0 0.13391630E+04</rscale>
<asrwt>0</asrwt>
<pdfrwt beam="1">  1        1 0.14327764E+00 0.13391630E+04</pdfrwt>
<pdfrwt beam="2">  1       -1 0.74063073E-01 0.13391630E+04</pdfrwt>
<totfact> 0.30862074E+01</totfact>
</mgrwt>
</event>
<event>
12    2  0.3561489E-008  0.1142976E+04  0.7818608E-02  0.9164288E-01
          2   -1    0    0  501    0  0.00000000000E+00  0.00000000000E+00  0.16259232052E+03  0.16259232052E+03  0.00000000000E+00 0. -1.
         -2   -1    0    0    0  501 -0.00000000000E+00 -0.00000000000E+00 -0.20086942460E+04  0.20086942460E+04  0.00000000000E+00 0.  1.
         23    2    1    2    0    0 -0.17512627894E+03 -0.31213710617E+02 -0.15410662151E+03  0.25204439590E+03  0.90188787595E+02 0.  0.
        254    2    1    2    0    0  0.17512627894E+03  0.31213710617E+02 -0.16919953040E+04  0.19192421706E+04  0.88825609569E+03 0.  0.
         23    2    4    4    0    0  0.40093097260E+03 -0.18219794544E+03 -0.45120369198E+03  0.63712210904E+03  0.91641006377E+02 0.  0.
         23    2    4    4    0    0 -0.22580469366E+03  0.21341165606E+03 -0.12407916120E+04  0.12821200616E+04  0.87953017676E+02 0.  0.
          3    1    3    3  502    0 -0.11753040935E+03 -0.61889093850E+02 -0.11679634601E+03  0.17687578552E+03  0.00000000000E+00 0. -1.
         -3    1    3    3    0  502 -0.57595869586E+02  0.30675383233E+02 -0.37310275497E+02  0.75168610387E+02  0.00000000000E+00 0.  1.
         11    1    5    5    0    0  0.71727171642E-01 -0.10679702318E+02 -0.25975850109E+02  0.28085689867E+02  0.00000000000E+00 0.  1.
        -11    1    5    5    0    0  0.40085924543E+03 -0.17151824312E+03 -0.42522784188E+03  0.60903641917E+03  0.00000000000E+00 0. -1.
          2    1    6    6  503    0  0.79505530845E+00  0.27167214585E+02 -0.68609493209E+02  0.73796695181E+02  0.00000000000E+00 0.  1.
         -2    1    6    6    0  503 -0.22659974897E+03  0.18624444147E+03 -0.11721821188E+04  0.12083233664E+04  0.00000000000E+00 0. -1.
<mgrwt>
<rscale>  0 0.11429755E+04</rscale>
<asrwt>0</asrwt>
<pdfrwt beam="1">  1        2 0.25014203E-01 0.11429755E+04</pdfrwt>
<pdfrwt beam="2">  1       -2 0.30902989E+00 0.11429755E+04</pdfrwt>
<totfact> 0.61421726E+00</totfact>
</mgrwt>
</event>
<event>
12    2  0.3561489E-008  0.1410491E+04  0.7818608E-02  0.8946259E-01
         -1   -1    0    0    0  501 -0.00000000000E+00  0.00000000000E+00  0.34780919086E+03  0.34780919086E+03  0.00000000000E+00 0.  1.
          1   -1    0    0  501    0  0.00000000000E+00 -0.00000000000E+00 -0.14300123963E+04  0.14300123963E+04  0.00000000000E+00 0. -1.
         23    2    1    2    0    0 -0.17858733802E+03  0.14094534867E+03  0.96515571505E+02  0.26524136152E+03  0.96325986656E+02 0.  0.
        254    2    1    2    0    0  0.17858733802E+03 -0.14094534867E+03 -0.11787187770E+04  0.15125802257E+04  0.92019669381E+03 0.  0.
         23    2    4    4    0    0 -0.25532916895E+02 -0.48767340977E+03 -0.42673829804E+03  0.65478143783E+03  0.90309865846E+02 0.  0.
         23    2    4    4    0    0  0.20412025491E+03  0.34672806109E+03 -0.75198047894E+03  0.85779878785E+03  0.91971152678E+02 0.  0.
          2    1    3    3  502    0  0.65310526368E+01  0.33585863720E+01 -0.89888739010E+01  0.11607523636E+02  0.00000000000E+00 0. -1.
         -2    1    3    3    0  502 -0.18511839066E+03  0.13758676230E+03  0.10550444541E+03  0.25363383788E+03  0.00000000000E+00 0.  1.
         11    1    5    5    0    0 -0.12357085973E+00 -0.32607106427E+03 -0.33382381686E+03  0.46664836325E+03  0.00000000000E+00 0.  1.
        -11    1    5    5    0    0 -0.25409346036E+02 -0.16160234549E+03 -0.92914481186E+02  0.18813307457E+03  0.00000000000E+00 0. -1.
          1    1    6    6  503    0  0.13238102522E+03  0.15228363273E+03 -0.42827815153E+03  0.47343132101E+03  0.00000000000E+00 0. -1.
         -1    1    6    6    0  503  0.71739229699E+02  0.19444442837E+03 -0.32370232741E+03  0.38436746685E+03  0.00000000000E+00 0.  1.
<mgrwt>
<rscale>  0 0.14104913E+04</rscale>
<asrwt>0</asrwt>
<pdfrwt beam="1">  1        1 0.22000191E+00 0.14104913E+04</pdfrwt>
<pdfrwt beam="2">  1       -1 0.53509106E-01 0.14104913E+04</pdfrwt>
<totfact> 0.25125632E+01</totfact>
</mgrwt>
</event>
<event>
12    2  0.3561489E-008  0.1719206E+04  0.7818608E-02  0.8750485E-01
          1   -1    0    0  501    0  0.00000000000E+00  0.00000000000E+00  0.15773609284E+04  0.15773609284E+04  0.00000000000E+00 0.  1.
         -1   -1    0    0    0  501 -0.00000000000E+00 -0.00000000000E+00 -0.46845182730E+03  0.46845182730E+03  0.00000000000E+00 0. -1.
         23    2    1    2    0    0 -0.17899518695E+03  0.58177815055E+03  0.25908749862E+03  0.66796956341E+03  0.92476549922E+02 0.  0.
        254    2    1    2    0    0  0.17899518695E+03 -0.58177815055E+03  0.84982160242E+03  0.13778431922E+04  0.89763579088E+03 0.  0.
         23    2    4    4    0    0  0.49922352608E+03 -0.46769078283E+03  0.73228683875E+03  0.10063083068E+04  0.91943443983E+02 0.  0.
         23    2    4    4    0    0 -0.32022833913E+03 -0.11408736772E+03  0.11753476367E+03  0.37153488540E+03  0.93067898566E+02 0.  0.
          2    1    3    3  502    0 -0.22723780385E+02  0.38700499950E+02 -0.31206084190E+01  0.44987076903E+02  0.00000000000E+00 0.  1.
         -2    1    3    3    0  502 -0.15627140657E+03  0.54307765060E+03  0.26220810704E+03  0.62298248651E+03  0.00000000000E+00 0. -1.
         11    1    5    5    0    0  0.49635427971E+03 -0.44482008910E+03  0.69913490273E+03  0.96593068844E+03  0.00000000000E+00 0.  1.
        -11    1    5    5    0    0  0.28692463657E+01 -0.22870693733E+02  0.33151936019E+02  0.40377618409E+02  0.00000000000E+00 0. -1.
          1    1    6    6  503    0 -0.96788650160E+01  0.11124885770E+01 -0.12368211757E+02  0.15744545751E+02  0.00000000000E+00 0. -1.
         -1    1    6    6    0  503 -0.31054947411E+03 -0.11519985630E+03  0.12990297543E+03  0.35579033965E+03  0.00000000000E+00 0.  1.
<mgrwt>
<rscale>  0 0.17192063E+04</rscale>
<asrwt>0</asrwt>
<pdfrwt beam="1">  1        1 0.24267091E+00 0.17192063E+04</pdfrwt>
<pdfrwt beam="2">  1       -1 0.72069513E-01 0.17192063E+04</pdfrwt>
<totfact> 0.10675126E+01</totfact>
</mgrwt>
</event>
<event>
12    2  0.3561489E-008  0.2386436E+04  0.7818608E-02  0.8444599E-01
         -2   -1    0    0    0  501 -0.00000000000E+00  0.00000000000E+00  0.16796663871E+04  0.16796663871E+04  0.00000000000E+00 0.  1.
          2   -1    0    0  501    0  0.00000000000E+00 -0.00000000000E+00 -0.84765014541E+03  0.84765014541E+03  0.00000000000E+00 0. -1.
         23    2    1    2    0    0 -0.57700355473E+03  0.54785190045E+03 -0.28416004883E+03  0.84985335451E+03  0.91809497505E+02 0.  0.
        254    2    1    2    0    0  0.57700355473E+03 -0.54785190045E+03  0.11161762905E+04  0.16774631780E+04  0.96693246663E+03 0.  0.
         23    2    4    4    0    0  0.28428569549E+02 -0.25779739801E+03 -0.11346378765E+03  0.29718086154E+03  0.90414331681E+02 0.  0.
         23    2    4    4    0    0  0.54857498518E+03 -0.29005450244E+03  0.12296400782E+04  0.13802823165E+04  0.89991235837E+02 0.  0.
          1    1    3    3  502    0 -0.38616762257E+03  0.39134957207E+03 -0.23641794772E+03  0.59847586943E+03  0.00000000000E+00 0. -1.
         -1    1    3    3    0  502 -0.19083593216E+03  0.15650232838E+03 -0.47742101110E+02  0.25137748509E+03  0.00000000000E+00 0.  1.
         11    1    5    5    0    0 -0.93076790122E+01 -0.15669974338E+03 -0.10517320316E+03  0.18895196513E+03  0.00000000000E+00 0. -1.
        -11    1    5    5    0    0  0.37736248561E+02 -0.10109765463E+03 -0.82905844833E+01  0.10822889641E+03  0.00000000000E+00 0.  1.
          3    1    6    6  503    0  0.45905200519E+03 -0.20909788890E+03  0.10323768161E+04  0.11490224371E+04  0.00000000000E+00 0. -1.
         -3    1    6    6    0  503  0.89522979983E+02 -0.80956613541E+02  0.19726326206E+03  0.23125987931E+03  0.00000000000E+00 0.  1.
<mgrwt>
<rscale>  0 0.23864362E+04</rscale>
<asrwt>0</asrwt>
<pdfrwt beam="1">  1        2 0.13040772E+00 0.23864362E+04</pdfrwt>
<pdfrwt beam="2">  1       -2 0.25841021E+00 0.23864362E+04</pdfrwt>
<totfact> 0.16362646E+00</totfact>
</mgrwt>
</event>
<event>
12    2  0.3561489E-008  0.1710166E+04  0.7818608E-02  0.8755588E-01
          1   -1    0    0  501    0  0.00000000000E+00  0.00000000000E+00  0.26114969348E+04  0.26114969348E+04  0.00000000000E+00 0. -1.
         -1   -1    0    0    0  501 -0.00000000000E+00 -0.00000000000E+00 -0.27997993336E+03  0.27997993336E+03  0.00000000000E+00 0.  1.
         23    2    1    2    0    0  0.61566284057E+02 -0.50301172740E+03  0.32204809538E+03  0.60723740077E+03  0.90615009391E+02 0.  0.
        254    2    1    2    0    0 -0.61566284057E+02  0.50301172740E+03  0.20094689060E+04  0.22842394673E+04  0.96071507467E+03 0.  0.
         23    2    4    4    0    0 -0.49392158949E+03  0.34609974785E+03  0.10198861901E+04  0.11885239443E+04  0.93154460344E+02 0.  0.
         23    2    4    4    0    0  0.43235530543E+03  0.15691197955E+03  0.98958271596E+03  0.10957155230E+04  0.98823460010E+02 0.  0.
          1    1    3    3  502    0  0.45280778447E+02 -0.12218218469E+03  0.52985997241E+02  0.14066396503E+03  0.00000000000E+00 0. -1.
         -1    1    3    3    0  502  0.16285505610E+02 -0.38082954270E+03  0.26906209814E+03  0.46657343574E+03  0.00000000000E+00 0.  1.
         11    1    5    5    0    0 -0.43212199805E+03  0.26363689615E+03  0.82049841873E+03  0.96408064463E+03  0.00000000000E+00 0.  1.
        -11    1    5    5    0    0 -0.61799591437E+02  0.82462851695E+02  0.19938777134E+03  0.22444329968E+03  0.00000000000E+00 0. -1.
          4    1    6    6  503    0 -0.48270254473E+01 -0.20282165490E+01  0.97479029006E+01  0.11065055264E+02  0.00000000000E+00 0. -1.
         -4    1    6    6    0  503  0.43718233088E+03  0.15894019610E+03  0.97983481306E+03  0.10846504678E+04  0.00000000000E+00 0.  1.
<mgrwt>
<rscale>  0 0.17101658E+04</rscale>
<asrwt>0</asrwt>
<pdfrwt beam="1">  1        1 0.40176874E+00 0.17101658E+04</pdfrwt>
<pdfrwt beam="2">  1       -1 0.43073838E-01 0.17101658E+04</pdfrwt>
<totfact> 0.57330518E+00</totfact>
</mgrwt>
</event>
<event>
12    2  0.3561489E-008  0.1784159E+04  0.7818608E-02  0.8714769E-01
          1   -1    0    0  501    0  0.00000000000E+00  0.00000000000E+00  0.15975127199E+04  0.15975127199E+04  0.00000000000E+00 0. -1.
         -1   -1    0    0    0  501 -0.00000000000E+00 -0.00000000000E+00 -0.49815291041E+03  0.49815291041E+03  0.00000000000E+00 0.  1.
         23    2    1    2    0    0  0.36119198162E+03  0.64909520982E+02  0.10566699687E+04  0.11224659480E+04  0.93303206145E+02 0.  0.
        254    2    1    2    0    0 -0.36119198162E+03 -0.64909520982E+02  0.42689840844E+02  0.97319968232E+03  0.90034565898E+03 0.  0.
         23    2    4    4    0    0  0.16849607132E+02 -0.35514425632E+03 -0.21273250820E+03  0.42510279006E+03  0.95109989053E+02 0.  0.
         23    2    4    4    0    0 -0.37804158875E+03  0.29023473533E+03  0.25542234904E+03  0.54809689226E+03  0.89543187864E+02 0.  0.
          4    1    3    3  502    0  0.29812694265E+03  0.57853831006E+02  0.95947468148E+03  0.10063887937E+04  0.00000000000E+00 0. -1.
         -4    1    3    3    0  502  0.63065038974E+02  0.70556899763E+01  0.97195287174E+02  0.11607715430E+03  0.00000000000E+00 0.  1.
         11    1    5    5    0    0 -0.97906771378E+01 -0.23830954006E+03 -0.93870139256E+02  0.25631796130E+03  0.00000000000E+00 0.  1.
        -11    1    5    5    0    0  0.26640284270E+02 -0.11683471626E+03 -0.11886236894E+03  0.16878482876E+03  0.00000000000E+00 0. -1.
          4    1    6    6  503    0 -0.33777344420E+03  0.27034969493E+03  0.25689046467E+03  0.50316256617E+03  0.00000000000E+00 0. -1.
         -4    1    6    6    0  503 -0.40268144548E+02  0.19885040408E+02 -0.14681156321E+01  0.44934326087E+02  0.00000000000E+00 0.  1.
<mgrwt>
<rscale>  0 0.17841587E+04</rscale>
<asrwt>0</asrwt>
<pdfrwt beam="1">  1        1 0.24577118E+00 0.17841587E+04</pdfrwt>
<pdfrwt beam="2">  1       -1 0.76638910E-01 0.17841587E+04</pdfrwt>
<totfact> 0.90431493E+00</totfact>
</mgrwt>
</event>
<event>
12    2  0.3561489E-008  0.1632157E+04  0.7818608E-02  0.8801033E-01
         -2   -1    0    0    0  501 -0.00000000000E+00  0.00000000000E+00  0.94543528353E+03  0.94543528353E+03  0.00000000000E+00 0. -1.
          2   -1    0    0  501    0  0.00000000000E+00 -0.00000000000E+00 -0.70442081012E+03  0.70442081012E+03  0.00000000000E+00 0.  1.
         23    2    1    2    0    0  0.14767739316E+03  0.52148788137E+03  0.18483267910E+03  0.57978154440E+03  0.90693423700E+02 0.  0.
        254    2    1    2    0    0 -0.14767739316E+03 -0.52148788137E+03  0.56181794309E+02  0.10700745492E+04  0.92094784004E+03 0.  0.
         23    2    4    4    0    0 -0.29194955443E+03 -0.68731852417E+01 -0.29383324079E+03  0.42476726339E+03  0.93848130771E+02 0.  0.
         23    2    4    4    0    0  0.14427216127E+03 -0.51461469613E+03  0.35001503510E+03  0.64530728586E+03  0.90929788246E+02 0.  0.
          3    1    3    3  502    0  0.91991114525E+02  0.25396890250E+03  0.13518146677E+03  0.30205396463E+03  0.00000000000E+00 0. -1.
         -3    1    3    3    0  502  0.55686278630E+02  0.26751897887E+03  0.49651212335E+02  0.27772757977E+03  0.00000000000E+00 0.  1.
         11    1    5    5    0    0 -0.28036687986E+02  0.27211156307E+02 -0.53136136814E+02  0.65954165420E+02  0.00000000000E+00 0.  1.
        -11    1    5    5    0    0 -0.26391286644E+03 -0.34084341549E+02 -0.24069710398E+03  0.35881309797E+03  0.00000000000E+00 0. -1.
          3    1    6    6  503    0  0.13249579322E+03 -0.43466953188E+03  0.33129250465E+03  0.56235883634E+03  0.00000000000E+00 0. -1.
         -3    1    6    6    0  503  0.11776368054E+02 -0.79945164249E+02  0.18722530449E+02  0.82948449520E+02  0.00000000000E+00 0.  1.
<mgrwt>
<rscale>  0 0.16321572E+04</rscale>
<asrwt>0</asrwt>
<pdfrwt beam="1">  1        2 0.10837243E+00 0.16321572E+04</pdfrwt>
<pdfrwt beam="2">  1       -2 0.14545158E+00 0.16321572E+04</pdfrwt>
<totfact> 0.12630520E+01</totfact>
</mgrwt>
</event>
<event>
12    2  0.3561489E-008  0.1669569E+04  0.7818608E-02  0.8778913E-01
          1   -1    0    0  501    0  0.00000000000E+00  0.00000000000E+00  0.13807430823E+04  0.13807430823E+04  0.00000000000E+00 0. -1.
         -1   -1    0    0    0  501 -0.00000000000E+00 -0.00000000000E+00 -0.50470277417E+03  0.50470277417E+03  0.00000000000E+00 0.  1.
         23    2    1    2    0    0  0.34547003039E+02  0.53960164346E+03  0.59657213931E+03  0.81000545616E+03  0.88583816615E+02 0.  0.
        254    2    1    2    0    0 -0.34547003039E+02 -0.53960164346E+03  0.27946816880E+03  0.10754404003E+04  0.88662628438E+03 0.  0.
         23    2    4    4    0    0 -0.16481913372E+03 -0.21876275300E+03 -0.28544936219E+03  0.40531520283E+03  0.88184955257E+02 0.  0.
         23    2    4    4    0    0  0.13027213068E+03 -0.32083889046E+03  0.56491753098E+03  0.67012519745E+03  0.10013761422E+03 0.  0.
          1    1    3    3  502    0  0.25562481055E+01  0.35100282244E+03  0.43964324640E+03  0.56257950537E+03  0.00000000000E+00 0. -1.
         -1    1    3    3    0  502  0.31990754933E+02  0.18859882102E+03  0.15692889291E+03  0.24742595078E+03  0.00000000000E+00 0.  1.
         11    1    5    5    0    0 -0.13427790816E+03 -0.14369610959E+03 -0.24666117153E+03  0.31546927278E+03  0.00000000000E+00 0.  1.
        -11    1    5    5    0    0 -0.30541225564E+02 -0.75066643415E+02 -0.38788190661E+02  0.89845930054E+02  0.00000000000E+00 0. -1.
          1    1    6    6  503    0  0.70021295342E+02 -0.66475280620E+02  0.11905231506E+03  0.15328208785E+03  0.00000000000E+00 0. -1.
         -1    1    6    6    0  503  0.60250835340E+02 -0.25436360984E+03  0.44586521592E+03  0.51684310959E+03  0.00000000000E+00 0.  1.
<mgrwt>
<rscale>  0 0.16695686E+04</rscale>
<asrwt>0</asrwt>
<pdfrwt beam="1">  1        1 0.21242201E+00 0.16695686E+04</pdfrwt>
<pdfrwt beam="2">  1       -1 0.77646581E-01 0.16695686E+04</pdfrwt>
<totfact> 0.12568609E+01</totfact>
</mgrwt>
</event>
<event>
12    2  0.3561489E-008  0.1422614E+04  0.7818608E-02  0.8937610E-01
          2   -1    0    0  501    0  0.00000000000E+00  0.00000000000E+00  0.24206688644E+04  0.24206688644E+04  0.00000000000E+00 0. -1.
         -2   -1    0    0    0  501 -0.00000000000E+00 -0.00000000000E+00 -0.20901555706E+03  0.20901555706E+03  0.00000000000E+00 0.  1.
         23    2    1    2    0    0 -0.22616766197E+03 -0.75774042687E+02  0.13611496394E+04  0.13849385081E+04  0.91830352826E+02 0.  0.
        254    2    1    2    0    0  0.22616766197E+03  0.75774042687E+02  0.85050366797E+03  0.12447459133E+04  0.87700762974E+03 0.  0.
         23    2    4    4    0    0  0.45957873474E+03 -0.23091844988E+02  0.14731092612E+03  0.49180353101E+03  0.91784298410E+02 0.  0.
         23    2    4    4    0    0 -0.23341107277E+03  0.98865887675E+02  0.70319274186E+03  0.75294238231E+03  0.90482076870E+02 0.  0.
          1    1    3    3  502    0 -0.10017507616E+03 -0.61577801088E+02  0.85986774374E+03  0.86787061720E+03  0.00000000000E+00 0. -1.
         -1    1    3    3    0  502 -0.12599258582E+03 -0.14196241599E+02  0.50128189563E+03  0.51706789094E+03  0.00000000000E+00 0.  1.
         11    1    5    5    0    0  0.15101329118E+03 -0.50372667654E+02  0.57797357526E+02  0.16936042718E+03  0.00000000000E+00 0. -1.
        -11    1    5    5    0    0  0.30856544356E+03  0.27280822665E+02  0.89513568589E+02  0.32244310383E+03  0.00000000000E+00 0.  1.
          1    1    6    6  503    0 -0.14459232068E+03  0.96774561937E+02  0.38328437228E+03  0.42092655544E+03  0.00000000000E+00 0. -1.
         -1    1    6    6    0  503 -0.88818752086E+02  0.20913257384E+01  0.31990836958E+03  0.33201582687E+03  0.00000000000E+00 0.  1.
<mgrwt>
<rscale>  0 0.14226137E+04</rscale>
<asrwt>0</asrwt>
<pdfrwt beam="1">  1        2 0.37241058E+00 0.14226137E+04</pdfrwt>
<pdfrwt beam="2">  1       -2 0.32156241E-01 0.14226137E+04</pdfrwt>
<totfact> 0.33930018E+01</totfact>
</mgrwt>
</event>
<event>
12    2  0.3561489E-008  0.2429590E+04  0.7818608E-02  0.8428508E-01
          2   -1    0    0  501    0  0.00000000000E+00  0.00000000000E+00  0.13390999449E+04  0.13390999449E+04  0.00000000000E+00 0. -1.
         -2   -1    0    0    0  501 -0.00000000000E+00 -0.00000000000E+00 -0.11020285736E+04  0.11020285736E+04  0.00000000000E+00 0.  1.
         23    2    1    2    0    0  0.22210851158E+02  0.82758503844E+03 -0.53797768717E+03  0.99156023073E+03  0.91549885323E+02 0.  0.
        254    2    1    2    0    0 -0.22210851158E+02 -0.82758503844E+03  0.77504905845E+03  0.14495682878E+04  0.90286037690E+03 0.  0.
         23    2    4    4    0    0 -0.29036156983E+03 -0.75059665651E+03  0.82022151273E+03  0.11527346054E+04  0.91260936038E+02 0.  0.
         23    2    4    4    0    0  0.26815071867E+03 -0.76988381933E+02 -0.45172454286E+02  0.29683368242E+03  0.90761586118E+02 0.  0.
          4    1    3    3  502    0  0.17479368959E+02  0.22603554738E+03 -0.10188476447E+03  0.24855201116E+03  0.00000000000E+00 0. -1.
         -4    1    3    3    0  502  0.47314821990E+01  0.60154949106E+03 -0.43609292270E+03  0.74300821957E+03  0.00000000000E+00 0.  1.
         11    1    5    5    0    0 -0.12702295687E+03 -0.25780032340E+03  0.34382873085E+03  0.44812278950E+03  0.00000000000E+00 0.  1.
        -11    1    5    5    0    0 -0.16333861296E+03 -0.49279633311E+03  0.47639278188E+03  0.70461181586E+03  0.00000000000E+00 0. -1.
          4    1    6    6  503    0  0.12576619551E+03  0.10184519776E+02 -0.25491570654E+02  0.12872715545E+03  0.00000000000E+00 0. -1.
         -4    1    6    6    0  503  0.14238452317E+03 -0.87172901710E+02 -0.19680883632E+02  0.16810652697E+03  0.00000000000E+00 0.  1.
<mgrwt>
<rscale>  0 0.24295896E+04</rscale>
<asrwt>0</asrwt>
<pdfrwt beam="1">  1        2 0.20601538E+00 0.24295896E+04</pdfrwt>
<pdfrwt beam="2">  1       -2 0.16954286E+00 0.24295896E+04</pdfrwt>
<totfact> 0.30223409E+00</totfact>
</mgrwt>
</event>
<event>
12    2  0.3561489E-008  0.2653185E+04  0.7818608E-02  0.8350356E-01
         -2   -1    0    0    0  501 -0.00000000000E+00  0.00000000000E+00  0.10910412264E+04  0.10910412264E+04  0.00000000000E+00 0.  1.
          2   -1    0    0  501    0  0.00000000000E+00 -0.00000000000E+00 -0.16129987864E+04  0.16129987864E+04  0.00000000000E+00 0. -1.
         23    2    1    2    0    0  0.23149996107E+03  0.11362272720E+04 -0.65368483427E+02  0.11650226035E+04  0.91651417109E+02 0.  0.
        254    2    1    2    0    0 -0.23149996107E+03 -0.11362272720E+04 -0.45658907656E+03  0.15390174093E+04  0.90304836843E+03 0.  0.
         23    2    4    4    0    0 -0.31035251613E+03 -0.11415006847E+04 -0.61742272397E+03  0.13373923072E+04  0.89804598477E+02 0.  0.
         23    2    4    4    0    0  0.78852555055E+02  0.52734126216E+01  0.16083364741E+03  0.20162510215E+03  0.92410418030E+02 0.  0.
          2    1    3    3  502    0  0.34287701192E+02  0.93374897813E+02 -0.26656486240E+02  0.10298099948E+03  0.00000000000E+00 0. -1.
         -2    1    3    3    0  502  0.19721225988E+03  0.10428523742E+04 -0.38711997187E+02  0.10620416040E+04  0.00000000000E+00 0.  1.
         11    1    5    5    0    0 -0.40785017418E+02 -0.18259515625E+03 -0.63018207739E+02  0.19742265128E+03  0.00000000000E+00 0. -1.
        -11    1    5    5    0    0 -0.26956749871E+03 -0.95890552841E+03 -0.55440451623E+03  0.11399696559E+04  0.00000000000E+00 0.  1.
          4    1    6    6  503    0 -0.29381331195E+01  0.33932730547E+02  0.35030910000E+02  0.48859262009E+02  0.00000000000E+00 0. -1.
         -4    1    6    6    0  503  0.81790688174E+02 -0.28659317925E+02  0.12580273741E+03  0.15276584015E+03  0.00000000000E+00 0.  1.
<mgrwt>
<rscale>  0 0.26531854E+04</rscale>
<asrwt>0</asrwt>
<pdfrwt beam="1">  1        2 0.24815366E+00 0.26531854E+04</pdfrwt>
<pdfrwt beam="2">  1       -2 0.16785250E+00 0.26531854E+04</pdfrwt>
<totfact> 0.21328920E+00</totfact>
</mgrwt>
</event>
<event>
12    2  0.3561489E-008  0.1414803E+04  0.7818608E-02  0.8943173E-01
          1   -1    0    0  501    0  0.00000000000E+00  0.00000000000E+00  0.82552112641E+03  0.82552112641E+03  0.00000000000E+00 0. -1.
         -1   -1    0    0    0  501 -0.00000000000E+00 -0.00000000000E+00 -0.60618272704E+03  0.60618272704E+03  0.00000000000E+00 0.  1.
         23    2    1    2    0    0  0.23073935953E+03 -0.93772387721E+02  0.40433757044E+03  0.48354014483E+03  0.91040035447E+02 0.  0.
        254    2    1    2    0    0 -0.23073935953E+03  0.93772387721E+02 -0.18499917107E+03  0.94816370863E+03  0.89596641250E+03 0.  0.
         23    2    4    4    0    0 -0.10624846909E+03  0.33712531609E+03 -0.43370733880E+03  0.56711163351E+03  0.92581494930E+02 0.  0.
         23    2    4    4    0    0 -0.12449089044E+03 -0.24335292837E+03  0.24870816772E+03  0.38105207512E+03  0.92877886009E+02 0.  0.
          2    1    3    3  502    0  0.80729755752E+02 -0.38062116665E+02  0.23094721108E+03  0.24759368428E+03  0.00000000000E+00 0. -1.
         -2    1    3    3    0  502  0.15000960378E+03 -0.55710271056E+02  0.17339035937E+03  0.23594646055E+03  0.00000000000E+00 0.  1.
         11    1    5    5    0    0 -0.11146098787E+03  0.32825863775E+03 -0.43554258339E+03  0.55666383664E+03  0.00000000000E+00 0. -1.
        -11    1    5    5    0    0  0.52125187763E+01  0.88666783441E+01  0.18352445922E+01  0.10447796876E+02  0.00000000000E+00 0.  1.
          3    1    6    6  503    0 -0.12361366168E+03 -0.25048903286E+03  0.23290116761E+03  0.36368674270E+03  0.00000000000E+00 0. -1.
         -3    1    6    6    0  503 -0.87722875798E+00  0.71361044895E+01  0.15807000110E+02  0.17365332420E+02  0.00000000000E+00 0.  1.
<mgrwt>
<rscale>  0 0.14148027E+04</rscale>
<asrwt>0</asrwt>
<pdfrwt beam="1">  1        1 0.12700325E+00 0.14148027E+04</pdfrwt>
<pdfrwt beam="2">  1       -1 0.93258881E-01 0.14148027E+04</pdfrwt>
<totfact> 0.22850089E+01</totfact>
</mgrwt>
</event>
<event>
12    2  0.3561489E-008  0.1445012E+04  0.7818608E-02  0.8921866E-01
          2   -1    0    0  501    0  0.00000000000E+00  0.00000000000E+00  0.13869032003E+04  0.13869032003E+04  0.00000000000E+00 0. -1.
         -2   -1    0    0    0  501 -0.00000000000E+00 -0.00000000000E+00 -0.37638862598E+03  0.37638862598E+03  0.00000000000E+00 0.  1.
         23    2    1    2    0    0  0.14881019703E+02 -0.29979307875E+02 -0.21872746504E+03  0.23945064529E+03  0.91513408394E+02 0.  0.
        254    2    1    2    0    0 -0.14881019703E+02  0.29979307875E+02  0.12292420393E+04  0.15238411809E+04  0.89996430477E+03 0.  0.
         23    2    4    4    0    0 -0.22310923944E+03 -0.36681422347E+03  0.51431201670E+03  0.67568347437E+03  0.87754770528E+02 0.  0.
         23    2    4    4    0    0  0.20822821974E+03  0.39679353134E+03  0.71493002261E+03  0.84815770657E+03  0.86269693240E+02 0.  0.
          1    1    3    3  502    0 -0.23139141908E+02  0.18467290655E+02 -0.35915673791E+02  0.46544562907E+02  0.00000000000E+00 0. -1.
         -1    1    3    3    0  502  0.38020161611E+02 -0.48446598530E+02 -0.18281179125E+03  0.19290608238E+03  0.00000000000E+00 0.  1.
         11    1    5    5    0    0 -0.67839248862E+02 -0.98739569413E+02  0.87765989490E+02  0.14850769396E+03  0.00000000000E+00 0.  1.
        -11    1    5    5    0    0 -0.15526999058E+03 -0.26807465405E+03  0.42654602721E+03  0.52717578041E+03  0.00000000000E+00 0. -1.
          3    1    6    6  503    0  0.11369224376E+03  0.17224907316E+03  0.25859474694E+03  0.33085784355E+03  0.00000000000E+00 0. -1.
         -3    1    6    6    0  503  0.94535975977E+02  0.22454445819E+03  0.45633527567E+03  0.51729986302E+03  0.00000000000E+00 0.  1.
<mgrwt>
<rscale>  0 0.14450115E+04</rscale>
<asrwt>0</asrwt>
<pdfrwt beam="1">  1        2 0.21336972E+00 0.14450115E+04</pdfrwt>
<pdfrwt beam="2">  1       -2 0.57905943E-01 0.14450115E+04</pdfrwt>
<totfact> 0.39867120E+01</totfact>
</mgrwt>
</event>
<event>
12    2  0.3561489E-008  0.1664496E+04  0.7818608E-02  0.8781877E-01
          2   -1    0    0  501    0  0.00000000000E+00  0.00000000000E+00  0.39000201460E+03  0.39000201460E+03  0.00000000000E+00 0. -1.
         -2   -1    0    0    0  501 -0.00000000000E+00 -0.00000000000E+00 -0.17759823576E+04  0.17759823576E+04  0.00000000000E+00 0.  1.
         23    2    1    2    0    0 -0.42271121666E+03 -0.34013741773E+03 -0.20294456509E+03  0.58755574911E+03  0.98270169352E+02 0.  0.
        254    2    1    2    0    0  0.42271121666E+03  0.34013741773E+03 -0.11830357779E+04  0.15784286230E+04  0.89302017373E+03 0.  0.
         23    2    4    4    0    0 -0.85751266329E+02  0.38710252540E+03 -0.89841936442E+03  0.98680559331E+03  0.97089030163E+02 0.  0.
         23    2    4    4    0    0  0.50846248299E+03 -0.46965107667E+02 -0.28461641345E+03  0.59162302973E+03  0.90947724276E+02 0.  0.
          1    1    3    3  502    0 -0.42482289925E+03 -0.32208641481E+03 -0.19824361194E+03  0.56878351242E+03  0.00000000000E+00 0. -1.
         -1    1    3    3    0  502  0.21116825838E+01 -0.18051002925E+02 -0.47009531447E+01  0.18772236691E+02  0.00000000000E+00 0.  1.
         11    1    5    5    0    0 -0.16909188476E+02  0.21304164260E+03 -0.57063870474E+03  0.60934488878E+03  0.00000000000E+00 0. -1.
        -11    1    5    5    0    0 -0.68842077853E+02  0.17406088280E+03 -0.32778065968E+03  0.37746070453E+03  0.00000000000E+00 0.  1.
          2    1    6    6  503    0  0.40982582913E+03 -0.38455548731E+02 -0.18537205946E+03  0.45144084871E+03  0.00000000000E+00 0. -1.
         -2    1    6    6    0  503  0.98636653864E+02 -0.85095589359E+01 -0.99244353982E+02  0.14018218102E+03  0.00000000000E+00 0.  1.
<mgrwt>
<rscale>  0 0.16644960E+04</rscale>
<asrwt>0</asrwt>
<pdfrwt beam="1">  1        2 0.60000309E-01 0.16644960E+04</pdfrwt>
<pdfrwt beam="2">  1       -2 0.27322806E+00 0.16644960E+04</pdfrwt>
<totfact> 0.36201934E+00</totfact>
</mgrwt>
</event>
<event>
12    2  0.3561489E-008  0.1490338E+04  0.7818608E-02  0.8890904E-01
          1   -1    0    0  501    0  0.00000000000E+00  0.00000000000E+00  0.51614995457E+03  0.51614995457E+03  0.00000000000E+00 0. -1.
         -1   -1    0    0    0  501 -0.00000000000E+00 -0.00000000000E+00 -0.10758046432E+04  0.10758046432E+04  0.00000000000E+00 0.  1.
         23    2    1    2    0    0 -0.18552310698E+03  0.12560151945E+03  0.26145137177E+03  0.35629440034E+03  0.91620494429E+02 0.  0.
        254    2    1    2    0    0  0.18552310698E+03 -0.12560151945E+03 -0.82110606038E+03  0.12356601974E+04  0.89579372413E+03 0.  0.
         23    2    4    4    0    0  0.36697533152E+03  0.17952125943E+03 -0.75499895270E+03  0.86329715844E+03  0.91431879841E+02 0.  0.
         23    2    4    4    0    0 -0.18145222454E+03 -0.30512277888E+03 -0.66107107681E+02  0.37236303898E+03  0.90880488167E+02 0.  0.
          3    1    3    3  502    0 -0.16473780425E+03  0.99176728294E+02  0.16239347323E+03  0.25168672537E+03  0.00000000000E+00 0. -1.
         -3    1    3    3    0  502 -0.20785302734E+02  0.26424791157E+02  0.99057898541E+02  0.10460767496E+03  0.00000000000E+00 0.  1.
         11    1    5    5    0    0  0.66138298425E+02  0.30027110274E+02 -0.72624411233E+02  0.10271420046E+03  0.00000000000E+00 0. -1.
        -11    1    5    5    0    0  0.30083703310E+03  0.14949414916E+03 -0.68237454147E+03  0.76058295798E+03  0.00000000000E+00 0.  1.
          3    1    6    6  503    0 -0.56581128068E+02 -0.17466016022E+03 -0.53968594585E+02  0.19136406356E+03  0.00000000000E+00 0. -1.
         -3    1    6    6    0  503 -0.12487109648E+03 -0.13046261867E+03 -0.12138513096E+02  0.18099897542E+03  0.00000000000E+00 0.  1.
<mgrwt>
<rscale>  0 0.14903376E+04</rscale>
<asrwt>0</asrwt>
<pdfrwt beam="1">  1        1 0.79407686E-01 0.14903376E+04</pdfrwt>
<pdfrwt beam="2">  1       -1 0.16550840E+00 0.14903376E+04</pdfrwt>
<totfact> 0.10906123E+01</totfact>
</mgrwt>
</event>
<event>
12    2  0.3561489E-008  0.2513255E+04  0.7818608E-02  0.8398279E-01
         -1   -1    0    0    0  501 -0.00000000000E+00  0.00000000000E+00  0.93184049617E+03  0.93184049617E+03  0.00000000000E+00 0.  1.
          1   -1    0    0  501    0  0.00000000000E+00 -0.00000000000E+00 -0.16946168317E+04  0.16946168317E+04  0.00000000000E+00 0. -1.
         23    2    1    2    0    0  0.29627020046E+02 -0.19957917518E+03 -0.14565147961E+04  0.14729447450E+04  0.86146754300E+02 0.  0.
        254    2    1    2    0    0 -0.29627020046E+02  0.19957917518E+03  0.69373846048E+03  0.11535125829E+04  0.89922667879E+03 0.  0.
         23    2    4    4    0    0 -0.19638007258E+03 -0.19945101802E+03 -0.39283852414E+02  0.29693491736E+03  0.91001552690E+02 0.  0.
         23    2    4    4    0    0  0.16675305253E+03  0.39903019320E+03  0.73302231289E+03  0.85657766553E+03  0.96808627008E+02 0.  0.
          2    1    3    3  502    0  0.58530355009E+02 -0.13010085907E+03 -0.86934782906E+03  0.88097541616E+03  0.00000000000E+00 0. -1.
         -2    1    3    3    0  502 -0.28903334963E+02 -0.69478316111E+02 -0.58716696700E+03  0.59196932887E+03  0.00000000000E+00 0.  1.
         11    1    5    5    0    0 -0.31200523879E+02 -0.74730223774E+01 -0.29348553855E+02  0.43481678523E+02  0.00000000000E+00 0. -1.
        -11    1    5    5    0    0 -0.16517954870E+03 -0.19197799564E+03 -0.99352985587E+01  0.25345323884E+03  0.00000000000E+00 0.  1.
          4    1    6    6  503    0  0.30199291525E+01  0.26487293343E+02  0.13332932033E+02  0.29807109174E+02  0.00000000000E+00 0. -1.
         -4    1    6    6    0  503  0.16373312338E+03  0.37254289986E+03  0.71968938086E+03  0.82677055635E+03  0.00000000000E+00 0.  1.
<mgrwt>
<rscale>  0 0.25132549E+04</rscale>
<asrwt>0</asrwt>
<pdfrwt beam="1">  1        1 0.26071028E+00 0.25132549E+04</pdfrwt>
<pdfrwt beam="2">  1       -1 0.14336008E+00 0.25132549E+04</pdfrwt>
<totfact> 0.16795558E+00</totfact>
</mgrwt>
</event>
<event>
12    2  0.3561489E-008  0.1707924E+04  0.7818608E-02  0.8756858E-01
         -1   -1    0    0    0  501 -0.00000000000E+00  0.00000000000E+00  0.17709738090E+03  0.17709738090E+03  0.00000000000E+00 0.  1.
          1   -1    0    0  501    0  0.00000000000E+00 -0.00000000000E+00 -0.41177951908E+04  0.41177951908E+04  0.00000000000E+00 0. -1.
         23    2    1    2    0    0 -0.26998723399E+03 -0.45955811942E+02 -0.28028502474E+04  0.28177188033E+04  0.92545673034E+02 0.  0.
        254    2    1    2    0    0  0.26998723399E+03  0.45955811942E+02 -0.11378475625E+04  0.14771737685E+04  0.90129918650E+03 0.  0.
         23    2    4    4    0    0  0.42337496495E+03 -0.12222116238E+03 -0.17452874489E+03  0.48331629589E+03  0.94604363531E+02 0.  0.
         23    2    4    4    0    0 -0.15338773096E+03  0.16817697432E+03 -0.96331881760E+03  0.99385747258E+03  0.89208972340E+02 0.  0.
          1    1    3    3  502    0 -0.84271415262E+02 -0.59246364542E+01 -0.50393942389E+03  0.51097134528E+03  0.00000000000E+00 0.  1.
         -1    1    3    3    0  502 -0.18571581873E+03 -0.40031175488E+02 -0.22989108236E+04  0.23067474580E+04  0.00000000000E+00 0. -1.
         11    1    5    5    0    0  0.26419038607E+03 -0.11965981491E+03 -0.13119324747E+03  0.31831855048E+03  0.00000000000E+00 0. -1.
        -11    1    5    5    0    0  0.15918457888E+03 -0.25613474654E+01 -0.43335497420E+02  0.16499774541E+03  0.00000000000E+00 0.  1.
          1    1    6    6  503    0 -0.14161680234E+03  0.11637179461E+03 -0.62257809921E+03  0.64900015631E+03  0.00000000000E+00 0. -1.
         -1    1    6    6    0  503 -0.11770928623E+02  0.51805179709E+02 -0.34074071840E+03  0.34485731626E+03  0.00000000000E+00 0.  1.
<mgrwt>
<rscale>  0 0.17079236E+04</rscale>
<asrwt>0</asrwt>
<pdfrwt beam="1">  1        1 0.63350687E+00 0.17079236E+04</pdfrwt>
<pdfrwt beam="2">  1       -1 0.27245754E-01 0.17079236E+04</pdfrwt>
<totfact> 0.87766890E-01</totfact>
</mgrwt>
</event>
<event>
12    2  0.3561489E-008  0.1240129E+04  0.7818608E-02  0.9078439E-01
         -1   -1    0    0    0  501 -0.00000000000E+00  0.00000000000E+00  0.30791269106E+03  0.30791269106E+03  0.00000000000E+00 0.  1.
          1   -1    0    0  501    0  0.00000000000E+00 -0.00000000000E+00 -0.12486662849E+04  0.12486662849E+04  0.00000000000E+00 0. -1.
         23    2    1    2    0    0 -0.15550167892E+03 -0.12890079868E+03  0.31028582895E+02  0.22371027434E+03  0.91034750737E+02 0.  0.
        254    2    1    2    0    0  0.15550167892E+03  0.12890079868E+03 -0.97178217672E+03  0.13328687016E+04  0.88959664381E+03 0.  0.
         23    2    4    4    0    0  0.35929412320E+03  0.18491000817E+03 -0.93602310289E+02  0.42490264006E+03  0.92178538435E+02 0.  0.
         23    2    4    4    0    0 -0.20379244428E+03 -0.56009209484E+02 -0.87817986643E+03  0.90796606155E+03  0.92380188505E+02 0.  0.
          3    1    3    3  502    0  0.12250036303E+02 -0.84600240111E+01  0.41700701547E+01  0.15460429515E+02  0.00000000000E+00 0. -1.
         -3    1    3    3    0  502 -0.16775171522E+03 -0.12044077467E+03  0.26858512740E+02  0.20824984483E+03  0.00000000000E+00 0.  1.
         11    1    5    5    0    0  0.44032163789E+02 -0.40246129708E+01  0.46392576239E+01  0.44458426297E+02  0.00000000000E+00 0. -1.
        -11    1    5    5    0    0  0.31526195941E+03  0.18893462114E+03 -0.98241567913E+02  0.38044421376E+03  0.00000000000E+00 0.  1.
          4    1    6    6  503    0 -0.11064178114E+03  0.15143191226E+02 -0.48468637251E+03  0.49738496124E+03  0.00000000000E+00 0. -1.
         -4    1    6    6    0  503 -0.93150663141E+02 -0.71152400710E+02 -0.39349349392E+03  0.41058110031E+03  0.00000000000E+00 0.  1.
<mgrwt>
<rscale>  0 0.12401293E+04</rscale>
<asrwt>0</asrwt>
<pdfrwt beam="1">  1        1 0.19210251E+00 0.12401293E+04</pdfrwt>
<pdfrwt beam="2">  1       -1 0.47371183E-01 0.12401293E+04</pdfrwt>
<totfact> 0.43208380E+01</totfact>
</mgrwt>
</event>
<event>
12    2  0.3561489E-008  0.3047675E+04  0.7818608E-02  0.8230247E-01
          1   -1    0    0  501    0  0.00000000000E+00  0.00000000000E+00  0.19807882587E+04  0.19807882587E+04  0.00000000000E+00 0. -1.
         -1   -1    0    0    0  501 -0.00000000000E+00 -0.00000000000E+00 -0.11723010069E+04  0.11723010069E+04  0.00000000000E+00 0.  1.
         23    2    1    2    0    0 -0.71761754516E+03  0.11902000883E+04  0.14725850339E+03  0.14006056668E+04  0.91978125502E+02 0.  0.
        254    2    1    2    0    0  0.71761754516E+03 -0.11902000883E+04  0.66122874832E+03  0.17524835988E+04  0.83810746044E+03 0.  0.
         23    2    4    4    0    0  0.86110393306E+03 -0.11586339444E+04  0.62189926731E+03  0.15746842553E+04  0.94547367802E+02 0.  0.
         23    2    4    4    0    0 -0.14348638790E+03 -0.31566143952E+02  0.39329481017E+02  0.17779934350E+03  0.92092526931E+02 0.  0.
          3    1    3    3  502    0 -0.57448906296E+03  0.10165858498E+04  0.11580166365E+03  0.11734114789E+04  0.00000000000E+00 0. -1.
         -3    1    3    3    0  502 -0.14312848221E+03  0.17361423847E+03  0.31456839740E+02  0.22719418783E+03  0.00000000000E+00 0.  1.
         11    1    5    5    0    0  0.67839489596E+03 -0.97017873457E+03  0.49546259429E+03  0.12833353397E+04  0.00000000000E+00 0. -1.
        -11    1    5    5    0    0  0.18270903711E+03 -0.18845520980E+03  0.12643667302E+03  0.29134891560E+03  0.00000000000E+00 0.  1.
          3    1    6    6  503    0 -0.99404763745E+01 -0.27682028888E+01  0.39868960904E+02  0.41182642719E+02  0.00000000000E+00 0. -1.
         -3    1    6    6    0  503 -0.13354591153E+03 -0.28797941063E+02 -0.53947988634E+00  0.13661670078E+03  0.00000000000E+00 0.  1.
<mgrwt>
<rscale>  0 0.30476746E+04</rscale>
<asrwt>0</asrwt>
<pdfrwt beam="1">  1        1 0.30473665E+00 0.30476746E+04</pdfrwt>
<pdfrwt beam="2">  1       -1 0.18035400E+00 0.30476746E+04</pdfrwt>
<totfact> 0.53851703E-01</totfact>
</mgrwt>
</event>
<event>
12    2  0.3561489E-008  0.1583400E+04  0.7818608E-02  0.8830811E-01
         -1   -1    0    0    0  501 -0.00000000000E+00  0.00000000000E+00  0.88408004081E+03  0.88408004081E+03  0.00000000000E+00 0.  1.
          1   -1    0    0  501    0  0.00000000000E+00 -0.00000000000E+00 -0.70897343721E+03  0.70897343721E+03  0.00000000000E+00 0. -1.
         23    2    1    2    0    0 -0.84568808624E+02  0.45160481725E+03  0.32774037814E+03  0.57291706628E+03  0.98597236352E+02 0.  0.
        254    2    1    2    0    0  0.84568808624E+02 -0.45160481725E+03 -0.15263377454E+03  0.10201364117E+04  0.89793231097E+03 0.  0.
         23    2    4    4    0    0  0.33836875500E+03 -0.46860611433E+03  0.16004893296E+03  0.60681410525E+03  0.92317889098E+02 0.  0.
         23    2    4    4    0    0 -0.25379994638E+03  0.17001297076E+02 -0.31268270750E+03  0.41332230649E+03  0.91440672505E+02 0.  0.
          4    1    3    3  502    0 -0.25411708441E+02  0.20661760126E+03  0.20657978749E+03  0.29327767845E+03  0.00000000000E+00 0. -1.
         -4    1    3    3    0  502 -0.59157100183E+02  0.24498721599E+03  0.12116059065E+03  0.27963938784E+03  0.00000000000E+00 0.  1.
         11    1    5    5    0    0  0.11996138559E+03 -0.12485865389E+03  0.12326808673E+02  0.17358677281E+03  0.00000000000E+00 0.  1.
        -11    1    5    5    0    0  0.21840736942E+03 -0.34374746043E+03  0.14772212429E+03  0.43322733244E+03  0.00000000000E+00 0. -1.
          2    1    6    6  503    0 -0.97647425031E+02 -0.80790672002E+01 -0.58985649658E+02  0.11436606930E+03  0.00000000000E+00 0.  1.
         -2    1    6    6    0  503 -0.15615252135E+03  0.25080364276E+02 -0.25369705785E+03  0.29895623719E+03  0.00000000000E+00 0. -1.
<mgrwt>
<rscale>  0 0.15834005E+04</rscale>
<asrwt>0</asrwt>
<pdfrwt beam="1">  1        1 0.10907284E+00 0.15834005E+04</pdfrwt>
<pdfrwt beam="2">  1       -1 0.13601231E+00 0.15834005E+04</pdfrwt>
<totfact> 0.11603074E+01</totfact>
</mgrwt>
</event>
<event>
12    2  0.3561489E-008  0.1274755E+04  0.7818608E-02  0.9049828E-01
         -2   -1    0    0    0  501 -0.00000000000E+00  0.00000000000E+00  0.13694687870E+03  0.13694687870E+03  0.00000000000E+00 0.  1.
          2   -1    0    0  501    0  0.00000000000E+00 -0.00000000000E+00 -0.29664778657E+04  0.29664778657E+04  0.00000000000E+00 0. -1.
         23    2    1    2    0    0  0.26289844646E+03  0.96539529319E+02 -0.38965317179E+03  0.48839245235E+03  0.90896200978E+02 0.  0.
        254    2    1    2    0    0 -0.26289844646E+03 -0.96539529319E+02 -0.24398778152E+04  0.26150322920E+04  0.89830655202E+03 0.  0.
         23    2    4    4    0    0 -0.49385806930E+03 -0.54914349215E+02 -0.73834139582E+03  0.89500297165E+03  0.94714962530E+02 0.  0.
         23    2    4    4    0    0  0.23095962284E+03 -0.41625180105E+02 -0.17015364194E+04  0.17200293204E+04  0.90552048525E+02 0.  0.
          3    1    3    3  502    0  0.22267123485E+03  0.49907357798E+02 -0.33901431696E+03  0.40866114361E+03  0.00000000000E+00 0. -1.
         -3    1    3    3    0  502  0.40227211608E+02  0.46632171521E+02 -0.50638854830E+02  0.79731308737E+02  0.00000000000E+00 0.  1.
         11    1    5    5    0    0 -0.40452498304E+02 -0.15668220427E+02 -0.11727825439E+03  0.12504433895E+03  0.00000000000E+00 0. -1.
        -11    1    5    5    0    0 -0.45340557100E+03 -0.39246128787E+02 -0.62106314143E+03  0.76995863270E+03  0.00000000000E+00 0.  1.
          4    1    6    6  503    0  0.14541354702E+02  0.54873542900E+01 -0.35974187342E+03  0.36007746048E+03  0.00000000000E+00 0. -1.
         -4    1    6    6    0  503  0.21641826814E+03 -0.47112534395E+02 -0.13417945459E+04  0.13599518599E+04  0.00000000000E+00 0.  1.
<mgrwt>
<rscale>  0 0.12747547E+04</rscale>
<asrwt>0</asrwt>
<pdfrwt beam="1">  1        2 0.45638120E+00 0.12747547E+04</pdfrwt>
<pdfrwt beam="2">  1       -2 0.21068751E-01 0.12747547E+04</pdfrwt>
<totfact> 0.35387725E+01</totfact>
</mgrwt>
</event>
<event>
12    2  0.3561489E-008  0.1316617E+04  0.7818608E-02  0.9016490E-01
          1   -1    0    0  501    0  0.00000000000E+00  0.00000000000E+00  0.96894547258E+03  0.96894547258E+03  0.00000000000E+00 0. -1.
         -1   -1    0    0    0  501 -0.00000000000E+00 -0.00000000000E+00 -0.44725963028E+03  0.44725963028E+03  0.00000000000E+00 0.  1.
         23    2    1    2    0    0 -0.11253558925E+03 -0.28381890903E+03 -0.12595698802E+02  0.31923561579E+03  0.92386659169E+02 0.  0.
        254    2    1    2    0    0  0.11253558925E+03  0.28381890903E+03  0.53428154110E+03  0.10969694871E+04  0.90811224992E+03 0.  0.
         23    2    4    4    0    0  0.10011080204E+03 -0.16842880584E+03  0.59342105134E+03  0.63154164157E+03  0.91136521447E+02 0.  0.
         23    2    4    4    0    0  0.12424787204E+02  0.45224771486E+03 -0.59139510236E+02  0.46542784551E+03  0.91887032646E+02 0.  0.
          1    1    3    3  502    0 -0.11038526220E+03 -0.28509513057E+03 -0.24851370835E+02  0.30672745266E+03  0.00000000000E+00 0. -1.
         -1    1    3    3    0  502 -0.21503270496E+01  0.12762215421E+01  0.12255672033E+02  0.12508163128E+02  0.00000000000E+00 0.  1.
         11    1    5    5    0    0 -0.17351027422E+02 -0.16219396424E+02  0.60069340362E+02  0.64594524725E+02  0.00000000000E+00 0. -1.
        -11    1    5    5    0    0  0.11746182946E+03 -0.15220940941E+03  0.53335171097E+03  0.56694711684E+03  0.00000000000E+00 0.  1.
          2    1    6    6  503    0  0.41938511714E+02  0.10385904727E+03 -0.15778749862E+02  0.11311281718E+03  0.00000000000E+00 0. -1.
         -2    1    6    6    0  503 -0.29513724510E+02  0.34838866760E+03 -0.43360760374E+02  0.35231502833E+03  0.00000000000E+00 0.  1.
<mgrwt>
<rscale>  0 0.13166172E+04</rscale>
<asrwt>0</asrwt>
<pdfrwt beam="1">  1        1 0.14906853E+00 0.13166172E+04</pdfrwt>
<pdfrwt beam="2">  1       -1 0.68809174E-01 0.13166172E+04</pdfrwt>
<totfact> 0.33579221E+01</totfact>
</mgrwt>
</event>
<event>
12    2  0.3561489E-008  0.2806594E+04  0.7818608E-02  0.8301224E-01
         -2   -1    0    0    0  501 -0.00000000000E+00  0.00000000000E+00  0.10541218073E+04  0.10541218073E+04  0.00000000000E+00 0.  1.
          2   -1    0    0  501    0  0.00000000000E+00 -0.00000000000E+00 -0.18681355692E+04  0.18681355692E+04  0.00000000000E+00 0. -1.
         23    2    1    2    0    0 -0.41374612421E+03  0.27750764649E+03  0.84037280342E+03  0.98112917802E+03  0.90507823267E+02 0.  0.
        254    2    1    2    0    0  0.41374612421E+03 -0.27750764649E+03 -0.16543865653E+04  0.19411281985E+04  0.88475274866E+03 0.  0.
         23    2    4    4    0    0  0.41917218471E+03  0.56447723250E+01 -0.15799618557E+04  0.16366222014E+04  0.80719147520E+02 0.  0.
         23    2    4    4    0    0 -0.54260605060E+01 -0.28315241881E+03 -0.74424709619E+02  0.30450599707E+03  0.83547174922E+02 0.  0.
          3    1    3    3  502    0 -0.17766451847E+03  0.98378799907E+02  0.42327398866E+03  0.46947197879E+03  0.00000000000E+00 0. -1.
         -3    1    3    3    0  502 -0.23608160574E+03  0.17912884658E+03  0.41709881476E+03  0.51165719922E+03  0.00000000000E+00 0.  1.
         11    1    5    5    0    0  0.42064953521E+03  0.11505918007E+02 -0.15541421746E+04  0.16101044428E+04  0.00000000000E+00 0. -1.
        -11    1    5    5    0    0 -0.14773504979E+01 -0.58611456821E+01 -0.25819681086E+02  0.26517758665E+02  0.00000000000E+00 0.  1.
          3    1    6    6  503    0 -0.81067694226E+00 -0.27756180252E+03 -0.53912499550E+02  0.28275036520E+03  0.00000000000E+00 0. -1.
         -3    1    6    6    0  503 -0.46153835637E+01 -0.55906162931E+01 -0.20512210069E+02  0.21755631866E+02  0.00000000000E+00 0.  1.
<mgrwt>
<rscale>  0 0.28065940E+04</rscale>
<asrwt>0</asrwt>
<pdfrwt beam="1">  1        2 0.28740547E+00 0.28065940E+04</pdfrwt>
<pdfrwt beam="2">  1       -2 0.16217259E+00 0.28065940E+04</pdfrwt>
<totfact> 0.16701508E+00</totfact>
</mgrwt>
</event>
<event>
12    2  0.3561489E-008  0.1630356E+04  0.7818608E-02  0.8802113E-01
         -1   -1    0    0    0  501 -0.00000000000E+00  0.00000000000E+00  0.47187475052E+03  0.47187475052E+03  0.00000000000E+00 0.  1.
          1   -1    0    0  501    0  0.00000000000E+00 -0.00000000000E+00 -0.14082456493E+04  0.14082456493E+04  0.00000000000E+00 0. -1.
         23    2    1    2    0    0 -0.53267681260E+03 -0.89651788680E+02 -0.16512696782E+03  0.57287670979E+03  0.95596962423E+02 0.  0.
        254    2    1    2    0    0  0.53267681260E+03  0.89651788680E+02 -0.77124393097E+03  0.13072436900E+04  0.90680032764E+03 0.  0.
         23    2    4    4    0    0  0.53095580660E+03  0.43224474753E+03 -0.41577915585E+03  0.80623170763E+03  0.91584221432E+02 0.  0.
         23    2    4    4    0    0  0.17210060034E+01 -0.34259295885E+03 -0.35546477512E+03  0.50101198242E+03  0.85351642362E+02 0.  0.
          4    1    3    3  502    0 -0.16272516158E+03 -0.56339261023E+02 -0.17210009462E+02  0.17306003285E+03  0.00000000000E+00 0. -1.
         -4    1    3    3    0  502 -0.36995165102E+03 -0.33312527658E+02 -0.14791695836E+03  0.39981667694E+03  0.00000000000E+00 0.  1.
         11    1    5    5    0    0  0.52142346661E+03  0.42980968109E+03 -0.39370163995E+03  0.78206123468E+03  0.00000000000E+00 0. -1.
        -11    1    5    5    0    0  0.95323399855E+01  0.24350664466E+01 -0.22077515901E+02  0.24170472948E+02  0.00000000000E+00 0.  1.
          4    1    6    6  503    0 -0.33833842803E+01 -0.50544908213E+02 -0.10361412946E+03  0.11533482934E+03  0.00000000000E+00 0.  1.
         -4    1    6    6    0  503  0.51043902837E+01 -0.29204805064E+03 -0.25185064566E+03  0.38567715307E+03  0.00000000000E+00 0. -1.
<mgrwt>
<rscale>  0 0.16303565E+04</rscale>
<asrwt>0</asrwt>
<pdfrwt beam="1">  1        1 0.21665317E+00 0.16303565E+04</pdfrwt>
<pdfrwt beam="2">  1       -1 0.72596116E-01 0.16303565E+04</pdfrwt>
<totfact> 0.13885130E+01</totfact>
</mgrwt>
</event>
<event>
12    2  0.3561489E-008  0.2518535E+04  0.7818608E-02  0.8396412E-01
          2   -1    0    0  501    0  0.00000000000E+00  0.00000000000E+00  0.99679540469E+03  0.99679540469E+03  0.00000000000E+00 0. -1.
         -2   -1    0    0    0  501 -0.00000000000E+00 -0.00000000000E+00 -0.15908524857E+04  0.15908524857E+04  0.00000000000E+00 0.  1.
         23    2    1    2    0    0 -0.61693100825E+03 -0.81557146403E+03  0.13667275903E+03  0.10355793507E+04  0.89355843442E+02 0.  0.
        254    2    1    2    0    0  0.61693100825E+03  0.81557146403E+03 -0.73072984008E+03  0.15520685397E+04  0.91059868813E+03 0.  0.
         23    2    4    4    0    0 -0.22424954755E+03  0.20104729244E+03 -0.24779071783E+03  0.40030487042E+03  0.90199091282E+02 0.  0.
         23    2    4    4    0    0  0.84118055580E+03  0.61452417159E+03 -0.48293912224E+03  0.11517636693E+04  0.90025935787E+02 0.  0.
          1    1    3    3  502    0 -0.31705535072E+03 -0.45143120531E+03  0.33230488952E+02  0.55264680760E+03  0.00000000000E+00 0. -1.
         -1    1    3    3    0  502 -0.29987565753E+03 -0.36414025871E+03  0.10344227007E+03  0.48293254315E+03  0.00000000000E+00 0.  1.
         11    1    5    5    0    0 -0.21313399212E+03  0.14829053828E+03 -0.21576429269E+03  0.33759504194E+03  0.00000000000E+00 0.  1.
        -11    1    5    5    0    0 -0.11115555433E+02  0.52756754154E+02 -0.32026425143E+02  0.62709828487E+02  0.00000000000E+00 0. -1.
          4    1    6    6  503    0  0.57122988128E+03  0.36946376191E+03 -0.29378948559E+03  0.74102585007E+03  0.00000000000E+00 0. -1.
         -4    1    6    6    0  503  0.26995067452E+03  0.24506040968E+03 -0.18914963666E+03  0.41073781919E+03  0.00000000000E+00 0.  1.
<mgrwt>
<rscale>  0 0.25185348E+04</rscale>
<asrwt>0</asrwt>
<pdfrwt beam="1">  1        2 0.15335314E+00 0.25185348E+04</pdfrwt>
<pdfrwt beam="2">  1       -2 0.24474653E+00 0.25185348E+04</pdfrwt>
<totfact> 0.15602147E+00</totfact>
</mgrwt>
</event>
<event>
12    2  0.3561489E-008  0.1896576E+04  0.7818608E-02  0.8656563E-01
          1   -1    0    0  501    0  0.00000000000E+00  0.00000000000E+00  0.33276547766E+04  0.33276547766E+04  0.00000000000E+00 0. -1.
         -1   -1    0    0    0  501 -0.00000000000E+00 -0.00000000000E+00 -0.27023538982E+03  0.27023538982E+03  0.00000000000E+00 0.  1.
         23    2    1    2    0    0 -0.13505892992E+03 -0.31199957844E+03  0.24179495833E+04  0.24434582305E+04  0.91778455994E+02 0.  0.
        254    2    1    2    0    0  0.13505892992E+03  0.31199957844E+03  0.63946980346E+03  0.11544319360E+04  0.89900323346E+03 0.  0.
         23    2    4    4    0    0 -0.27165604938E+03  0.36451341309E+03  0.55782815954E+03  0.72609614816E+03  0.96831416970E+02 0.  0.
         23    2    4    4    0    0  0.40671497930E+03 -0.52513834648E+02  0.81641643926E+02  0.42833578782E+03  0.92905392149E+02 0.  0.
          3    1    3    3  502    0 -0.11772070740E+03 -0.15876745741E+03  0.14070385834E+04  0.14208528585E+04  0.00000000000E+00 0. -1.
         -3    1    3    3    0  502 -0.17338222525E+02 -0.15323212103E+03  0.10109110000E+04  0.10226053719E+04  0.00000000000E+00 0.  1.
         11    1    5    5    0    0 -0.17774039314E+03  0.21624681161E+03  0.41100872882E+03  0.49727508087E+03  0.00000000000E+00 0.  1.
        -11    1    5    5    0    0 -0.93915656238E+02  0.14826660147E+03  0.14681943072E+03  0.22882106729E+03  0.00000000000E+00 0. -1.
          1    1    6    6  503    0  0.13570715970E+03  0.69873081154E+01 -0.96790374674E+01  0.13623119846E+03  0.00000000000E+00 0. -1.
         -1    1    6    6    0  503  0.27100781960E+03 -0.59501142763E+02  0.91320681393E+02  0.29210458936E+03  0.00000000000E+00 0.  1.
<mgrwt>
<rscale>  0 0.18965760E+04</rscale>
<asrwt>0</asrwt>
<pdfrwt beam="1">  1        1 0.51194686E+00 0.18965760E+04</pdfrwt>
<pdfrwt beam="2">  1       -1 0.41574678E-01 0.18965760E+04</pdfrwt>
<totfact> 0.18138738E+00</totfact>
</mgrwt>
</event>
<event>
12    2  0.3561489E-008  0.2324130E+04  0.7818608E-02  0.8468467E-01
          1   -1    0    0  501    0  0.00000000000E+00  0.00000000000E+00  0.12122837604E+04  0.12122837604E+04  0.00000000000E+00 0. -1.
         -1   -1    0    0    0  501 -0.00000000000E+00 -0.00000000000E+00 -0.11139261603E+04  0.11139261603E+04  0.00000000000E+00 0.  1.
         23    2    1    2    0    0  0.60765403787E+02 -0.30904315052E+03  0.96467515404E+03  0.10186917446E+04  0.89076452842E+02 0.  0.
        254    2    1    2    0    0 -0.60765403787E+02  0.30904315052E+03 -0.86631755396E+03  0.13075181762E+04  0.92730662323E+03 0.  0.
         23    2    4    4    0    0  0.28635661332E+03 -0.42264835981E+02 -0.72559811481E+03  0.78638541130E+03  0.90127490473E+02 0.  0.
         23    2    4    4    0    0 -0.34712201711E+03  0.35130798650E+03 -0.14071943916E+03  0.52113276486E+03  0.88692738784E+02 0.  0.
          1    1    3    3  502    0  0.76416318604E+02 -0.23791227876E+03  0.81113714694E+03  0.84875507496E+03  0.00000000000E+00 0. -1.
         -1    1    3    3    0  502 -0.15650914816E+02 -0.71130871761E+02  0.15353800711E+03  0.16993666961E+03  0.00000000000E+00 0.  1.
         11    1    5    5    0    0  0.54356060443E+02 -0.44722203808E+02 -0.19345157907E+03  0.20585958871E+03  0.00000000000E+00 0. -1.
        -11    1    5    5    0    0  0.23200055288E+03  0.24573678268E+01 -0.53214653574E+03  0.58052582258E+03  0.00000000000E+00 0.  1.
          3    1    6    6  503    0 -0.15420106986E+03  0.11029644463E+03 -0.24046338689E+02  0.19110599689E+03  0.00000000000E+00 0. -1.
         -3    1    6    6    0  503 -0.19292094725E+03  0.24101154187E+03 -0.11667310047E+03  0.33002676797E+03  0.00000000000E+00 0.  1.
<mgrwt>
<rscale>  0 0.23241296E+04</rscale>
<asrwt>0</asrwt>
<pdfrwt beam="1">  1        1 0.18650519E+00 0.23241296E+04</pdfrwt>
<pdfrwt beam="2">  1       -1 0.17137326E+00 0.23241296E+04</pdfrwt>
<totfact> 0.22699576E+00</totfact>
</mgrwt>
</event>
<event>
12    2  0.3561489E-008  0.3906080E+04  0.7818608E-02  0.8023766E-01
         -1   -1    0    0    0  501 -0.00000000000E+00  0.00000000000E+00  0.29260662320E+04  0.29260662320E+04  0.00000000000E+00 0.  1.
          1   -1    0    0  501    0  0.00000000000E+00 -0.00000000000E+00 -0.13035816232E+04  0.13035816232E+04  0.00000000000E+00 0. -1.
         23    2    1    2    0    0  0.74071942919E+03  0.10051627534E+04 -0.70839122146E+03  0.14386300296E+04  0.93919145390E+02 0.  0.
        254    2    1    2    0    0 -0.74071942919E+03 -0.10051627534E+04  0.23308758302E+04  0.27910178256E+04  0.89318583357E+03 0.  0.
         23    2    4    4    0    0 -0.53391354886E+03 -0.68800301643E+03  0.22193506678E+04  0.23858091237E+04  0.90310352272E+02 0.  0.
         23    2    4    4    0    0 -0.20680588032E+03 -0.31715973697E+03  0.11152516238E+03  0.40520870188E+03  0.91636561150E+02 0.  0.
          4    1    3    3  502    0  0.57774292071E+03  0.82918163424E+03 -0.60119593288E+03  0.11759105471E+04  0.00000000000E+00 0. -1.
         -4    1    3    3    0  502  0.16297650848E+03  0.17598111916E+03 -0.10719528858E+03  0.26271948255E+03  0.00000000000E+00 0.  1.
         11    1    5    5    0    0 -0.11921764068E+03 -0.11078631906E+03  0.35311077583E+03  0.38881058929E+03  0.00000000000E+00 0. -1.
        -11    1    5    5    0    0 -0.41469590819E+03 -0.57721669737E+03  0.18662398920E+04  0.19969985344E+04  0.00000000000E+00 0.  1.
          2    1    6    6  503    0 -0.35998305977E+02 -0.13015599973E+03  0.23461086778E+02  0.13706525779E+03  0.00000000000E+00 0. -1.
         -2    1    6    6    0  503 -0.17080757435E+03 -0.18700373724E+03  0.88064075603E+02  0.26814344409E+03  0.00000000000E+00 0.  1.
<mgrwt>
<rscale>  0 0.39060805E+04</rscale>
<asrwt>0</asrwt>
<pdfrwt beam="1">  1        1 0.20055102E+00 0.39060805E+04</pdfrwt>
<pdfrwt beam="2">  1       -1 0.45016403E+00 0.39060805E+04</pdfrwt>
<totfact> 0.22882962E-02</totfact>
</mgrwt>
</event>
<event>
12    2  0.3561489E-008  0.2216925E+04  0.7818608E-02  0.8511416E-01
         -2   -1    0    0    0  501 -0.00000000000E+00  0.00000000000E+00  0.48093575546E+03  0.48093575546E+03  0.00000000000E+00 0. -1.
          2   -1    0    0  501    0  0.00000000000E+00 -0.00000000000E+00 -0.25547893296E+04  0.25547893296E+04  0.00000000000E+00 0.  1.
         23    2    1    2    0    0 -0.33897698964E+03 -0.75494159670E+03 -0.14541843903E+04  0.16755468234E+04  0.89233977156E+02 0.  0.
        254    2    1    2    0    0  0.33897698964E+03  0.75494159670E+03 -0.61966918393E+03  0.13601782617E+04  0.88388505594E+03 0.  0.
         23    2    4    4    0    0  0.12441102601E+03  0.78745169408E+03 -0.74389601821E+03  0.10942185613E+04  0.91513387059E+02 0.  0.
         23    2    4    4    0    0  0.21456596363E+03 -0.32510097378E+02  0.12422683428E+03  0.26595970042E+03  0.90591372171E+02 0.  0.
          3    1    3    3  502    0 -0.27618984225E+02 -0.10312115762E+03 -0.14181465094E+03  0.17750542712E+03  0.00000000000E+00 0. -1.
         -3    1    3    3    0  502 -0.31135800542E+03 -0.65182043908E+03 -0.13123697393E+04  0.14980413963E+04  0.00000000000E+00 0.  1.
         11    1    5    5    0    0  0.11619054795E+03  0.75446601257E+03 -0.68219287219E+03  0.10237706396E+04  0.00000000000E+00 0. -1.
        -11    1    5    5    0    0  0.82204780678E+01  0.32985681504E+02 -0.61703146015E+02  0.70447921701E+02  0.00000000000E+00 0.  1.
          3    1    6    6  503    0  0.19566876190E+03 -0.56525473825E+02  0.11567593971E+03  0.23422706206E+03  0.00000000000E+00 0. -1.
         -3    1    6    6    0  503  0.18897201726E+02  0.24015376447E+02  0.85508945738E+01  0.31732638355E+02  0.00000000000E+00 0.  1.
<mgrwt>
<rscale>  0 0.22169254E+04</rscale>
<asrwt>0</asrwt>
<pdfrwt beam="1">  1        2 0.39304452E+00 0.22169254E+04</pdfrwt>
<pdfrwt beam="2">  1       -2 0.73990115E-01 0.22169254E+04</pdfrwt>
<totfact> 0.48590072E+00</totfact>
</mgrwt>
</event>
<event>
12    2  0.3561489E-008  0.1333844E+04  0.7818608E-02  0.9003149E-01
         -2   -1    0    0    0  501 -0.00000000000E+00  0.00000000000E+00  0.10407566468E+03  0.10407566468E+03  0.00000000000E+00 0.  1.
          2   -1    0    0  501    0  0.00000000000E+00 -0.00000000000E+00 -0.42736662292E+04  0.42736662292E+04  0.00000000000E+00 0. -1.
         23    2    1    2    0    0  0.13574413538E+03 -0.20224598459E+03 -0.29503464516E+03  0.39288712528E+03  0.89358507086E+02 0.  0.
        254    2    1    2    0    0 -0.13574413538E+03  0.20224598459E+03 -0.38745559193E+04  0.39848547686E+04  0.89864010928E+03 0.  0.
         23    2    4    4    0    0  0.31160128900E+03  0.29583162634E+02 -0.69013283721E+03  0.76324396252E+03  0.91035633189E+02 0.  0.
         23    2    4    4    0    0 -0.44734542438E+03  0.17266282196E+03 -0.31844230821E+04  0.32216108060E+04  0.91079311096E+02 0.  0.
          3    1    3    3  502    0 -0.13321392975E+02 -0.18014297113E+02 -0.27942874973E+02  0.35815899724E+02  0.00000000000E+00 0. -1.
         -3    1    3    3    0  502  0.14906552835E+03 -0.18423168748E+03 -0.26709177019E+03  0.35707122555E+03  0.00000000000E+00 0.  1.
         11    1    5    5    0    0  0.21335418889E+03 -0.51205470615E+01 -0.37680541580E+03  0.43304566884E+03  0.00000000000E+00 0.  1.
        -11    1    5    5    0    0  0.98247100113E+02  0.34703709695E+02 -0.31332742141E+03  0.33019829369E+03  0.00000000000E+00 0. -1.
          3    1    6    6  503    0 -0.14882535441E+03  0.12773810715E+02 -0.94993855551E+03  0.96161084416E+03  0.00000000000E+00 0. -1.
         -3    1    6    6    0  503 -0.29852006997E+03  0.15988901124E+03 -0.22344845266E+04  0.22599999619E+04  0.00000000000E+00 0.  1.
<mgrwt>
<rscale>  0 0.13338435E+04</rscale>
<asrwt>0</asrwt>
<pdfrwt beam="1">  1        2 0.65748716E+00 0.13338435E+04</pdfrwt>
<pdfrwt beam="2">  1       -2 0.16011640E-01 0.13338435E+04</pdfrwt>
<totfact> 0.64016605E+00</totfact>
</mgrwt>
</event>
<event>
12    2  0.3561489E-008  0.1387871E+04  0.7818608E-02  0.8962645E-01
         -1   -1    0    0    0  501 -0.00000000000E+00  0.00000000000E+00  0.41142812247E+03  0.41142812247E+03  0.00000000000E+00 0.  1.
          1   -1    0    0  501    0  0.00000000000E+00 -0.00000000000E+00 -0.11704267694E+04  0.11704267694E+04  0.00000000000E+00 0. -1.
         23    2    1    2    0    0  0.13473685247E+03  0.14154702045E+03  0.16476030362E+03  0.27148252001E+03  0.91472523807E+02 0.  0.
        254    2    1    2    0    0 -0.13473685247E+03 -0.14154702045E+03 -0.92375895060E+03  0.13103723719E+04  0.90860088917E+03 0.  0.
         23    2    4    4    0    0  0.23812085834E+03  0.25943352641E+03 -0.27433504251E+03  0.45590035601E+03  0.92618147576E+02 0.  0.
         23    2    4    4    0    0 -0.37285771082E+03 -0.40098054686E+03 -0.64942390810E+03  0.85447201589E+03  0.92535085550E+02 0.  0.
          3    1    3    3  502    0  0.79279329732E+02  0.41238276133E+02  0.29315538199E+02  0.94048967677E+02  0.00000000000E+00 0. -1.
         -3    1    3    3    0  502  0.55457522739E+02  0.10030874432E+03  0.13544476542E+03  0.17743355234E+03  0.00000000000E+00 0.  1.
         11    1    5    5    0    0  0.12659944073E+03  0.77290845349E+02 -0.87999586232E+02  0.17246802703E+03  0.00000000000E+00 0. -1.
        -11    1    5    5    0    0  0.11152141761E+03  0.18214268106E+03 -0.18633545627E+03  0.28343232898E+03  0.00000000000E+00 0.  1.
          1    1    6    6  503    0 -0.14775966542E+03 -0.10999888067E+03 -0.17458670941E+03  0.25379754052E+03  0.00000000000E+00 0. -1.
         -1    1    6    6    0  503 -0.22509804540E+03 -0.29098166619E+03 -0.47483719869E+03  0.60067447537E+03  0.00000000000E+00 0.  1.
<mgrwt>
<rscale>  0 0.13878710E+04</rscale>
<asrwt>0</asrwt>
<pdfrwt beam="1">  1        1 0.18006565E+00 0.13878710E+04</pdfrwt>
<pdfrwt beam="2">  1       -1 0.63296635E-01 0.13878710E+04</pdfrwt>
<totfact> 0.27756471E+01</totfact>
</mgrwt>
</event>
<event>
12    2  0.3561489E-008  0.1788681E+04  0.7818608E-02  0.8712342E-01
         -1   -1    0    0    0  501 -0.00000000000E+00  0.00000000000E+00  0.10214014903E+04  0.10214014903E+04  0.00000000000E+00 0.  1.
          1   -1    0    0  501    0  0.00000000000E+00 -0.00000000000E+00 -0.78308580104E+03  0.78308580104E+03  0.00000000000E+00 0. -1.
         23    2    1    2    0    0 -0.57530602107E+03 -0.98704402412E+02 -0.11073719673E+03  0.60058661137E+03  0.87874763620E+02 0.  0.
        254    2    1    2    0    0  0.57530602107E+03  0.98704402412E+02  0.34905288595E+03  0.12039006799E+04  0.99338781603E+03 0.  0.
         23    2    4    4    0    0 -0.34950875833E+02  0.21633967633E+03  0.50350313471E+03  0.55684417573E+03  0.92388365686E+02 0.  0.
         23    2    4    4    0    0  0.61025689690E+03 -0.11763527391E+03 -0.15445024875E+03  0.64705650421E+03  0.92605088445E+02 0.  0.
          4    1    3    3  502    0 -0.56551436876E+03 -0.85930242102E+02 -0.11600693437E+03  0.58365068029E+03  0.00000000000E+00 0. -1.
         -4    1    3    3    0  502 -0.97916523074E+01 -0.12774160311E+02  0.52697376437E+01  0.16935931075E+02  0.00000000000E+00 0.  1.
         11    1    5    5    0    0 -0.31515233762E+02  0.38495161136E+02  0.53992024248E+02  0.73418159009E+02  0.00000000000E+00 0.  1.
        -11    1    5    5    0    0 -0.34356420717E+01  0.17784451519E+03  0.44951111046E+03  0.48342601672E+03  0.00000000000E+00 0. -1.
          2    1    6    6  503    0  0.26686490513E+03 -0.22749493599E+02 -0.10366460937E+03  0.28719465226E+03  0.00000000000E+00 0. -1.
         -2    1    6    6    0  503  0.34339199177E+03 -0.94885780314E+02 -0.50785639387E+02  0.35986185195E+03  0.00000000000E+00 0.  1.
<mgrwt>
<rscale>  0 0.17886811E+04</rscale>
<asrwt>0</asrwt>
<pdfrwt beam="1">  1        1 0.12047474E+00 0.17886811E+04</pdfrwt>
<pdfrwt beam="2">  1       -1 0.15713869E+00 0.17886811E+04</pdfrwt>
<totfact> 0.66405944E+00</totfact>
</mgrwt>
</event>
<event>
12    2  0.3561489E-008  0.1443736E+04  0.7818608E-02  0.8922755E-01
          1   -1    0    0  501    0  0.00000000000E+00  0.00000000000E+00  0.10717628080E+04  0.10717628080E+04  0.00000000000E+00 0. -1.
         -1   -1    0    0    0  501 -0.00000000000E+00 -0.00000000000E+00 -0.48620222217E+03  0.48620222217E+03  0.00000000000E+00 0.  1.
         23    2    1    2    0    0  0.16121068167E+03  0.46673217842E+02  0.61119492482E+03  0.64012457539E+03  0.89626796966E+02 0.  0.
        254    2    1    2    0    0 -0.16121068167E+03 -0.46673217842E+02 -0.25634339004E+02  0.91784045477E+03  0.90200150107E+03 0.  0.
         23    2    4    4    0    0  0.30362304386E+03  0.43498441876E+02 -0.23099661420E+03  0.39381501541E+03  0.87474358428E+02 0.  0.
         23    2    4    4    0    0 -0.46483372553E+03 -0.90171659718E+02  0.20536227520E+03  0.52402543936E+03  0.90706540075E+02 0.  0.
          4    1    3    3  502    0  0.10427662546E+03  0.73058186848E+02  0.42265979544E+03  0.44142090567E+03  0.00000000000E+00 0. -1.
         -4    1    3    3    0  502  0.56934056211E+02 -0.26384969006E+02  0.18853512938E+03  0.19870366971E+03  0.00000000000E+00 0.  1.
         11    1    5    5    0    0  0.28633385833E+03  0.17955125445E+02 -0.19764094625E+03  0.34838399589E+03  0.00000000000E+00 0. -1.
        -11    1    5    5    0    0  0.17289185534E+02  0.25543316432E+02 -0.33355667953E+02  0.45431019528E+02  0.00000000000E+00 0.  1.
          1    1    6    6  503    0 -0.33483538581E+03 -0.26933622034E+02  0.12354868539E+03  0.35791679654E+03  0.00000000000E+00 0. -1.
         -1    1    6    6    0  503 -0.12999833972E+03 -0.63238037684E+02  0.81813589810E+02  0.16610864282E+03  0.00000000000E+00 0.  1.
<mgrwt>
<rscale>  0 0.14437361E+04</rscale>
<asrwt>0</asrwt>
<pdfrwt beam="1">  1        1 0.16488658E+00 0.14437361E+04</pdfrwt>
<pdfrwt beam="2">  1       -1 0.74800342E-01 0.14437361E+04</pdfrwt>
<totfact> 0.23272814E+01</totfact>
</mgrwt>
</event>
<event>
12    2  0.3561489E-008  0.1253306E+04  0.7818608E-02  0.9067436E-01
          2   -1    0    0  501    0  0.00000000000E+00  0.00000000000E+00  0.61124950384E+03  0.61124950384E+03  0.00000000000E+00 0. -1.
         -2   -1    0    0    0  501 -0.00000000000E+00 -0.00000000000E+00 -0.64244452427E+03  0.64244452427E+03  0.00000000000E+00 0.  1.
         23    2    1    2    0    0  0.50281407348E+02 -0.44460608104E+02  0.28142505666E+03  0.30290433293E+03  0.89699536188E+02 0.  0.
        254    2    1    2    0    0 -0.50281407348E+02  0.44460608104E+02 -0.31262007710E+03  0.95078969519E+03  0.89541318187E+03 0.  0.
         23    2    4    4    0    0  0.28320809611E+03 -0.27049536196E+03 -0.26369285342E+03  0.48081141321E+03  0.90945739746E+02 0.  0.
         23    2    4    4    0    0 -0.33348950346E+03  0.31495597007E+03 -0.48927223674E+02  0.46997828198E+03  0.89850989532E+02 0.  0.
          2    1    3    3  502    0  0.61625538587E+02  0.44390951308E+01  0.15965042005E+03  0.17118898678E+03  0.00000000000E+00 0. -1.
         -2    1    3    3    0  502 -0.11344131239E+02 -0.48899703235E+02  0.12177463661E+03  0.13171534615E+03  0.00000000000E+00 0.  1.
         11    1    5    5    0    0  0.16682096061E+03 -0.21664183804E+03 -0.16965304285E+03  0.32178420383E+03  0.00000000000E+00 0.  1.
        -11    1    5    5    0    0  0.11638713550E+03 -0.53853523926E+02 -0.94039810576E+02  0.15902720938E+03  0.00000000000E+00 0. -1.
          1    1    6    6  503    0 -0.88475922655E+02  0.36342980183E+02  0.70482977785E+00  0.95651962255E+02  0.00000000000E+00 0. -1.
         -1    1    6    6    0  503 -0.24501358080E+03  0.27861298988E+03 -0.49632053452E+02  0.37432631972E+03  0.00000000000E+00 0.  1.
<mgrwt>
<rscale>  0 0.12533059E+04</rscale>
<asrwt>0</asrwt>
<pdfrwt beam="1">  1        2 0.94038386E-01 0.12533059E+04</pdfrwt>
<pdfrwt beam="2">  1       -2 0.98837619E-01 0.12533059E+04</pdfrwt>
<totfact> 0.40498468E+01</totfact>
</mgrwt>
</event>
<event>
12    2  0.3561489E-008  0.1394457E+04  0.7818608E-02  0.8957841E-01
          1   -1    0    0  501    0  0.00000000000E+00  0.00000000000E+00  0.12099520813E+04  0.12099520813E+04  0.00000000000E+00 0.  1.
         -1   -1    0    0    0  501 -0.00000000000E+00 -0.00000000000E+00 -0.40177413204E+03  0.40177413204E+03  0.00000000000E+00 0. -1.
         23    2    1    2    0    0 -0.27266765055E+03  0.26976526212E+03  0.34175737804E+03  0.52153147543E+03  0.89866735311E+02 0.  0.
        254    2    1    2    0    0  0.27266765055E+03 -0.26976526212E+03  0.46642057119E+03  0.10901947379E+04  0.90766484618E+03 0.  0.
         23    2    4    4    0    0  0.44633202971E+03 -0.42010946364E+03  0.54945543298E+03  0.82776918256E+03  0.87156781616E+02 0.  0.
         23    2    4    4    0    0 -0.17366437916E+03  0.15034420152E+03 -0.83034861790E+02  0.26242555533E+03  0.95967120916E+02 0.  0.
          3    1    3    3  502    0 -0.26299115769E+03  0.22600185923E+03  0.28270522100E+03  0.44739628003E+03  0.00000000000E+00 0. -1.
         -3    1    3    3    0  502 -0.96764928561E+01  0.43763402883E+02  0.59052157039E+02  0.74135195400E+02  0.00000000000E+00 0.  1.
         11    1    5    5    0    0  0.13807494619E+03 -0.79124589366E+02  0.13004521536E+03  0.20551678629E+03  0.00000000000E+00 0.  1.
        -11    1    5    5    0    0  0.30825708352E+03 -0.34098487427E+03  0.41941021762E+03  0.62225239627E+03  0.00000000000E+00 0. -1.
          4    1    6    6  503    0 -0.92879178635E+02  0.13886010428E+03 -0.49845490333E+02  0.17433658047E+03  0.00000000000E+00 0. -1.
         -4    1    6    6    0  503 -0.80785200529E+02  0.11484097242E+02 -0.33189371458E+02  0.88088974860E+02  0.00000000000E+00 0.  1.
<mgrwt>
<rscale>  0 0.13944568E+04</rscale>
<asrwt>0</asrwt>
<pdfrwt beam="1">  1        1 0.18614647E+00 0.13944568E+04</pdfrwt>
<pdfrwt beam="2">  1       -1 0.61811405E-01 0.13944568E+04</pdfrwt>
<totfact> 0.27211319E+01</totfact>
</mgrwt>
</event>
<event>
12    2  0.3561489E-008  0.1238853E+04  0.7818608E-02  0.9079512E-01
         -2   -1    0    0    0  501 -0.00000000000E+00  0.00000000000E+00  0.47983722659E+03  0.47983722659E+03  0.00000000000E+00 0.  1.
          2   -1    0    0  501    0  0.00000000000E+00 -0.00000000000E+00 -0.79962339493E+03  0.79962339493E+03  0.00000000000E+00 0. -1.
         23    2    1    2    0    0 -0.10597243833E+03 -0.10675860407E+03  0.16218563210E+03  0.23960217742E+03  0.92073160781E+02 0.  0.
        254    2    1    2    0    0  0.10597243833E+03  0.10675860407E+03 -0.48197180043E+03  0.10398584441E+04  0.90905511941E+03 0.  0.
         23    2    4    4    0    0  0.56986972591E+02  0.27197764682E+03 -0.69323420397E+03  0.75234162885E+03  0.90691286954E+02 0.  0.
         23    2    4    4    0    0  0.48985465744E+02 -0.16521904275E+03  0.21126240354E+03  0.28751681525E+03  0.91308312647E+02 0.  0.
          1    1    3    3  502    0  0.11673502911E+02 -0.30545420470E+02  0.13848218240E+02  0.35511498565E+02  0.00000000000E+00 0. -1.
         -1    1    3    3    0  502 -0.11764594125E+03 -0.76213183600E+02  0.14833741386E+03  0.20409067886E+03  0.00000000000E+00 0.  1.
         11    1    5    5    0    0  0.83612603241E+01  0.51181865784E+02 -0.56658623451E+02  0.76809463419E+02  0.00000000000E+00 0.  1.
        -11    1    5    5    0    0  0.48625712267E+02  0.22079578104E+03 -0.63657558052E+03  0.67553216543E+03  0.00000000000E+00 0. -1.
          1    1    6    6  503    0  0.38704456477E+02 -0.14472502104E+03  0.21717924592E+03  0.26383743390E+03  0.00000000000E+00 0. -1.
         -1    1    6    6    0  503  0.10281009267E+02 -0.20494021708E+02 -0.59168423806E+01  0.23679381349E+02  0.00000000000E+00 0.  1.
<mgrwt>
<rscale>  0 0.12388528E+04</rscale>
<asrwt>0</asrwt>
<pdfrwt beam="1">  1        2 0.12301898E+00 0.12388528E+04</pdfrwt>
<pdfrwt beam="2">  1       -2 0.73821112E-01 0.12388528E+04</pdfrwt>
<totfact> 0.56130968E+01</totfact>
</mgrwt>
</event>
<event>
12    2  0.3561489E-008  0.1447381E+04  0.7818608E-02  0.8920219E-01
         -2   -1    0    0    0  501 -0.00000000000E+00  0.00000000000E+00  0.26045766800E+03  0.26045766800E+03  0.00000000000E+00 0. -1.
          2   -1    0    0  501    0  0.00000000000E+00 -0.00000000000E+00 -0.20107974025E+04  0.20107974025E+04  0.00000000000E+00 0.  1.
         23    2    1    2    0    0  0.41609699993E+03  0.76285188642E+02 -0.45207047640E+03  0.62616417220E+03  0.93582645544E+02 0.  0.
        254    2    1    2    0    0 -0.41609699993E+03 -0.76285188642E+02 -0.12982692581E+04  0.16450908983E+04  0.91753193614E+03 0.  0.
         23    2    4    4    0    0 -0.65230350128E+02  0.28477590033E+03 -0.68803479744E+02  0.31344808822E+03  0.90351940740E+02 0.  0.
         23    2    4    4    0    0 -0.35086664980E+03 -0.36106108897E+03 -0.12294657784E+04  0.13316428101E+04  0.90630886654E+02 0.  0.
          2    1    3    3  502    0  0.23642658920E+02 -0.17642025278E+02 -0.36057997923E+02  0.46587504665E+02  0.00000000000E+00 0.  1.
         -2    1    3    3    0  502  0.39245434101E+03  0.93927213920E+02 -0.41601247848E+03  0.57957666753E+03  0.00000000000E+00 0. -1.
         11    1    5    5    0    0 -0.47124789298E+02  0.27106926085E+03 -0.82112528159E+02  0.28712672677E+03  0.00000000000E+00 0. -1.
        -11    1    5    5    0    0 -0.18105560830E+02  0.13706639480E+02  0.13309048415E+02  0.26321361449E+02  0.00000000000E+00 0.  1.
          1    1    6    6  503    0 -0.29651353772E+03 -0.34108272788E+03 -0.10521381418E+04  0.11450992860E+04  0.00000000000E+00 0. -1.
         -1    1    6    6    0  503 -0.54353112088E+02 -0.19978361093E+02 -0.17732763653E+03  0.18654352410E+03  0.00000000000E+00 0.  1.
<mgrwt>
<rscale>  0 0.14473805E+04</rscale>
<asrwt>0</asrwt>
<pdfrwt beam="1">  1        2 0.30935345E+00 0.14473805E+04</pdfrwt>
<pdfrwt beam="2">  1       -2 0.40070410E-01 0.14473805E+04</pdfrwt>
<totfact> 0.37690660E+01</totfact>
</mgrwt>
</event>
<event>
12    2  0.3561489E-008  0.3353238E+04  0.7818608E-02  0.8149480E-01
          1   -1    0    0  501    0  0.00000000000E+00  0.00000000000E+00  0.35617177523E+04  0.35617177523E+04  0.00000000000E+00 0. -1.
         -1   -1    0    0    0  501 -0.00000000000E+00 -0.00000000000E+00 -0.78924010525E+03  0.78924010525E+03  0.00000000000E+00 0.  1.
         23    2    1    2    0    0  0.11630018775E+04 -0.85688507675E+03  0.54233954662E+03  0.15452754179E+04  0.83177710694E+02 0.  0.
        254    2    1    2    0    0 -0.11630018775E+04  0.85688507675E+03  0.22301381005E+04  0.28056824396E+04  0.90083994310E+03 0.  0.
         23    2    4    4    0    0 -0.41732761455E+03 -0.14270049272E+03  0.56199402720E+03  0.72035571879E+03  0.92462459924E+02 0.  0.
         23    2    4    4    0    0 -0.74567426299E+03  0.99958556947E+03  0.16681440733E+04  0.20853267209E+04  0.10335117985E+03 0.  0.
          3    1    3    3  502    0  0.83439401411E+02 -0.89687246133E+02  0.50294643417E+02  0.13242162581E+03  0.00000000000E+00 0. -1.
         -3    1    3    3    0  502  0.10795624761E+04 -0.76719783061E+03  0.49204490320E+03  0.14128537921E+04  0.00000000000E+00 0.  1.
         11    1    5    5    0    0 -0.19874096415E+03 -0.31486963594E+02  0.20516226013E+03  0.28736901832E+03  0.00000000000E+00 0. -1.
        -11    1    5    5    0    0 -0.21858665039E+03 -0.11121352913E+03  0.35683176706E+03  0.43298670046E+03  0.00000000000E+00 0.  1.
          3    1    6    6  503    0  0.34195104295E+01  0.71079734361E+01  0.11489236101E+02  0.13936243545E+02  0.00000000000E+00 0. -1.
         -3    1    6    6    0  503 -0.74909377342E+03  0.99247759603E+03  0.16566548372E+04  0.20713904773E+04  0.00000000000E+00 0.  1.
<mgrwt>
<rscale>  0 0.33532375E+04</rscale>
<asrwt>0</asrwt>
<pdfrwt beam="1">  1        1 0.54795657E+00 0.33532375E+04</pdfrwt>
<pdfrwt beam="2">  1       -1 0.12142156E+00 0.33532375E+04</pdfrwt>
<totfact> 0.11072070E-01</totfact>
</mgrwt>
</event>
<event>
12    2  0.3561489E-008  0.1836858E+04  0.7818608E-02  0.8686941E-01
          2   -1    0    0  501    0  0.00000000000E+00  0.00000000000E+00  0.68550937397E+03  0.68550937397E+03  0.00000000000E+00 0. -1.
         -2   -1    0    0    0  501 -0.00000000000E+00 -0.00000000000E+00 -0.12304890470E+04  0.12304890470E+04  0.00000000000E+00 0.  1.
         23    2    1    2    0    0  0.40826200857E+03 -0.10379599121E+03 -0.78386725466E+03  0.89404406749E+03  0.86112985494E+02 0.  0.
        254    2    1    2    0    0 -0.40826200857E+03  0.10379599121E+03  0.23888758163E+03  0.10219543535E+04  0.89992885745E+03 0.  0.
         23    2    4    4    0    0  0.14902362053E+03  0.31933819522E+03  0.20089923188E+03  0.41627574894E+03  0.93488370310E+02 0.  0.
         23    2    4    4    0    0 -0.55728562909E+03 -0.21554220401E+03  0.37988349750E+02  0.60567860452E+03  0.91530012331E+02 0.  0.
          2    1    3    3  502    0  0.70283245634E+01  0.92885667101E+01 -0.11542543690E+02  0.16398327126E+02  0.00000000000E+00 0. -1.
         -2    1    3    3    0  502  0.40123368400E+03 -0.11308455792E+03 -0.77232471097E+03  0.87764574037E+03  0.00000000000E+00 0.  1.
         11    1    5    5    0    0  0.45992464894E+02  0.13109456721E+03  0.13001611566E+03  0.19027685806E+03  0.00000000000E+00 0.  1.
        -11    1    5    5    0    0  0.10303115563E+03  0.18824362800E+03  0.70883116224E+02  0.22599889088E+03  0.00000000000E+00 0. -1.
          1    1    6    6  503    0 -0.36820881493E+03 -0.15156397447E+03  0.67619981851E+02  0.40388343825E+03  0.00000000000E+00 0. -1.
         -1    1    6    6    0  503 -0.18907681417E+03 -0.63978229541E+02 -0.29631632102E+02  0.20179516627E+03  0.00000000000E+00 0.  1.
<mgrwt>
<rscale>  0 0.18368579E+04</rscale>
<asrwt>0</asrwt>
<pdfrwt beam="1">  1        2 0.10546298E+00 0.18368579E+04</pdfrwt>
<pdfrwt beam="2">  1       -2 0.18930601E+00 0.18368579E+04</pdfrwt>
<totfact> 0.61999065E+00</totfact>
</mgrwt>
</event>
<event>
12    2  0.3561489E-008  0.1810335E+04  0.7818608E-02  0.8700823E-01
         -2   -1    0    0    0  501 -0.00000000000E+00  0.00000000000E+00  0.23259859904E+03  0.23259859904E+03  0.00000000000E+00 0.  1.
          2   -1    0    0  501    0  0.00000000000E+00 -0.00000000000E+00 -0.35224996615E+04  0.35224996615E+04  0.00000000000E+00 0. -1.
         23    2    1    2    0    0 -0.24684156590E+03 -0.35173260684E+03 -0.15697729870E+03  0.46693188769E+03  0.93471546813E+02 0.  0.
        254    2    1    2    0    0  0.24684156590E+03  0.35173260684E+03 -0.31329237637E+04  0.32881663728E+04  0.90121040866E+03 0.  0.
         23    2    4    4    0    0  0.55031667341E+03  0.26536533942E+03 -0.24994458492E+04  0.25746534425E+04  0.91343262047E+02 0.  0.
         23    2    4    4    0    0 -0.30347510750E+03  0.86367267416E+02 -0.63347791449E+03  0.71351293028E+03  0.90829443358E+02 0.  0.
          1    1    3    3  502    0 -0.89382500250E+02 -0.96986679100E+02 -0.91085278557E+02  0.16028778882E+03  0.00000000000E+00 0. -1.
         -1    1    3    3    0  502 -0.15745906565E+03 -0.25474592774E+03 -0.65892020145E+02  0.30664409887E+03  0.00000000000E+00 0.  1.
         11    1    5    5    0    0  0.17538873295E+03  0.12491801176E+03 -0.77665786625E+03  0.80595481171E+03  0.00000000000E+00 0.  1.
        -11    1    5    5    0    0  0.37492794046E+03  0.14044732766E+03 -0.17227879830E+04  0.17686986308E+04  0.00000000000E+00 0. -1.
          3    1    6    6  503    0 -0.19718269669E+03  0.10012615798E+03 -0.42954712157E+03  0.48313247979E+03  0.00000000000E+00 0. -1.
         -3    1    6    6    0  503 -0.10629241082E+03 -0.13758890560E+02 -0.20393079292E+03  0.23038045049E+03  0.00000000000E+00 0.  1.
<mgrwt>
<rscale>  0 0.18103353E+04</rscale>
<asrwt>0</asrwt>
<pdfrwt beam="1">  1        2 0.54192307E+00 0.18103353E+04</pdfrwt>
<pdfrwt beam="2">  1       -2 0.35784397E-01 0.18103353E+04</pdfrwt>
<totfact> 0.54743234E+00</totfact>
</mgrwt>
</event>
<event>
12    2  0.3561489E-008  0.1734854E+04  0.7818608E-02  0.8741732E-01
         -2   -1    0    0    0  501 -0.00000000000E+00  0.00000000000E+00  0.25785234457E+03  0.25785234457E+03  0.00000000000E+00 0.  1.
          2   -1    0    0  501    0  0.00000000000E+00 -0.00000000000E+00 -0.29180651233E+04  0.29180651233E+04  0.00000000000E+00 0. -1.
         23    2    1    2    0    0 -0.53107538802E+02 -0.55928635110E+03 -0.15101042982E+04  0.16138964347E+04  0.92871294668E+02 0.  0.
        254    2    1    2    0    0  0.53107538802E+02  0.55928635110E+03 -0.11501084805E+04  0.15620210332E+04  0.89528685784E+03 0.  0.
         23    2    4    4    0    0  0.18675556849E+03  0.45692956217E+03 -0.12493195943E+04  0.13464954579E+04  0.92673093740E+02 0.  0.
         23    2    4    4    0    0 -0.13364802969E+03  0.10235678893E+03  0.99211113787E+02  0.21552557523E+03  0.90938003064E+02 0.  0.
          3    1    3    3  502    0 -0.12559658479E+02 -0.94729036295E+02 -0.36930692663E+03  0.38146945014E+03  0.00000000000E+00 0. -1.
         -3    1    3    3    0  502 -0.40547880323E+02 -0.46455731480E+03 -0.11407973716E+04  0.12324269846E+04  0.00000000000E+00 0.  1.
         11    1    5    5    0    0  0.16642262522E+03  0.32701198580E+03 -0.84200710817E+03  0.91848206256E+03  0.00000000000E+00 0.  1.
        -11    1    5    5    0    0  0.20332943271E+02  0.12991757637E+03 -0.40731248615E+03  0.42801339536E+03  0.00000000000E+00 0. -1.
          4    1    6    6  503    0 -0.10468437050E+03  0.39510076463E+02  0.26174835274E+02  0.11491294779E+03  0.00000000000E+00 0.  1.
         -4    1    6    6    0  503 -0.28963659190E+02  0.62846712463E+02  0.73036278513E+02  0.10061262744E+03  0.00000000000E+00 0. -1.
<mgrwt>
<rscale>  0 0.17348544E+04</rscale>
<asrwt>0</asrwt>
<pdfrwt beam="1">  1        2 0.44893311E+00 0.17348544E+04</pdfrwt>
<pdfrwt beam="2">  1       -2 0.39669590E-01 0.17348544E+04</pdfrwt>
<totfact> 0.11213325E+01</totfact>
</mgrwt>
</event>
<event>
12    2  0.3561489E-008  0.1401658E+04  0.7818608E-02  0.8952619E-01
          2   -1    0    0  501    0  0.00000000000E+00  0.00000000000E+00  0.15363514079E+04  0.15363514079E+04  0.00000000000E+00 0.  1.
         -2   -1    0    0    0  501 -0.00000000000E+00 -0.00000000000E+00 -0.31969353371E+03  0.31969353371E+03  0.00000000000E+00 0. -1.
         23    2    1    2    0    0  0.28230786530E+03  0.25824257919E+03  0.54231039430E+03  0.66972055643E+03  0.89655448392E+02 0.  0.
        254    2    1    2    0    0 -0.28230786530E+03 -0.25824257919E+03  0.67434747987E+03  0.11863243852E+04  0.89790537514E+03 0.  0.
         23    2    4    4    0    0 -0.23089025510E+03  0.57796992645E+02  0.79289659387E+03  0.83301627752E+03  0.92629950821E+02 0.  0.
         23    2    4    4    0    0 -0.51417610197E+02 -0.31603957184E+03 -0.11854911400E+03  0.35330810764E+03  0.90818196889E+02 0.  0.
          3    1    3    3  502    0  0.13185716184E+03  0.85858669679E+02  0.16163293735E+03  0.22557311171E+03  0.00000000000E+00 0. -1.
         -3    1    3    3    0  502  0.15045070346E+03  0.17238390951E+03  0.38067745695E+03  0.44414744473E+03  0.00000000000E+00 0.  1.
         11    1    5    5    0    0 -0.20763398514E+03  0.77816905428E+02  0.64743931878E+03  0.68435737305E+03  0.00000000000E+00 0.  1.
        -11    1    5    5    0    0 -0.23256269959E+02 -0.20019912783E+02  0.14545727509E+03  0.14865890447E+03  0.00000000000E+00 0. -1.
          4    1    6    6  503    0 -0.77170304729E+02 -0.21766504764E+03 -0.76696798615E+02  0.24334281952E+03  0.00000000000E+00 0. -1.
         -4    1    6    6    0  503  0.25752694532E+02 -0.98374524197E+02 -0.41852315383E+02  0.10996528811E+03  0.00000000000E+00 0.  1.
<mgrwt>
<rscale>  0 0.14016585E+04</rscale>
<asrwt>0</asrwt>
<pdfrwt beam="1">  1        2 0.23636175E+00 0.14016585E+04</pdfrwt>
<pdfrwt beam="2">  1       -2 0.49183621E-01 0.14016585E+04</pdfrwt>
<totfact> 0.46105133E+01</totfact>
</mgrwt>
</event>
<event>
12    2  0.3561489E-008  0.3391696E+04  0.7818608E-02  0.8139947E-01
          2   -1    0    0  501    0  0.00000000000E+00  0.00000000000E+00  0.33326956024E+04  0.33326956024E+04  0.00000000000E+00 0. -1.
         -2   -1    0    0    0  501 -0.00000000000E+00 -0.00000000000E+00 -0.86293530704E+03  0.86293530704E+03  0.00000000000E+00 0.  1.
         23    2    1    2    0    0  0.50788069035E+03  0.14230898961E+04  0.17125328477E+04  0.22856808839E+04  0.91873284698E+02 0.  0.
        254    2    1    2    0    0 -0.50788069035E+03 -0.14230898961E+04  0.75722744766E+03  0.19099500255E+04  0.88959993507E+03 0.  0.
         23    2    4    4    0    0  0.76696144109E+02 -0.21639826451E+03  0.47644615951E+03  0.53677968877E+03  0.91765919407E+02 0.  0.
         23    2    4    4    0    0 -0.58457683446E+03 -0.12066916316E+04  0.28078128816E+03  0.13731703368E+04  0.94466252188E+02 0.  0.
          1    1    3    3  502    0  0.16939639892E+03  0.53967628276E+03  0.58293421061E+03  0.81225483935E+03  0.00000000000E+00 0. -1.
         -1    1    3    3    0  502  0.33848429144E+03  0.88341361337E+03  0.11295986371E+04  0.14734260446E+04  0.00000000000E+00 0.  1.
         11    1    5    5    0    0  0.23540029436E+02 -0.11540279760E+02  0.11481049478E+03  0.11776570279E+03  0.00000000000E+00 0. -1.
        -11    1    5    5    0    0  0.53156114673E+02 -0.20485798475E+03  0.36163566473E+03  0.41901398598E+03  0.00000000000E+00 0.  1.
          3    1    6    6  503    0 -0.33981341121E+03 -0.79048016322E+03  0.20370627101E+03  0.88421054491E+03  0.00000000000E+00 0. -1.
         -3    1    6    6    0  503 -0.24476342325E+03 -0.41621146840E+03  0.77075017144E+02  0.48895979186E+03  0.00000000000E+00 0.  1.
<mgrwt>
<rscale>  0 0.33916962E+04</rscale>
<asrwt>0</asrwt>
<pdfrwt beam="1">  1        2 0.51272240E+00 0.33916962E+04</pdfrwt>
<pdfrwt beam="2">  1       -2 0.13275928E+00 0.33916962E+04</pdfrwt>
<totfact> 0.36103172E-01</totfact>
</mgrwt>
</event>
<event>
12    2  0.3561489E-008  0.1072204E+04  0.7818608E-02  0.9232715E-01
          1   -1    0    0  501    0  0.00000000000E+00  0.00000000000E+00  0.98419667905E+02  0.98419667905E+02  0.00000000000E+00 0. -1.
         -1   -1    0    0    0  501 -0.00000000000E+00 -0.00000000000E+00 -0.29202016586E+04  0.29202016586E+04  0.00000000000E+00 0.  1.
         23    2    1    2    0    0 -0.62517352745E+02 -0.60554460632E+02 -0.74327052307E+03  0.75355590431E+03  0.88431715832E+02 0.  0.
        254    2    1    2    0    0  0.62517352745E+02  0.60554460632E+02 -0.20785114676E+04  0.22650654222E+04  0.89595545852E+03 0.  0.
         23    2    4    4    0    0  0.29290731899E+03  0.33844636525E+03 -0.15707638123E+04  0.16354667651E+04  0.84332354266E+02 0.  0.
         23    2    4    4    0    0 -0.23038996625E+03 -0.27789190461E+03 -0.50774765527E+03  0.62959865706E+03  0.91012858122E+02 0.  0.
          2    1    3    3  502    0 -0.10110863452E+02 -0.49351422541E+02 -0.15799218815E+03  0.16582920124E+03  0.00000000000E+00 0. -1.
         -2    1    3    3    0  502 -0.52406489293E+02 -0.11203038091E+02 -0.58527833492E+03  0.58772670308E+03  0.00000000000E+00 0.  1.
         11    1    5    5    0    0  0.21337931738E+03  0.29636769164E+03 -0.12358078851E+04  0.12886371370E+04  0.00000000000E+00 0. -1.
        -11    1    5    5    0    0  0.79528001607E+02  0.42078673604E+02 -0.33495592718E+03  0.34682962815E+03  0.00000000000E+00 0.  1.
          2    1    6    6  503    0 -0.17021985228E+03 -0.24748006191E+03 -0.44882262867E+03  0.54005826646E+03  0.00000000000E+00 0. -1.
         -2    1    6    6    0  503 -0.60170113961E+02 -0.30411842700E+02 -0.58925026600E+02  0.89540390609E+02  0.00000000000E+00 0.  1.
<mgrwt>
<rscale>  0 0.10722039E+04</rscale>
<asrwt>0</asrwt>
<pdfrwt beam="1">  1        1 0.15141485E-01 0.10722039E+04</pdfrwt>
<pdfrwt beam="2">  1       -1 0.44926185E+00 0.10722039E+04</pdfrwt>
<totfact> 0.12737837E+00</totfact>
</mgrwt>
</event>
<event>
12    2  0.3561489E-008  0.2418941E+04  0.7818608E-02  0.8432446E-01
         -1   -1    0    0    0  501 -0.00000000000E+00  0.00000000000E+00  0.74257997361E+03  0.74257997361E+03  0.00000000000E+00 0.  1.
          1   -1    0    0  501    0  0.00000000000E+00 -0.00000000000E+00 -0.19699144844E+04  0.19699144844E+04  0.00000000000E+00 0. -1.
         23    2    1    2    0    0  0.31554410282E+03  0.40042535292E+03  0.49067886290E+03  0.71355679173E+03  0.92135793455E+02 0.  0.
        254    2    1    2    0    0 -0.31554410282E+03 -0.40042535292E+03 -0.17180133737E+04  0.19989376663E+04  0.88559206037E+03 0.  0.
         23    2    4    4    0    0 -0.44498170466E+03 -0.58577981273E+03 -0.10300996353E+04  0.12690460752E+04  0.90697164739E+02 0.  0.
         23    2    4    4    0    0  0.12943760184E+03  0.18535445981E+03 -0.68791373841E+03  0.72989159116E+03  0.91684539614E+02 0.  0.
          4    1    3    3  502    0  0.54089712195E+02  0.25457429458E+02  0.42226031749E+02  0.73190268733E+02  0.00000000000E+00 0. -1.
         -4    1    3    3    0  502  0.26145439062E+03  0.37496792346E+03  0.44845283116E+03  0.64036652300E+03  0.00000000000E+00 0.  1.
         11    1    5    5    0    0 -0.15918453774E+03 -0.28389101957E+03 -0.44915007151E+03  0.55467974074E+03  0.00000000000E+00 0. -1.
        -11    1    5    5    0    0 -0.28579716692E+03 -0.30188879316E+03 -0.58094956382E+03  0.71436633442E+03  0.00000000000E+00 0.  1.
          4    1    6    6  503    0  0.41910920555E+02  0.30241638522E+02 -0.71233723556E+02  0.88007529984E+02  0.00000000000E+00 0.  1.
         -4    1    6    6    0  503  0.87526681283E+02  0.15511282129E+03 -0.61668001486E+03  0.64188406117E+03  0.00000000000E+00 0. -1.
<mgrwt>
<rscale>  0 0.24189411E+04</rscale>
<asrwt>0</asrwt>
<pdfrwt beam="1">  1        1 0.30306377E+00 0.24189411E+04</pdfrwt>
<pdfrwt beam="2">  1       -1 0.11424307E+00 0.24189411E+04</pdfrwt>
<totfact> 0.19484122E+00</totfact>
</mgrwt>
</event>
<event>
12    2  0.3561489E-008  0.1752759E+04  0.7818608E-02  0.8731833E-01
         -2   -1    0    0    0  501 -0.00000000000E+00  0.00000000000E+00  0.63039625771E+03  0.63039625771E+03  0.00000000000E+00 0.  1.
          2   -1    0    0  501    0  0.00000000000E+00 -0.00000000000E+00 -0.12183470977E+04  0.12183470977E+04  0.00000000000E+00 0. -1.
         23    2    1    2    0    0  0.21036458492E+03  0.30070069472E+03 -0.77555185545E+03  0.86302397320E+03  0.93035108582E+02 0.  0.
        254    2    1    2    0    0 -0.21036458492E+03 -0.30070069472E+03  0.18760101545E+03  0.98571938222E+03  0.89541855749E+03 0.  0.
         23    2    4    4    0    0  0.30410851987E+03 -0.31185968944E+03  0.76775076330E+02  0.45152861510E+03  0.90803194634E+02 0.  0.
         23    2    4    4    0    0 -0.51447310479E+03  0.11158994716E+02  0.11082593912E+03  0.53419076712E+03  0.90941124772E+02 0.  0.
          1    1    3    3  502    0  0.20828244356E+03  0.28684732297E+03 -0.68395334325E+03  0.77036039536E+03  0.00000000000E+00 0. -1.
         -1    1    3    3    0  502  0.20821413617E+01  0.13853371754E+02 -0.91598512197E+02  0.92663577842E+02  0.00000000000E+00 0.  1.
         11    1    5    5    0    0  0.28659649973E+02 -0.44442878283E+01  0.19161654122E+02  0.34760555513E+02  0.00000000000E+00 0. -1.
        -11    1    5    5    0    0  0.27544886990E+03 -0.30741540161E+03  0.57613422208E+02  0.41676805959E+03  0.00000000000E+00 0.  1.
          1    1    6    6  503    0 -0.38220886899E+03 -0.31105116554E+02  0.74145621456E+02  0.39057485965E+03  0.00000000000E+00 0. -1.
         -1    1    6    6    0  503 -0.13226423581E+03  0.42264111269E+02  0.36680317663E+02  0.14361590747E+03  0.00000000000E+00 0.  1.
<mgrwt>
<rscale>  0 0.17527595E+04</rscale>
<asrwt>0</asrwt>
<pdfrwt beam="1">  1        2 0.18743801E+00 0.17527595E+04</pdfrwt>
<pdfrwt beam="2">  1       -2 0.96984041E-01 0.17527595E+04</pdfrwt>
<totfact> 0.15542416E+01</totfact>
</mgrwt>
</event>
<event>
12    2  0.3561489E-008  0.1491741E+04  0.7818608E-02  0.8889963E-01
          2   -1    0    0  501    0  0.00000000000E+00  0.00000000000E+00  0.16789953400E+04  0.16789953400E+04  0.00000000000E+00 0. -1.
         -2   -1    0    0    0  501 -0.00000000000E+00 -0.00000000000E+00 -0.33134280987E+03  0.33134280987E+03  0.00000000000E+00 0.  1.
         23    2    1    2    0    0 -0.41026785248E+02 -0.39041985820E+03  0.91005804211E+02  0.41356737283E+03  0.92978775428E+02 0.  0.
        254    2    1    2    0    0  0.41026785248E+02  0.39041985820E+03  0.12566467260E+04  0.15967707771E+04  0.90355135876E+03 0.  0.
         23    2    4    4    0    0 -0.28756121313E+03  0.46990462683E+03  0.44954148169E+03  0.71691453005E+03  0.91526444420E+02 0.  0.
         23    2    4    4    0    0  0.32858799837E+03 -0.79484768624E+02  0.80710524428E+03  0.87985624704E+03  0.91870773408E+02 0.  0.
          3    1    3    3  502    0  0.11221010416E+02 -0.16295299115E+03  0.74695439690E+02  0.17960789824E+03  0.00000000000E+00 0. -1.
         -3    1    3    3    0  502 -0.52247795663E+02 -0.22746686706E+03  0.16310364522E+02  0.23395947459E+03  0.00000000000E+00 0.  1.
         11    1    5    5    0    0 -0.16655444326E+03  0.29615258780E+03  0.33053653635E+03  0.47402651792E+03  0.00000000000E+00 0. -1.
        -11    1    5    5    0    0 -0.12100676987E+03  0.17375203903E+03  0.11900494533E+03  0.24288801213E+03  0.00000000000E+00 0.  1.
          3    1    6    6  503    0  0.12692523988E+03 -0.74869211322E+02  0.30450215079E+03  0.33828534577E+03  0.00000000000E+00 0. -1.
         -3    1    6    6    0  503  0.20166275850E+03 -0.46155573020E+01  0.50260309348E+03  0.54157090128E+03  0.00000000000E+00 0.  1.
<mgrwt>
<rscale>  0 0.14917413E+04</rscale>
<asrwt>0</asrwt>
<pdfrwt beam="1">  1        2 0.25830697E+00 0.14917413E+04</pdfrwt>
<pdfrwt beam="2">  1       -2 0.50975818E-01 0.14917413E+04</pdfrwt>
<totfact> 0.35424182E+01</totfact>
</mgrwt>
</event>
<event>
12    2  0.3561489E-008  0.1402940E+04  0.7818608E-02  0.8951693E-01
          2   -1    0    0  501    0  0.00000000000E+00  0.00000000000E+00  0.10275934211E+04  0.10275934211E+04  0.00000000000E+00 0. -1.
         -2   -1    0    0    0  501 -0.00000000000E+00 -0.00000000000E+00 -0.47884730849E+03  0.47884730849E+03  0.00000000000E+00 0.  1.
         23    2    1    2    0    0  0.12448416922E+03  0.13560551709E+03  0.54838259441E+03  0.58578280210E+03  0.92373463400E+02 0.  0.
        254    2    1    2    0    0 -0.12448416922E+03 -0.13560551709E+03  0.36351817073E+00  0.92065792745E+03  0.90206747119E+03 0.  0.
         23    2    4    4    0    0 -0.27348517976E+03 -0.23238722905E+03 -0.35504894365E+03  0.51290047171E+03  0.90604490587E+02 0.  0.
         23    2    4    4    0    0  0.14900101054E+03  0.96781711963E+02  0.35541246182E+03  0.40775745574E+03  0.91543016031E+02 0.  0.
          3    1    3    3  502    0  0.26348879671E+02  0.46830516147E+02  0.63585610655E+02  0.83249568076E+02  0.00000000000E+00 0.  1.
         -3    1    3    3    0  502  0.98135289549E+02  0.88775000943E+02  0.48479698375E+03  0.50253323403E+03  0.00000000000E+00 0. -1.
         11    1    5    5    0    0 -0.75320169530E+02 -0.37220552294E+02 -0.41297567511E+02  0.93616165983E+02  0.00000000000E+00 0. -1.
        -11    1    5    5    0    0 -0.19816501023E+03 -0.19516667676E+03 -0.31375137614E+03  0.41928430572E+03  0.00000000000E+00 0.  1.
          2    1    6    6  503    0  0.47885521098E+02  0.58605086469E+02  0.72095387507E+02  0.10452427560E+03  0.00000000000E+00 0. -1.
         -2    1    6    6    0  503  0.10111548944E+03  0.38176625494E+02  0.28331707431E+03  0.30323318014E+03  0.00000000000E+00 0.  1.
<mgrwt>
<rscale>  0 0.14029403E+04</rscale>
<asrwt>0</asrwt>
<pdfrwt beam="1">  1        2 0.15809130E+00 0.14029403E+04</pdfrwt>
<pdfrwt beam="2">  1       -2 0.73668817E-01 0.14029403E+04</pdfrwt>
<totfact> 0.39110192E+01</totfact>
</mgrwt>
</event>
<event>
12    2  0.3561489E-008  0.2304562E+04  0.7818608E-02  0.8476124E-01
          1   -1    0    0  501    0  0.00000000000E+00  0.00000000000E+00  0.20420953852E+04  0.20420953852E+04  0.00000000000E+00 0. -1.
         -1   -1    0    0    0  501 -0.00000000000E+00 -0.00000000000E+00 -0.65019094859E+03  0.65019094859E+03  0.00000000000E+00 0.  1.
         23    2    1    2    0    0 -0.54106857275E+03 -0.24538740296E+03  0.14929156548E+04  0.16096330994E+04  0.95662868275E+02 0.  0.
        254    2    1    2    0    0  0.54106857275E+03  0.24538740296E+03 -0.10101121825E+03  0.10826532343E+04  0.89942458365E+03 0.  0.
         23    2    4    4    0    0 -0.95897918824E+02  0.86657572685E+02  0.27541861221E+03  0.32032646359E+03  0.10023814437E+03 0.  0.
         23    2    4    4    0    0  0.63696649158E+03  0.15872983027E+03 -0.37642983046E+03  0.76232677076E+03  0.92310442218E+02 0.  0.
          3    1    3    3  502    0 -0.50538297670E+03 -0.25282151646E+03  0.13915698902E+04  0.15019312340E+04  0.00000000000E+00 0. -1.
         -3    1    3    3    0  502 -0.35685596053E+02  0.74341135017E+01  0.10134576459E+03  0.10770186540E+03  0.00000000000E+00 0.  1.
         11    1    5    5    0    0  0.12917983324E+02 -0.55844985559E+01  0.56538776367E+01  0.15166649254E+02  0.00000000000E+00 0. -1.
        -11    1    5    5    0    0 -0.10881590215E+03  0.92242071241E+02  0.26976473457E+03  0.30515981434E+03  0.00000000000E+00 0.  1.
          4    1    6    6  503    0  0.14303206359E+03  0.42151768242E+02 -0.13147585191E+03  0.19879849702E+03  0.00000000000E+00 0. -1.
         -4    1    6    6    0  503  0.49393442799E+03  0.11657806203E+03 -0.24495397855E+03  0.56352827374E+03  0.00000000000E+00 0.  1.
<mgrwt>
<rscale>  0 0.23045624E+04</rscale>
<asrwt>0</asrwt>
<pdfrwt beam="1">  1        1 0.31416852E+00 0.23045624E+04</pdfrwt>
<pdfrwt beam="2">  1       -1 0.10002938E+00 0.23045624E+04</pdfrwt>
<totfact> 0.24007589E+00</totfact>
</mgrwt>
</event>
<event>
12    2  0.3561489E-008  0.1282429E+04  0.7818608E-02  0.9043616E-01
          1   -1    0    0  501    0  0.00000000000E+00  0.00000000000E+00  0.55761947247E+03  0.55761947247E+03  0.00000000000E+00 0. -1.
         -1   -1    0    0    0  501 -0.00000000000E+00 -0.00000000000E+00 -0.73734165847E+03  0.73734165847E+03  0.00000000000E+00 0.  1.
         23    2    1    2    0    0  0.24189849204E+03  0.17854213276E+03 -0.13933385076E+03  0.34384003829E+03  0.91759884183E+02 0.  0.
        254    2    1    2    0    0 -0.24189849204E+03 -0.17854213276E+03 -0.40388335238E+02  0.95112109265E+03  0.90144769212E+03 0.  0.
         23    2    4    4    0    0  0.13441455783E+03 -0.44893816695E+03 -0.37214177453E+02  0.47895039193E+03  0.91628771821E+02 0.  0.
         23    2    4    4    0    0 -0.37631304987E+03  0.27039603419E+03 -0.31741577848E+01  0.47217070072E+03  0.90606669408E+02 0.  0.
          3    1    3    3  502    0  0.14625690549E+03  0.53455872474E+02 -0.54504966424E+02  0.16498304176E+03  0.00000000000E+00 0. -1.
         -3    1    3    3    0  502  0.95641586554E+02  0.12508626029E+03 -0.84828884334E+02  0.17885699653E+03  0.00000000000E+00 0.  1.
         11    1    5    5    0    0  0.12231422602E+03 -0.44887938868E+03 -0.38191430923E+02  0.46681051923E+03  0.00000000000E+00 0. -1.
        -11    1    5    5    0    0  0.12100331806E+02 -0.58778266035E-01  0.97725346914E+00  0.12139872694E+02  0.00000000000E+00 0.  1.
          1    1    6    6  503    0 -0.20026115907E+03  0.15015282574E+03 -0.46586919619E+02  0.25459918301E+03  0.00000000000E+00 0. -1.
         -1    1    6    6    0  503 -0.17605189079E+03  0.12024320845E+03  0.43412761834E+02  0.21757151772E+03  0.00000000000E+00 0.  1.
<mgrwt>
<rscale>  0 0.12824290E+04</rscale>
<asrwt>0</asrwt>
<pdfrwt beam="1">  1        1 0.85787612E-01 0.12824290E+04</pdfrwt>
<pdfrwt beam="2">  1       -1 0.11343718E+00 0.12824290E+04</pdfrwt>
<totfact> 0.26557796E+01</totfact>
</mgrwt>
</event>
<event>
12    2  0.3561489E-008  0.1872650E+04  0.7818608E-02  0.8668591E-01
         -1   -1    0    0    0  501 -0.00000000000E+00  0.00000000000E+00  0.10774122614E+04  0.10774122614E+04  0.00000000000E+00 0.  1.
          1   -1    0    0  501    0  0.00000000000E+00 -0.00000000000E+00 -0.81371311548E+03  0.81371311548E+03  0.00000000000E+00 0. -1.
         23    2    1    2    0    0  0.44640207029E+03  0.55845932693E+03  0.64202493699E+02  0.72585889421E+03  0.10769190268E+03 0.  0.
        254    2    1    2    0    0 -0.44640207029E+03 -0.55845932693E+03  0.19949665225E+03  0.11652664827E+04  0.89827358486E+03 0.  0.
         23    2    4    4    0    0 -0.43714811164E+02 -0.17788531059E+03 -0.33304108393E+03  0.39149131181E+03  0.93781209190E+02 0.  0.
         23    2    4    4    0    0 -0.40268725913E+03 -0.38057401635E+03  0.53253773618E+03  0.77377517090E+03  0.90210664947E+02 0.  0.
          1    1    3    3  502    0  0.15024220690E+03  0.13334644354E+03  0.52468732328E+02  0.20762216310E+03  0.00000000000E+00 0. -1.
         -1    1    3    3    0  502  0.29615986339E+03  0.42511288340E+03  0.11733761371E+02  0.51823673111E+03  0.00000000000E+00 0.  1.
         11    1    5    5    0    0 -0.34061750089E+02 -0.10473445366E+03 -0.10637458883E+03  0.15311780351E+03  0.00000000000E+00 0. -1.
        -11    1    5    5    0    0 -0.96530610744E+01 -0.73150856929E+02 -0.22666649510E+03  0.23837350830E+03  0.00000000000E+00 0.  1.
          4    1    6    6  503    0 -0.26198485615E+02 -0.44041470739E+02  0.22247267223E+02  0.55865487488E+02  0.00000000000E+00 0. -1.
         -4    1    6    6    0  503 -0.37648877351E+03 -0.33653254561E+03  0.51029046896E+03  0.71790968341E+03  0.00000000000E+00 0.  1.
<mgrwt>
<rscale>  0 0.18726500E+04</rscale>
<asrwt>0</asrwt>
<pdfrwt beam="1">  1        1 0.12518663E+00 0.18726500E+04</pdfrwt>
<pdfrwt beam="2">  1       -1 0.16575573E+00 0.18726500E+04</pdfrwt>
<totfact> 0.53363084E+00</totfact>
</mgrwt>
</event>
<event>
12    2  0.3561489E-008  0.1360956E+04  0.7818608E-02  0.8982576E-01
          2   -1    0    0  501    0  0.00000000000E+00  0.00000000000E+00  0.33072038929E+04  0.33072038929E+04  0.00000000000E+00 0. -1.
         -2   -1    0    0    0  501 -0.00000000000E+00 -0.00000000000E+00 -0.14001252794E+03  0.14001252794E+03  0.00000000000E+00 0.  1.
         23    2    1    2    0    0  0.36089481200E+03  0.52682529123E+02  0.11693236847E+04  0.12313371640E+04  0.12590797280E+03 0.  0.
        254    2    1    2    0    0 -0.36089481200E+03 -0.52682529123E+02  0.19978676802E+04  0.22158792568E+04  0.88635495086E+03 0.  0.
         23    2    4    4    0    0 -0.39629762334E+03 -0.25359019916E+03  0.47258134981E+03  0.67352643362E+03  0.94577635966E+02 0.  0.
         23    2    4    4    0    0  0.35402811345E+02  0.20090767004E+03  0.15252863304E+04  0.15423528232E+04  0.10361752036E+03 0.  0.
          3    1    3    3  502    0  0.21266054037E+03  0.70536117713E+02  0.84665243791E+03  0.87579689424E+03  0.00000000000E+00 0. -1.
         -3    1    3    3    0  502  0.14823427163E+03 -0.17853588589E+02  0.32267124678E+03  0.35554026974E+03  0.00000000000E+00 0.  1.
         11    1    5    5    0    0 -0.23241190012E+03 -0.15418313945E+03  0.21346283383E+03  0.35121804230E+03  0.00000000000E+00 0. -1.
        -11    1    5    5    0    0 -0.16388572322E+03 -0.99407059716E+02  0.25911851598E+03  0.32230839133E+03  0.00000000000E+00 0.  1.
          1    1    6    6  503    0  0.19093644794E+02  0.93671961201E+02  0.10726372628E+04  0.10768888991E+04  0.00000000000E+00 0. -1.
         -1    1    6    6    0  503  0.16309166551E+02  0.10723570884E+03  0.45264906766E+03  0.46546392408E+03  0.00000000000E+00 0.  1.
<mgrwt>
<rscale>  0 0.13609555E+04</rscale>
<asrwt>0</asrwt>
<pdfrwt beam="1">  1        2 0.50880054E+00 0.13609555E+04</pdfrwt>
<pdfrwt beam="2">  1       -2 0.21540391E-01 0.13609555E+04</pdfrwt>
<totfact> 0.20459055E+01</totfact>
</mgrwt>
</event>
<event>
12    2  0.3561489E-008  0.3433760E+04  0.7818608E-02  0.8129670E-01
         -1   -1    0    0    0  501 -0.00000000000E+00  0.00000000000E+00  0.16036769974E+04  0.16036769974E+04  0.00000000000E+00 0.  1.
          1   -1    0    0  501    0  0.00000000000E+00 -0.00000000000E+00 -0.18380734571E+04  0.18380734571E+04  0.00000000000E+00 0. -1.
         23    2    1    2    0    0 -0.28391501121E+03 -0.49339247945E+03  0.13851891254E+04  0.15002314412E+04  0.88890897846E+02 0.  0.
        254    2    1    2    0    0  0.28391501121E+03  0.49339247945E+03 -0.16195855852E+04  0.19415190132E+04  0.90685982304E+03 0.  0.
         23    2    4    4    0    0  0.22469721946E+03  0.11158572855E+03  0.61647531935E+01  0.26794813876E+03  0.93904130029E+02 0.  0.
         23    2    4    4    0    0  0.59217791753E+02  0.38180675090E+03 -0.16257503384E+04  0.16735708745E+04  0.92152955787E+02 0.  0.
          4    1    3    3  502    0 -0.20203902436E+03 -0.39529697276E+03  0.99206468044E+03  0.10868632822E+04  0.00000000000E+00 0. -1.
         -4    1    3    3    0  502 -0.81875986850E+02 -0.98095506689E+02  0.39312444499E+03  0.41336815903E+03  0.00000000000E+00 0.  1.
         11    1    5    5    0    0  0.67171141543E+02  0.19803014650E+02 -0.38953027527E+02  0.80134012747E+02  0.00000000000E+00 0.  1.
        -11    1    5    5    0    0  0.15752607791E+03  0.91782713900E+02  0.45117780720E+02  0.18781412602E+03  0.00000000000E+00 0. -1.
          3    1    6    6  503    0  0.42016972330E+02  0.36200765511E+03 -0.15729350829E+04  0.16146020387E+04  0.00000000000E+00 0. -1.
         -3    1    6    6    0  503  0.17200819424E+02  0.19799095783E+02 -0.52815255500E+02  0.58968835805E+02  0.00000000000E+00 0.  1.
<mgrwt>
<rscale>  0 0.34337595E+04</rscale>
<asrwt>0</asrwt>
<pdfrwt beam="1">  1        1 0.28278053E+00 0.34337595E+04</pdfrwt>
<pdfrwt beam="2">  1       -1 0.24671954E+00 0.34337595E+04</pdfrwt>
<totfact> 0.23067328E-01</totfact>
</mgrwt>
</event>
<event>
12    2  0.3561489E-008  0.1910214E+04  0.7818608E-02  0.8649789E-01
         -1   -1    0    0    0  501 -0.00000000000E+00  0.00000000000E+00  0.13913171617E+04  0.13913171617E+04  0.00000000000E+00 0.  1.
          1   -1    0    0  501    0  0.00000000000E+00 -0.00000000000E+00 -0.65565894245E+03  0.65565894245E+03  0.00000000000E+00 0. -1.
         23    2    1    2    0    0  0.45765513499E+03  0.50642635238E+03  0.57762498467E+03  0.89804813880E+03  0.83210358287E+02 0.  0.
        254    2    1    2    0    0 -0.45765513499E+03 -0.50642635238E+03  0.15803323461E+03  0.11489279654E+04  0.91057404609E+03 0.  0.
         23    2    4    4    0    0 -0.32364561793E+03 -0.48160363713E+03 -0.30269250537E+03  0.65985838450E+03  0.84272091988E+02 0.  0.
         23    2    4    4    0    0 -0.13400951705E+03 -0.24822715251E+02  0.46072573998E+03  0.48906958087E+03  0.91357154064E+02 0.  0.
          2    1    3    3  502    0  0.20987950150E+01  0.10267518974E+02  0.23864890270E+02  0.26064532875E+02  0.00000000000E+00 0. -1.
         -2    1    3    3    0  502  0.45555633997E+03  0.49615883341E+03  0.55376009440E+03  0.87198360592E+03  0.00000000000E+00 0.  1.
         11    1    5    5    0    0 -0.28272307369E+02 -0.41042888123E+02 -0.55744912710E+02  0.74775245386E+02  0.00000000000E+00 0. -1.
        -11    1    5    5    0    0 -0.29537331057E+03 -0.44056074900E+03 -0.24694759266E+03  0.58508313912E+03  0.00000000000E+00 0.  1.
          3    1    6    6  503    0 -0.83491990490E+02 -0.23458391536E+02  0.14219700062E+03  0.16655688396E+03  0.00000000000E+00 0. -1.
         -3    1    6    6    0  503 -0.50517526563E+02 -0.13643237156E+01  0.31852873936E+03  0.32251269691E+03  0.00000000000E+00 0.  1.
<mgrwt>
<rscale>  0 0.19102142E+04</rscale>
<asrwt>0</asrwt>
<pdfrwt beam="1">  1        1 0.10087061E+00 0.19102142E+04</pdfrwt>
<pdfrwt beam="2">  1       -1 0.21404879E+00 0.19102142E+04</pdfrwt>
<totfact> 0.33914678E+00</totfact>
</mgrwt>
</event>
<event>
12    2  0.3561489E-008  0.1891831E+04  0.7818608E-02  0.8658934E-01
         -2   -1    0    0    0  501 -0.00000000000E+00  0.00000000000E+00  0.10118906904E+04  0.10118906904E+04  0.00000000000E+00 0.  1.
          2   -1    0    0  501    0  0.00000000000E+00 -0.00000000000E+00 -0.88424151124E+03  0.88424151124E+03  0.00000000000E+00 0. -1.
         23    2    1    2    0    0  0.34045665110E+03  0.22568203251E+03 -0.53927801458E+03  0.68251666256E+03  0.90360979325E+02 0.  0.
        254    2    1    2    0    0 -0.34045665110E+03 -0.22568203251E+03  0.66692719378E+03  0.12136155391E+04  0.92802353631E+03 0.  0.
         23    2    4    4    0    0 -0.57107707850E+03 -0.14558274544E+03  0.73268787681E+03  0.94467308059E+03  0.90842385567E+02 0.  0.
         23    2    4    4    0    0  0.23062042740E+03 -0.80099287071E+02 -0.65760683024E+02  0.26894245854E+03  0.91672794504E+02 0.  0.
          4    1    3    3  502    0  0.23541829291E+03  0.17013802390E+03 -0.44228239117E+03  0.52913366303E+03  0.00000000000E+00 0. -1.
         -4    1    3    3    0  502  0.10503835819E+03  0.55544008608E+02 -0.96995623409E+02  0.15338299953E+03  0.00000000000E+00 0.  1.
         11    1    5    5    0    0 -0.52585810355E+03 -0.10884804891E+03  0.64335704599E+03  0.83802322846E+03  0.00000000000E+00 0. -1.
        -11    1    5    5    0    0 -0.45218974952E+02 -0.36734696522E+02  0.89330830814E+02  0.10664985212E+03  0.00000000000E+00 0.  1.
          3    1    6    6  503    0  0.13548161348E+03 -0.32497321814E+01 -0.14356729179E+02  0.13627891995E+03  0.00000000000E+00 0. -1.
         -3    1    6    6    0  503  0.95138813919E+02 -0.76849554889E+02 -0.51403953845E+02  0.13266353859E+03  0.00000000000E+00 0.  1.
<mgrwt>
<rscale>  0 0.18918306E+04</rscale>
<asrwt>0</asrwt>
<pdfrwt beam="1">  1        2 0.13603716E+00 0.18918306E+04</pdfrwt>
<pdfrwt beam="2">  1       -2 0.15567549E+00 0.18918306E+04</pdfrwt>
<totfact> 0.76401449E+00</totfact>
</mgrwt>
</event>
<event>
12    2  0.3561489E-008  0.1930562E+04  0.7818608E-02  0.8639792E-01
         -1   -1    0    0    0  501 -0.00000000000E+00  0.00000000000E+00  0.13309788560E+04  0.13309788560E+04  0.00000000000E+00 0.  1.
          1   -1    0    0  501    0  0.00000000000E+00 -0.00000000000E+00 -0.70006142157E+03  0.70006142157E+03  0.00000000000E+00 0. -1.
         23    2    1    2    0    0  0.68696662420E+03 -0.26722249157E+03  0.83749175106E+02  0.74798379091E+03  0.95576275122E+02 0.  0.
        254    2    1    2    0    0 -0.68696662420E+03  0.26722249157E+03  0.54716825932E+03  0.12830564867E+04  0.89638710453E+03 0.  0.
         23    2    4    4    0    0  0.11031689806E+03  0.32039856133E+03  0.22099429209E+03  0.41502566578E+03  0.92643240544E+02 0.  0.
         23    2    4    4    0    0 -0.79728352226E+03 -0.53176069760E+02  0.32617396723E+03  0.86803082087E+03  0.92732625381E+02 0.  0.
          3    1    3    3  502    0  0.68774042594E+03 -0.26584285059E+03  0.77334612878E+02  0.74137706805E+03  0.00000000000E+00 0. -1.
         -3    1    3    3    0  502 -0.77380174005E+00 -0.13796409857E+01  0.64145622279E+01  0.66067228607E+01  0.00000000000E+00 0.  1.
         11    1    5    5    0    0  0.10698390431E+03  0.18082846481E+03  0.11332013266E+03  0.23871728453E+03  0.00000000000E+00 0.  1.
        -11    1    5    5    0    0  0.33329937522E+01  0.13957009652E+03  0.10767415943E+03  0.17630838125E+03  0.00000000000E+00 0. -1.
          4    1    6    6  503    0 -0.14702219666E+03 -0.63172511413E+01  0.22649749190E+02  0.14889071533E+03  0.00000000000E+00 0. -1.
         -4    1    6    6    0  503 -0.65026132560E+03 -0.46858818619E+02  0.30352421804E+03  0.71914010553E+03  0.00000000000E+00 0.  1.
<mgrwt>
<rscale>  0 0.19305615E+04</rscale>
<asrwt>0</asrwt>
<pdfrwt beam="1">  1        1 0.10770176E+00 0.19305615E+04</pdfrwt>
<pdfrwt beam="2">  1       -1 0.20476598E+00 0.19305615E+04</pdfrwt>
<totfact> 0.35472956E+00</totfact>
</mgrwt>
</event>
<event>
12    2  0.3561489E-008  0.2098593E+04  0.7818608E-02  0.8561863E-01
         -1   -1    0    0    0  501 -0.00000000000E+00  0.00000000000E+00  0.80162569580E+03  0.80162569580E+03  0.00000000000E+00 0.  1.
          1   -1    0    0  501    0  0.00000000000E+00 -0.00000000000E+00 -0.13734880174E+04  0.13734880174E+04  0.00000000000E+00 0. -1.
         23    2    1    2    0    0  0.79568683854E+03  0.31435215091E+03 -0.11608002822E+03  0.86810697379E+03  0.90555646874E+02 0.  0.
        254    2    1    2    0    0 -0.79568683854E+03 -0.31435215091E+03 -0.45578229342E+03  0.13070067395E+04  0.87669509989E+03 0.  0.
         23    2    4    4    0    0  0.10243719661E+03  0.14598758710E+03 -0.14117622830E+03  0.24601833008E+03  0.93747194407E+02 0.  0.
         23    2    4    4    0    0 -0.89812403515E+03 -0.46033973801E+03 -0.31460606512E+03  0.10609884094E+04  0.90443195986E+02 0.  0.
          1    1    3    3  502    0  0.75342620467E+02  0.25376348255E+02 -0.37779075680E+02  0.88021179661E+02  0.00000000000E+00 0. -1.
         -1    1    3    3    0  502  0.72034421807E+03  0.28897580266E+03 -0.78300952544E+02  0.78008579413E+03  0.00000000000E+00 0.  1.
         11    1    5    5    0    0 -0.80271317892E+01  0.49529125833E+02 -0.60644365608E+02  0.78710280336E+02  0.00000000000E+00 0. -1.
        -11    1    5    5    0    0  0.11046432840E+03  0.96458461270E+02 -0.80531862692E+02  0.16730804974E+03  0.00000000000E+00 0.  1.
          1    1    6    6  503    0 -0.13153999134E+03 -0.52614048800E+02 -0.14921602155E+02  0.14245582355E+03  0.00000000000E+00 0. -1.
         -1    1    6    6    0  503 -0.76658404381E+03 -0.40772568921E+03 -0.29968446296E+03  0.91853258582E+03  0.00000000000E+00 0.  1.
<mgrwt>
<rscale>  0 0.20985931E+04</rscale>
<asrwt>0</asrwt>
<pdfrwt beam="1">  1        1 0.21130584E+00 0.20985931E+04</pdfrwt>
<pdfrwt beam="2">  1       -1 0.12332703E+00 0.20985931E+04</pdfrwt>
<totfact> 0.42693298E+00</totfact>
</mgrwt>
</event>
<event>
12    2  0.3561489E-008  0.2477540E+04  0.7818608E-02  0.8411031E-01
          1   -1    0    0  501    0  0.00000000000E+00  0.00000000000E+00  0.21440745885E+04  0.21440745885E+04  0.00000000000E+00 0. -1.
         -1   -1    0    0    0  501 -0.00000000000E+00 -0.00000000000E+00 -0.71571697841E+03  0.71571697841E+03  0.00000000000E+00 0.  1.
         23    2    1    2    0    0 -0.41698712381E+03  0.97377360642E+03  0.79000454828E+03  0.13245988912E+04  0.91333116729E+02 0.  0.
        254    2    1    2    0    0  0.41698712381E+03 -0.97377360642E+03  0.63835306183E+03  0.15351926758E+04  0.90951010009E+03 0.  0.
         23    2    4    4    0    0  0.55752448510E+03 -0.84910206700E+03  0.77836175358E+03  0.12829536139E+04  0.91187084572E+02 0.  0.
         23    2    4    4    0    0 -0.14053736129E+03 -0.12467153942E+03 -0.14000869174E+03  0.25223906183E+03  0.93425734618E+02 0.  0.
          4    1    3    3  502    0 -0.38263656008E+03  0.93717849236E+03  0.74154962671E+03  0.12548346953E+04  0.00000000000E+00 0. -1.
         -4    1    3    3    0  502 -0.34350563729E+02  0.36595114059E+02  0.48454921575E+02  0.69764195877E+02  0.00000000000E+00 0.  1.
         11    1    5    5    0    0  0.55666820828E+03 -0.85102644920E+03  0.77353129953E+03  0.12776839135E+04  0.00000000000E+00 0.  1.
        -11    1    5    5    0    0  0.85627682117E+00  0.19243821956E+01  0.48304540471E+01  0.52697004782E+01  0.00000000000E+00 0. -1.
          2    1    6    6  503    0 -0.11542509721E+03 -0.41153284437E+02 -0.84773958616E+02  0.14900728152E+03  0.00000000000E+00 0.  1.
         -2    1    6    6    0  503 -0.25112264080E+02 -0.83518254983E+02 -0.55234733128E+02  0.10323178031E+03  0.00000000000E+00 0. -1.
<mgrwt>
<rscale>  0 0.24775396E+04</rscale>
<asrwt>0</asrwt>
<pdfrwt beam="1">  1        1 0.32985763E+00 0.24775396E+04</pdfrwt>
<pdfrwt beam="2">  1       -1 0.11011031E+00 0.24775396E+04</pdfrwt>
<totfact> 0.16114895E+00</totfact>
</mgrwt>
</event>
<event>
12    2  0.3561489E-008  0.1303610E+04  0.7818608E-02  0.9026707E-01
          2   -1    0    0  501    0  0.00000000000E+00  0.00000000000E+00  0.66202226616E+03  0.66202226616E+03  0.00000000000E+00 0. -1.
         -2   -1    0    0    0  501 -0.00000000000E+00 -0.00000000000E+00 -0.64174580173E+03  0.64174580173E+03  0.00000000000E+00 0.  1.
         23    2    1    2    0    0 -0.32549083117E+03  0.30778783075E+02  0.10080798635E+02  0.33935980560E+03  0.90398232805E+02 0.  0.
        254    2    1    2    0    0  0.32549083117E+03 -0.30778783075E+02  0.10195665796E+02  0.96440826229E+03  0.90724182560E+03 0.  0.
         23    2    4    4    0    0  0.39024389458E+03 -0.32165011546E+03 -0.23812912922E+03  0.56636889572E+03  0.91209373545E+02 0.  0.
         23    2    4    4    0    0 -0.64753063407E+02  0.29087133239E+03  0.24832479502E+03  0.39803936657E+03  0.89280693859E+02 0.  0.
          2    1    3    3  502    0 -0.28229394899E+03  0.40982909172E+02  0.36698983036E+02  0.28760439468E+03  0.00000000000E+00 0. -1.
         -2    1    3    3    0  502 -0.43196882177E+02 -0.10204126096E+02 -0.26618184401E+02  0.51755410925E+02  0.00000000000E+00 0.  1.
         11    1    5    5    0    0  0.21017588625E+01  0.54206089208E+01 -0.25017777697E+00  0.58191906919E+01  0.00000000000E+00 0. -1.
        -11    1    5    5    0    0  0.38814213571E+03 -0.32707072438E+03 -0.23787895145E+03  0.56054970503E+03  0.00000000000E+00 0.  1.
          3    1    6    6  503    0  0.12125404012E+02  0.83415923235E+01  0.27892694426E+02  0.31537437868E+02  0.00000000000E+00 0. -1.
         -3    1    6    6    0  503 -0.76878467419E+02  0.28252974006E+03  0.22043210059E+03  0.36650192871E+03  0.00000000000E+00 0.  1.
<mgrwt>
<rscale>  0 0.13036104E+04</rscale>
<asrwt>0</asrwt>
<pdfrwt beam="1">  1        2 0.10184958E+00 0.13036104E+04</pdfrwt>
<pdfrwt beam="2">  1       -2 0.98730124E-01 0.13036104E+04</pdfrwt>
<totfact> 0.36675949E+01</totfact>
</mgrwt>
</event>
<event>
12    2  0.3561489E-008  0.1359074E+04  0.7818608E-02  0.8983988E-01
          2   -1    0    0  501    0  0.00000000000E+00  0.00000000000E+00  0.12853793493E+04  0.12853793493E+04  0.00000000000E+00 0.  1.
         -2   -1    0    0    0  501 -0.00000000000E+00 -0.00000000000E+00 -0.35924822135E+03  0.35924822135E+03  0.00000000000E+00 0. -1.
         23    2    1    2    0    0  0.26984250810E+02 -0.34585535178E+03  0.87489299883E+02  0.36962654242E+03  0.92872650021E+02 0.  0.
        254    2    1    2    0    0 -0.26984250810E+02  0.34585535178E+03  0.83864182806E+03  0.12750010282E+04  0.89552411026E+03 0.  0.
         23    2    4    4    0    0 -0.21702017109E+03 -0.21363474106E+03  0.11749235112E+03  0.33820681248E+03  0.88554153983E+02 0.  0.
         23    2    4    4    0    0  0.19003592028E+03  0.55949009284E+03  0.72114947695E+03  0.93679421575E+03  0.91564292044E+02 0.  0.
          2    1    3    3  502    0 -0.23607068382E+02 -0.17773182000E+03  0.15812974773E+02  0.17998873211E+03  0.00000000000E+00 0.  1.
         -2    1    3    3    0  502  0.50591319192E+02 -0.16812353178E+03  0.71676325110E+02  0.18963781031E+03  0.00000000000E+00 0. -1.
         11    1    5    5    0    0  0.26152132714E+01 -0.31127497766E+02  0.70209393472E+01  0.32016465248E+02  0.00000000000E+00 0.  1.
        -11    1    5    5    0    0 -0.21963538436E+03 -0.18250724329E+03  0.11047141177E+03  0.30619034723E+03  0.00000000000E+00 0. -1.
          3    1    6    6  503    0  0.19171561383E+03  0.54292664843E+03  0.71711862785E+03  0.91966480229E+03  0.00000000000E+00 0. -1.
         -3    1    6    6    0  503 -0.16796935484E+01  0.16563444403E+02  0.40308490981E+01  0.17129413456E+02  0.00000000000E+00 0.  1.
<mgrwt>
<rscale>  0 0.13590736E+04</rscale>
<asrwt>0</asrwt>
<pdfrwt beam="1">  1        2 0.19775067E+00 0.13590736E+04</pdfrwt>
<pdfrwt beam="2">  1       -2 0.55268958E-01 0.13590736E+04</pdfrwt>
<totfact> 0.50643603E+01</totfact>
</mgrwt>
</event>
<event>
12    2  0.3561489E-008  0.1278082E+04  0.7818608E-02  0.9047129E-01
         -2   -1    0    0    0  501 -0.00000000000E+00  0.00000000000E+00  0.14829498693E+03  0.14829498693E+03  0.00000000000E+00 0. -1.
          2   -1    0    0  501    0  0.00000000000E+00 -0.00000000000E+00 -0.27537900637E+04  0.27537900637E+04  0.00000000000E+00 0.  1.
         23    2    1    2    0    0 -0.16478102856E+01  0.19575352202E+03 -0.12852327430E+03  0.25284717798E+03  0.95348344046E+02 0.  0.
        254    2    1    2    0    0  0.16478102856E+01 -0.19575352202E+03 -0.24769718025E+04  0.26492378726E+04  0.91910273583E+03 0.  0.
         23    2    4    4    0    0  0.37377400229E+02  0.31198373960E+03 -0.44310487313E+03  0.55061395741E+03  0.90015985704E+02 0.  0.
         23    2    4    4    0    0 -0.35729589944E+02 -0.50773726162E+03 -0.20338669293E+04  0.20986239152E+04  0.92379223485E+02 0.  0.
          4    1    3    3  502    0  0.23392443413E+02  0.15409657311E+03 -0.13182115246E+03  0.20413176257E+03  0.00000000000E+00 0. -1.
         -4    1    3    3    0  502 -0.25040253699E+02  0.41656948915E+02  0.32978781660E+01  0.48715415410E+02  0.00000000000E+00 0.  1.
         11    1    5    5    0    0 -0.13768838917E+02  0.22172237206E+03 -0.32122573015E+03  0.39055903639E+03  0.00000000000E+00 0.  1.
        -11    1    5    5    0    0  0.51146239146E+02  0.90261367539E+02 -0.12187914297E+03  0.16005492101E+03  0.00000000000E+00 0. -1.
          1    1    6    6  503    0 -0.22079699452E+02 -0.28337618545E+02 -0.19262844013E+03  0.19594961010E+03  0.00000000000E+00 0. -1.
         -1    1    6    6    0  503 -0.13649890492E+02 -0.47939964307E+03 -0.18412384892E+04  0.19026743051E+04  0.00000000000E+00 0.  1.
<mgrwt>
<rscale>  0 0.12780818E+04</rscale>
<asrwt>0</asrwt>
<pdfrwt beam="1">  1        2 0.42365995E+00 0.12780818E+04</pdfrwt>
<pdfrwt beam="2">  1       -2 0.22814616E-01 0.12780818E+04</pdfrwt>
<totfact> 0.41292069E+01</totfact>
</mgrwt>
</event>
<event>
12    2  0.3561489E-008  0.2187056E+04  0.7818608E-02  0.8523835E-01
          1   -1    0    0  501    0  0.00000000000E+00  0.00000000000E+00  0.18200945409E+04  0.18200945409E+04  0.00000000000E+00 0. -1.
         -1   -1    0    0    0  501 -0.00000000000E+00 -0.00000000000E+00 -0.65700079236E+03  0.65700079236E+03  0.00000000000E+00 0.  1.
         23    2    1    2    0    0 -0.24236391809E+03 -0.53289319453E+03 -0.29980139561E+03  0.66398467671E+03  0.90990925514E+02 0.  0.
        254    2    1    2    0    0  0.24236391809E+03  0.53289319453E+03  0.14628951441E+04  0.18131106565E+04  0.89699087205E+03 0.  0.
         23    2    4    4    0    0 -0.26651125077E+03  0.23178870210E+03  0.19871226751E+03  0.41450933426E+03  0.87046962736E+02 0.  0.
         23    2    4    4    0    0  0.50887516886E+03  0.30110449244E+03  0.12641828766E+04  0.13986013223E+04  0.91156241054E+02 0.  0.
          2    1    3    3  502    0 -0.54579535860E+02 -0.84035111236E+02 -0.18291275532E+02  0.10185968985E+03  0.00000000000E+00 0. -1.
         -2    1    3    3    0  502 -0.18778438223E+03 -0.44885808330E+03 -0.28151012008E+03  0.56212498686E+03  0.00000000000E+00 0.  1.
         11    1    5    5    0    0 -0.83106584432E+02  0.29688437115E+02  0.27929428986E+02  0.92564359652E+02  0.00000000000E+00 0. -1.
        -11    1    5    5    0    0 -0.18340466634E+03  0.20210026498E+03  0.17078283853E+03  0.32194497461E+03  0.00000000000E+00 0.  1.
          2    1    6    6  503    0  0.11084051511E+03  0.99691885597E+02  0.25819379510E+03  0.29814112040E+03  0.00000000000E+00 0. -1.
         -2    1    6    6    0  503  0.39803465375E+03  0.20141260684E+03  0.10059890815E+04  0.11004602019E+04  0.00000000000E+00 0.  1.
<mgrwt>
<rscale>  0 0.21870561E+04</rscale>
<asrwt>0</asrwt>
<pdfrwt beam="1">  1        1 0.28001454E+00 0.21870561E+04</pdfrwt>
<pdfrwt beam="2">  1       -1 0.10107705E+00 0.21870561E+04</pdfrwt>
<totfact> 0.33504793E+00</totfact>
</mgrwt>
</event>
<event>
12    2  0.3561489E-008  0.1441706E+04  0.7818608E-02  0.8924171E-01
         -2   -1    0    0    0  501 -0.00000000000E+00  0.00000000000E+00  0.56819421875E+03  0.56819421875E+03  0.00000000000E+00 0.  1.
          2   -1    0    0  501    0  0.00000000000E+00 -0.00000000000E+00 -0.91452685866E+03  0.91452685866E+03  0.00000000000E+00 0. -1.
         23    2    1    2    0    0  0.11974606258E+03 -0.16242753717E+02  0.31796233571E+03  0.35265388653E+03  0.93068631679E+02 0.  0.
        254    2    1    2    0    0 -0.11974606258E+03  0.16242753717E+02 -0.66429497561E+03  0.11300671909E+04  0.90617939434E+03 0.  0.
         23    2    4    4    0    0 -0.39781544861E+03  0.16716949038E+03 -0.64334985127E+02  0.44562754297E+03  0.90786271437E+02 0.  0.
         23    2    4    4    0    0  0.27806938603E+03 -0.15092673666E+03 -0.59995999048E+03  0.68443964791E+03  0.91674304779E+02 0.  0.
          1    1    3    3  502    0  0.36922129543E+01 -0.34055407923E+02  0.57119804133E+02  0.66603868277E+02  0.00000000000E+00 0. -1.
         -1    1    3    3    0  502  0.11605384962E+03  0.17812654206E+02  0.26084253158E+03  0.28605001825E+03  0.00000000000E+00 0.  1.
         11    1    5    5    0    0 -0.87396490323E+02  0.78643125525E+02 -0.69929489712E+01  0.11777855938E+03  0.00000000000E+00 0.  1.
        -11    1    5    5    0    0 -0.31041895828E+03  0.88526364856E+02 -0.57342036156E+02  0.32784898360E+03  0.00000000000E+00 0. -1.
          2    1    6    6  503    0  0.21374134585E+03 -0.14361571949E+03 -0.52922589179E+03  0.58854981297E+03  0.00000000000E+00 0.  1.
         -2    1    6    6    0  503  0.64328040177E+02 -0.73110171763E+01 -0.70734098694E+02  0.95889834931E+02  0.00000000000E+00 0. -1.
<mgrwt>
<rscale>  0 0.14417058E+04</rscale>
<asrwt>0</asrwt>
<pdfrwt beam="1">  1        2 0.14069644E+00 0.14417058E+04</pdfrwt>
<pdfrwt beam="2">  1       -2 0.87414496E-01 0.14417058E+04</pdfrwt>
<totfact> 0.31447131E+01</totfact>
</mgrwt>
</event>
<event>
12    2  0.3561489E-008  0.1798736E+04  0.7818608E-02  0.8706972E-01
          2   -1    0    0  501    0  0.00000000000E+00  0.00000000000E+00  0.17175962772E+04  0.17175962772E+04  0.00000000000E+00 0. -1.
         -2   -1    0    0    0  501 -0.00000000000E+00 -0.00000000000E+00 -0.47092711989E+03  0.47092711989E+03  0.00000000000E+00 0.  1.
         23    2    1    2    0    0 -0.13796136689E+03 -0.71512058892E+02 -0.32310175063E+03  0.37045573535E+03  0.93249114048E+02 0.  0.
        254    2    1    2    0    0  0.13796136689E+03  0.71512058892E+02  0.15697709080E+04  0.18180676618E+04  0.90390375922E+03 0.  0.
         23    2    4    4    0    0  0.39585035422E+03 -0.11631609816E+03  0.33490489710E+03  0.53935684207E+03  0.92290711105E+02 0.  0.
         23    2    4    4    0    0 -0.25788898733E+03  0.18782815705E+03  0.12348660109E+04  0.12787108197E+04  0.91766819992E+02 0.  0.
          3    1    3    3  502    0 -0.15622193146E+02 -0.55723088035E+02 -0.10291103787E+03  0.11806691821E+03  0.00000000000E+00 0. -1.
         -3    1    3    3    0  502 -0.12233917374E+03 -0.15788970857E+02 -0.22019071276E+03  0.25238881714E+03  0.00000000000E+00 0.  1.
         11    1    5    5    0    0  0.13809177379E+03 -0.21145733843E+02  0.64580374818E+02  0.15390615602E+03  0.00000000000E+00 0.  1.
        -11    1    5    5    0    0  0.25775858043E+03 -0.95170364317E+02  0.27032452229E+03  0.38545068605E+03  0.00000000000E+00 0. -1.
          2    1    6    6  503    0 -0.66635797360E+01 -0.29792859145E+01  0.45687626348E+01  0.86112154468E+01  0.00000000000E+00 0. -1.
         -2    1    6    6    0  503 -0.25122540759E+03  0.19080744297E+03  0.12302972482E+04  0.12700996043E+04  0.00000000000E+00 0.  1.
<mgrwt>
<rscale>  0 0.17987359E+04</rscale>
<asrwt>0</asrwt>
<pdfrwt beam="1">  1        2 0.26424558E+00 0.17987359E+04</pdfrwt>
<pdfrwt beam="2">  1       -2 0.72450327E-01 0.17987359E+04</pdfrwt>
<totfact> 0.15603043E+01</totfact>
</mgrwt>
</event>
<event>
12    2  0.3561489E-008  0.1502823E+04  0.7818608E-02  0.8882578E-01
          1   -1    0    0  501    0  0.00000000000E+00  0.00000000000E+00  0.26581080939E+03  0.26581080939E+03  0.00000000000E+00 0. -1.
         -1   -1    0    0    0  501 -0.00000000000E+00 -0.00000000000E+00 -0.21241381707E+04  0.21241381707E+04  0.00000000000E+00 0.  1.
         23    2    1    2    0    0  0.23576719324E+03  0.22528267306E+03 -0.92053037015E+03  0.98089973856E+03  0.91922154777E+02 0.  0.
        254    2    1    2    0    0 -0.23576719324E+03 -0.22528267306E+03 -0.93779699114E+03  0.14090492415E+04  0.99980903988E+03 0.  0.
         23    2    4    4    0    0 -0.34099047367E+03 -0.38867387434E+03 -0.10450603013E+04  0.11696059821E+04  0.92115342887E+02 0.  0.
         23    2    4    4    0    0  0.10522328043E+03  0.16339120128E+03  0.10726331015E+03  0.23944325937E+03  0.89772119022E+02 0.  0.
          1    1    3    3  502    0  0.23205899991E+03  0.18512991009E+03 -0.77577994058E+03  0.83063769434E+03  0.00000000000E+00 0.  1.
         -1    1    3    3    0  502  0.37081933373E+01  0.40152762969E+02 -0.14475042958E+03  0.15026204422E+03  0.00000000000E+00 0. -1.
         11    1    5    5    0    0 -0.14505216866E+02 -0.14978637536E+02 -0.13339320315E+02  0.24752744600E+02  0.00000000000E+00 0. -1.
        -11    1    5    5    0    0 -0.32648525681E+03 -0.37369523680E+03 -0.10317209810E+04  0.11448532375E+04  0.00000000000E+00 0.  1.
          2    1    6    6  503    0  0.70564398825E+02  0.11536034481E+03  0.24127831615E+02  0.13736628332E+03  0.00000000000E+00 0. -1.
         -2    1    6    6    0  503  0.34658881603E+02  0.48030856471E+02  0.83135478537E+02  0.10207697605E+03  0.00000000000E+00 0.  1.
<mgrwt>
<rscale>  0 0.15028225E+04</rscale>
<asrwt>0</asrwt>
<pdfrwt beam="1">  1        1 0.40893970E-01 0.15028225E+04</pdfrwt>
<pdfrwt beam="2">  1       -1 0.32679050E+00 0.15028225E+04</pdfrwt>
<totfact> 0.22026039E+00</totfact>
</mgrwt>
</event>
<event>
12    2  0.3561489E-008  0.1599025E+04  0.7818608E-02  0.8821147E-01
         -1   -1    0    0    0  501 -0.00000000000E+00  0.00000000000E+00  0.59576038718E+03  0.59576038718E+03  0.00000000000E+00 0.  1.
          1   -1    0    0  501    0  0.00000000000E+00 -0.00000000000E+00 -0.10729488952E+04  0.10729488952E+04  0.00000000000E+00 0. -1.
         23    2    1    2    0    0 -0.32486520158E+03 -0.77350395984E+02  0.35821722093E+03  0.49785047382E+03  0.89526721957E+02 0.  0.
        254    2    1    2    0    0  0.32486520158E+03  0.77350395984E+02 -0.83540572891E+03  0.11708588085E+04  0.74932445217E+03 0.  0.
         23    2    4    4    0    0  0.39088923601E+03  0.20289055838E+03 -0.88653133416E+03  0.99390270565E+03  0.89139263775E+02 0.  0.
         23    2    4    4    0    0 -0.66024034429E+02 -0.12554016240E+03  0.51125605243E+02  0.17695610286E+03  0.92628987534E+02 0.  0.
          1    1    3    3  502    0 -0.14155867878E+03 -0.78376449980E+02  0.18288580918E+03  0.24419039017E+03  0.00000000000E+00 0. -1.
         -1    1    3    3    0  502 -0.18330652280E+03  0.10260539956E+01  0.17533141175E+03  0.25366008365E+03  0.00000000000E+00 0.  1.
         11    1    5    5    0    0  0.16889601580E+02  0.23850657768E+02 -0.27949839875E+02  0.40438917722E+02  0.00000000000E+00 0. -1.
        -11    1    5    5    0    0  0.37399963443E+03  0.17903990062E+03 -0.85858149428E+03  0.95346378793E+03  0.00000000000E+00 0.  1.
          2    1    6    6  503    0 -0.65113815758E+02 -0.62908033437E+02  0.66646311371E+02  0.11242313148E+03  0.00000000000E+00 0. -1.
         -2    1    6    6    0  503 -0.91021867146E+00 -0.62632128961E+02 -0.15520706127E+02  0.64532971379E+02  0.00000000000E+00 0.  1.
<mgrwt>
<rscale>  0 0.15990253E+04</rscale>
<asrwt>0</asrwt>
<pdfrwt beam="1">  1        1 0.16506906E+00 0.15990253E+04</pdfrwt>
<pdfrwt beam="2">  1       -1 0.91655445E-01 0.15990253E+04</pdfrwt>
<totfact> 0.14799446E+01</totfact>
</mgrwt>
</event>
<event>
12    2  0.3561489E-008  0.2680888E+04  0.7818608E-02  0.8341233E-01
          2   -1    0    0  501    0  0.00000000000E+00  0.00000000000E+00  0.20588261793E+04  0.20588261793E+04  0.00000000000E+00 0. -1.
         -2   -1    0    0    0  501 -0.00000000000E+00 -0.00000000000E+00 -0.87272573868E+03  0.87272573868E+03  0.00000000000E+00 0.  1.
         23    2    1    2    0    0  0.50277376634E+03  0.81304376307E+03 -0.24402681930E+03  0.99049907341E+03  0.87850470131E+02 0.  0.
        254    2    1    2    0    0 -0.50277376634E+03 -0.81304376307E+03  0.14301272599E+04  0.19410528446E+04  0.89922218893E+03 0.  0.
         23    2    4    4    0    0 -0.44219976209E+03 -0.59421647395E+03  0.15098764139E+04  0.16841427073E+04  0.89308598183E+02 0.  0.
         23    2    4    4    0    0 -0.60574004247E+02 -0.21882728912E+03 -0.79749153957E+02  0.25691013731E+03  0.89934968976E+02 0.  0.
          1    1    3    3  502    0  0.64561671759E+01  0.14600540949E+02  0.70025405258E+01  0.17432540389E+02  0.00000000000E+00 0. -1.
         -1    1    3    3    0  502  0.49631759916E+03  0.79844322212E+03 -0.25102935983E+03  0.97306653302E+03  0.00000000000E+00 0.  1.
         11    1    5    5    0    0 -0.32078118516E+03 -0.40355022483E+03  0.11312488009E+04  0.12431722335E+04  0.00000000000E+00 0.  1.
        -11    1    5    5    0    0 -0.12141857693E+03 -0.19066624912E+03  0.37862761299E+03  0.44097047372E+03  0.00000000000E+00 0. -1.
          4    1    6    6  503    0  0.48503533931E+01 -0.46796268456E+02 -0.53092323895E+02  0.70938082340E+02  0.00000000000E+00 0. -1.
         -4    1    6    6    0  503 -0.65424357640E+02 -0.17203102066E+03 -0.26656830062E+02  0.18597205497E+03  0.00000000000E+00 0.  1.
<mgrwt>
<rscale>  0 0.26808884E+04</rscale>
<asrwt>0</asrwt>
<pdfrwt beam="1">  1        2 0.31674249E+00 0.26808884E+04</pdfrwt>
<pdfrwt beam="2">  1       -2 0.13426550E+00 0.26808884E+04</pdfrwt>
<totfact> 0.21778221E+00</totfact>
</mgrwt>
</event>
<event>
12    2  0.3561489E-008  0.1252978E+04  0.7818608E-02  0.9067709E-01
          1   -1    0    0  501    0  0.00000000000E+00  0.00000000000E+00  0.32050707161E+04  0.32050707161E+04  0.00000000000E+00 0. -1.
         -1   -1    0    0    0  501 -0.00000000000E+00 -0.00000000000E+00 -0.12245850785E+03  0.12245850785E+03  0.00000000000E+00 0.  1.
         23    2    1    2    0    0 -0.19623724134E+03 -0.33836755799E+02  0.19239095311E+03  0.29296233743E+03  0.95700947658E+02 0.  0.
        254    2    1    2    0    0  0.19623724134E+03  0.33836755799E+02  0.28902212551E+04  0.30345668865E+04  0.90308543567E+03 0.  0.
         23    2    4    4    0    0 -0.19519587985E+03 -0.30245227543E+03  0.84525515992E+03  0.92347205169E+03  0.93624433036E+02 0.  0.
         23    2    4    4    0    0  0.39143312120E+03  0.33628903123E+03  0.20449660952E+04  0.21110948348E+04  0.92330223092E+02 0.  0.
          2    1    3    3  502    0 -0.43916709134E+02 -0.18707490009E+01  0.10645916527E+03  0.11517695478E+03  0.00000000000E+00 0. -1.
         -2    1    3    3    0  502 -0.15232053221E+03 -0.31966006798E+02  0.85931787841E+02  0.17778538265E+03  0.00000000000E+00 0.  1.
         11    1    5    5    0    0  0.14541386993E+01 -0.16573950201E+02  0.11027595574E+02  0.19960416046E+02  0.00000000000E+00 0.  1.
        -11    1    5    5    0    0 -0.19665001855E+03 -0.28587832523E+03  0.83422756434E+03  0.90351163564E+03  0.00000000000E+00 0. -1.
          3    1    6    6  503    0  0.49072577282E+02  0.27701811070E+02  0.35319391913E+03  0.35766108634E+03  0.00000000000E+00 0. -1.
         -3    1    6    6    0  503  0.34236054392E+03  0.30858722016E+03  0.16917721761E+04  0.17534337485E+04  0.00000000000E+00 0.  1.
<mgrwt>
<rscale>  0 0.12529775E+04</rscale>
<asrwt>0</asrwt>
<pdfrwt beam="1">  1        1 0.49308774E+00 0.12529775E+04</pdfrwt>
<pdfrwt beam="2">  1       -1 0.18839773E-01 0.12529775E+04</pdfrwt>
<totfact> 0.95280085E+00</totfact>
</mgrwt>
</event>
<event>
12    2  0.3561489E-008  0.1408351E+04  0.7818608E-02  0.8947796E-01
         -2   -1    0    0    0  501 -0.00000000000E+00  0.00000000000E+00  0.21317307856E+03  0.21317307856E+03  0.00000000000E+00 0.  1.
          2   -1    0    0  501    0  0.00000000000E+00 -0.00000000000E+00 -0.23261068864E+04  0.23261068864E+04  0.00000000000E+00 0. -1.
         23    2    1    2    0    0  0.36671354312E+03 -0.16746275113E+03 -0.84494410326E+03  0.94072967649E+03  0.92299463079E+02 0.  0.
        254    2    1    2    0    0 -0.36671354312E+03  0.16746275113E+03 -0.12679897046E+04  0.15985502885E+04  0.88602626266E+03 0.  0.
         23    2    4    4    0    0 -0.49227978648E+03 -0.19924575704E+03 -0.50531519796E+03  0.73873745059E+03  0.91385511633E+02 0.  0.
         23    2    4    4    0    0  0.12556624336E+03  0.36670850817E+03 -0.76267450660E+03  0.85981283786E+03  0.85812013752E+02 0.  0.
          3    1    3    3  502    0  0.51225830374E+02 -0.39006602768E+02 -0.75305885563E+02  0.99078641277E+02  0.00000000000E+00 0. -1.
         -3    1    3    3    0  502  0.31548771274E+03 -0.12845614836E+03 -0.76963821769E+03  0.84165103521E+03  0.00000000000E+00 0.  1.
         11    1    5    5    0    0 -0.85343892519E+02 -0.36138450555E+02 -0.14090873036E+03  0.16865597496E+03  0.00000000000E+00 0. -1.
        -11    1    5    5    0    0 -0.40693589396E+03 -0.16310730649E+03 -0.36440646760E+03  0.57008147563E+03  0.00000000000E+00 0.  1.
          1    1    6    6  503    0  0.10774752769E+03  0.25504171606E+03 -0.46240529662E+03  0.53895683037E+03  0.00000000000E+00 0. -1.
         -1    1    6    6    0  503  0.17818715676E+02  0.11166679211E+03 -0.30026920997E+03  0.32085600750E+03  0.00000000000E+00 0.  1.
<mgrwt>
<rscale>  0 0.14083513E+04</rscale>
<asrwt>0</asrwt>
<pdfrwt beam="1">  1        2 0.35786260E+00 0.14083513E+04</pdfrwt>
<pdfrwt beam="2">  1       -2 0.32795858E-01 0.14083513E+04</pdfrwt>
<totfact> 0.37040798E+01</totfact>
</mgrwt>
</event>
<event>
12    2  0.3561489E-008  0.1566812E+04  0.7818608E-02  0.8841200E-01
          2   -1    0    0  501    0  0.00000000000E+00  0.00000000000E+00  0.17835309801E+04  0.17835309801E+04  0.00000000000E+00 0. -1.
         -2   -1    0    0    0  501 -0.00000000000E+00 -0.00000000000E+00 -0.34410676715E+03  0.34410676715E+03  0.00000000000E+00 0.  1.
         23    2    1    2    0    0  0.22172708383E+03  0.46617892812E+03  0.51636651298E+03  0.73582278894E+03  0.91187215523E+02 0.  0.
        254    2    1    2    0    0 -0.22172708383E+03 -0.46617892812E+03  0.92305769999E+03  0.13918149583E+04  0.90478045291E+03 0.  0.
         23    2    4    4    0    0 -0.40587646310E+03 -0.63253044641E+03  0.55514461172E+03  0.93862205064E+03  0.89416693577E+02 0.  0.
         23    2    4    4    0    0  0.18414937927E+03  0.16635151829E+03  0.36791308827E+03  0.45319290768E+03  0.91869197919E+02 0.  0.
          4    1    3    3  502    0  0.75496449366E+01 -0.30332529178E+01  0.11380464033E+02  0.13989736364E+02  0.00000000000E+00 0. -1.
         -4    1    3    3    0  502  0.21417743889E+03  0.46921218104E+03  0.50498604894E+03  0.72183305258E+03  0.00000000000E+00 0.  1.
         11    1    5    5    0    0 -0.16576386636E+03 -0.19823230745E+03  0.22447572042E+03  0.34229089408E+03  0.00000000000E+00 0.  1.
        -11    1    5    5    0    0 -0.24011259674E+03 -0.43429813896E+03  0.33066889129E+03  0.59633115656E+03  0.00000000000E+00 0. -1.
          2    1    6    6  503    0  0.14703193729E+03  0.16741920984E+03  0.34095749746E+03  0.40730774297E+03  0.00000000000E+00 0. -1.
         -2    1    6    6    0  503  0.37117441988E+02 -0.10676915458E+01  0.26955590806E+02  0.45885164713E+02  0.00000000000E+00 0.  1.
<mgrwt>
<rscale>  0 0.15668122E+04</rscale>
<asrwt>0</asrwt>
<pdfrwt beam="1">  1        2 0.27438938E+00 0.15668122E+04</pdfrwt>
<pdfrwt beam="2">  1       -2 0.52939504E-01 0.15668122E+04</pdfrwt>
<totfact> 0.28507313E+01</totfact>
</mgrwt>
</event>
<event>
12    2  0.3561489E-008  0.1451686E+04  0.7818608E-02  0.8917232E-01
         -1   -1    0    0    0  501 -0.00000000000E+00  0.00000000000E+00  0.32495676079E+03  0.32495676079E+03  0.00000000000E+00 0.  1.
          1   -1    0    0  501    0  0.00000000000E+00 -0.00000000000E+00 -0.16212876551E+04  0.16212876551E+04  0.00000000000E+00 0. -1.
         23    2    1    2    0    0  0.15101635613E+03 -0.40401417654E+03 -0.67940116329E+03  0.81131946983E+03  0.10305312602E+03 0.  0.
        254    2    1    2    0    0 -0.15101635613E+03  0.40401417654E+03 -0.61692973101E+03  0.11349249460E+04  0.84936384753E+03 0.  0.
         23    2    4    4    0    0  0.26268378837E+03  0.30689403386E+03 -0.55987814084E+03  0.69639647665E+03  0.91201970449E+02 0.  0.
         23    2    4    4    0    0 -0.41370014450E+03  0.97120142683E+02 -0.57051590170E+02  0.43852846939E+03  0.92044569917E+02 0.  0.
          4    1    3    3  502    0  0.15277176826E+03 -0.31727900857E+03 -0.58739187765E+03  0.68486086206E+03  0.00000000000E+00 0. -1.
         -4    1    3    3    0  502 -0.17554121229E+01 -0.86735167978E+02 -0.92009285642E+02  0.12645860777E+03  0.00000000000E+00 0.  1.
         11    1    5    5    0    0  0.15239865733E+03  0.10829550965E+03 -0.25485557816E+03  0.31607694299E+03  0.00000000000E+00 0. -1.
        -11    1    5    5    0    0  0.11028513104E+03  0.19859852421E+03 -0.30502256267E+03  0.38031953367E+03  0.00000000000E+00 0.  1.
          4    1    6    6  503    0 -0.40904292485E+03  0.10791931989E+03 -0.55664966857E+02  0.42668639832E+03  0.00000000000E+00 0. -1.
         -4    1    6    6    0  503 -0.46572196535E+01 -0.10799177203E+02 -0.13866233128E+01  0.11842071076E+02  0.00000000000E+00 0.  1.
<mgrwt>
<rscale>  0 0.14516864E+04</rscale>
<asrwt>0</asrwt>
<pdfrwt beam="1">  1        1 0.24942887E+00 0.14516864E+04</pdfrwt>
<pdfrwt beam="2">  1       -1 0.49993349E-01 0.14516864E+04</pdfrwt>
<totfact> 0.21036269E+01</totfact>
</mgrwt>
</event>
<event>
12    2  0.3561489E-008  0.1163471E+04  0.7818608E-02  0.9145445E-01
          2   -1    0    0  501    0  0.00000000000E+00  0.00000000000E+00  0.11261168118E+04  0.11261168118E+04  0.00000000000E+00 0. -1.
         -2   -1    0    0    0  501 -0.00000000000E+00 -0.00000000000E+00 -0.30051597417E+03  0.30051597417E+03  0.00000000000E+00 0.  1.
         23    2    1    2    0    0 -0.15583555497E+03 -0.11988119350E+03  0.26281831589E+03  0.34045493807E+03  0.90442672118E+02 0.  0.
        254    2    1    2    0    0  0.15583555497E+03  0.11988119350E+03  0.56278252176E+03  0.10861778479E+04  0.90796581971E+03 0.  0.
         23    2    4    4    0    0 -0.32936597186E+03  0.23410286409E+03  0.32071419403E+03  0.52407930525E+03  0.92279085119E+02 0.  0.
         23    2    4    4    0    0  0.48520152682E+03 -0.11422167060E+03  0.24206832773E+03  0.56209854266E+03  0.94289897148E+02 0.  0.
          2    1    3    3  502    0 -0.15439966616E+03 -0.12762385827E+03  0.26508484545E+03  0.33226056251E+03  0.00000000000E+00 0.  1.
         -2    1    3    3    0  502 -0.14358888097E+01  0.77426647769E+01 -0.22665295617E+01  0.81943755574E+01  0.00000000000E+00 0. -1.
         11    1    5    5    0    0 -0.30244310976E+03  0.17941141843E+03  0.25455568393E+03  0.43411851830E+03  0.00000000000E+00 0. -1.
        -11    1    5    5    0    0 -0.26922862095E+02  0.54691445660E+02  0.66158510094E+02  0.89960786955E+02  0.00000000000E+00 0.  1.
          4    1    6    6  503    0  0.22873861182E+03 -0.90075930645E+02  0.83601333742E+02  0.25966171998E+03  0.00000000000E+00 0.  1.
         -4    1    6    6    0  503  0.25646291500E+03 -0.24145739953E+02  0.15846699399E+03  0.30243682268E+03  0.00000000000E+00 0. -1.
<mgrwt>
<rscale>  0 0.11634708E+04</rscale>
<asrwt>0</asrwt>
<pdfrwt beam="1">  1        2 0.17324874E+00 0.11634708E+04</pdfrwt>
<pdfrwt beam="2">  1       -2 0.46233227E-01 0.11634708E+04</pdfrwt>
<totfact> 0.92068519E+01</totfact>
</mgrwt>
</event>
<event>
12    2  0.3561489E-008  0.1985040E+04  0.7818608E-02  0.8613647E-01
         -1   -1    0    0    0  501 -0.00000000000E+00  0.00000000000E+00  0.18881244886E+04  0.18881244886E+04  0.00000000000E+00 0.  1.
          1   -1    0    0  501    0  0.00000000000E+00 -0.00000000000E+00 -0.52173236757E+03  0.52173236757E+03  0.00000000000E+00 0. -1.
         23    2    1    2    0    0  0.19131943790E+03  0.65537404048E+03  0.10189307490E+04  0.12301514033E+04  0.94521656450E+02 0.  0.
        254    2    1    2    0    0 -0.19131943790E+03 -0.65537404048E+03  0.34746137201E+03  0.11797054528E+04  0.89713838965E+03 0.  0.
         23    2    4    4    0    0 -0.39645541328E+03 -0.60696344586E+03  0.51618001238E+03  0.89491732674E+03  0.94094086902E+02 0.  0.
         23    2    4    4    0    0  0.20513597538E+03 -0.48410594624E+02 -0.16871864037E+03  0.28478812610E+03  0.90630806544E+02 0.  0.
          3    1    3    3  502    0  0.28618660535E+02  0.29027172255E+02  0.43875644951E+02  0.59888869415E+02  0.00000000000E+00 0. -1.
         -3    1    3    3    0  502  0.16270077737E+03  0.62634686823E+03  0.97505510409E+03  0.11702625339E+04  0.00000000000E+00 0.  1.
         11    1    5    5    0    0  0.42864361423E+01 -0.56002313315E+01  0.11459564433E+02  0.13455769869E+02  0.00000000000E+00 0. -1.
        -11    1    5    5    0    0 -0.40074184943E+03 -0.60136321453E+03  0.50472044795E+03  0.88146155688E+03  0.00000000000E+00 0.  1.
          2    1    6    6  503    0  0.45608612609E+02 -0.50774888096E+02 -0.66595063047E+02  0.95357942656E+02  0.00000000000E+00 0. -1.
         -2    1    6    6    0  503  0.15952736277E+03  0.23642934714E+01 -0.10212357732E+03  0.18943018345E+03  0.00000000000E+00 0.  1.
<mgrwt>
<rscale>  0 0.19850397E+04</rscale>
<asrwt>0</asrwt>
<pdfrwt beam="1">  1        1 0.80266519E-01 0.19850397E+04</pdfrwt>
<pdfrwt beam="2">  1       -1 0.29048069E+00 0.19850397E+04</pdfrwt>
<totfact> 0.14779498E+00</totfact>
</mgrwt>
</event>
<event>
12    2  0.3561489E-008  0.1925747E+04  0.7818608E-02  0.8642146E-01
         -1   -1    0    0    0  501 -0.00000000000E+00  0.00000000000E+00  0.68599153883E+03  0.68599153883E+03  0.00000000000E+00 0.  1.
          1   -1    0    0  501    0  0.00000000000E+00 -0.00000000000E+00 -0.13515113718E+04  0.13515113718E+04  0.00000000000E+00 0. -1.
         23    2    1    2    0    0 -0.10204539489E+03 -0.71973024853E+03 -0.54599467980E+03  0.91448271418E+03  0.98709426553E+02 0.  0.
        254    2    1    2    0    0  0.10204539489E+03  0.71973024853E+03 -0.11952515320E+03  0.11230201965E+04  0.84762208926E+03 0.  0.
         23    2    4    4    0    0 -0.23099143452E+03 -0.53933186412E+02  0.50539268527E+02  0.25893571945E+03  0.90706437062E+02 0.  0.
         23    2    4    4    0    0  0.33303682941E+03  0.77366343494E+03 -0.17006442173E+03  0.86408447704E+03  0.90837413062E+02 0.  0.
          4    1    3    3  502    0 -0.10844420896E+03 -0.60966086782E+03 -0.42651845766E+03  0.75190725155E+03  0.00000000000E+00 0. -1.
         -4    1    3    3    0  502  0.63988140724E+01 -0.11006938071E+03 -0.11947622214E+03  0.16257546263E+03  0.00000000000E+00 0.  1.
         11    1    5    5    0    0  0.73645233539E+00 -0.57404169749E+01 -0.12691684873E+02  0.13948964621E+02  0.00000000000E+00 0. -1.
        -11    1    5    5    0    0 -0.23172788685E+03 -0.48192769437E+02  0.63230953401E+02  0.24498675482E+03  0.00000000000E+00 0.  1.
          1    1    6    6  503    0  0.37788070360E+02  0.50675622528E+02 -0.32612388279E+02  0.71130337054E+02  0.00000000000E+00 0. -1.
         -1    1    6    6    0  503  0.29524875905E+03  0.72298781242E+03 -0.13745203345E+03  0.79295413999E+03  0.00000000000E+00 0.  1.
<mgrwt>
<rscale>  0 0.19257470E+04</rscale>
<asrwt>0</asrwt>
<pdfrwt beam="1">  1        1 0.20792482E+00 0.19257470E+04</pdfrwt>
<pdfrwt beam="2">  1       -1 0.10553716E+00 0.19257470E+04</pdfrwt>
<totfact> 0.65290690E+00</totfact>
</mgrwt>
</event>
<event>
12    2  0.3561489E-008  0.1209191E+04  0.7818608E-02  0.9104849E-01
          2   -1    0    0  501    0  0.00000000000E+00  0.00000000000E+00  0.57340667784E+03  0.57340667784E+03  0.00000000000E+00 0. -1.
         -2   -1    0    0    0  501 -0.00000000000E+00 -0.00000000000E+00 -0.63748084081E+03  0.63748084081E+03  0.00000000000E+00 0.  1.
         23    2    1    2    0    0  0.92527573254E+02 -0.12601700861E+03  0.19438266794E+03  0.26525013304E+03  0.90174127158E+02 0.  0.
        254    2    1    2    0    0 -0.92527573254E+02  0.12601700861E+03 -0.25845683091E+03  0.94563738561E+03  0.89609625228E+03 0.  0.
         23    2    4    4    0    0  0.15190049708E+03 -0.40862404356E+02 -0.51325889695E+03  0.54457749232E+03  0.91577577730E+02 0.  0.
         23    2    4    4    0    0 -0.24442807033E+03  0.16687941297E+03  0.25480206604E+03  0.40105989329E+03  0.91274997147E+02 0.  0.
          3    1    3    3  502    0  0.96189715036E+02 -0.12064016578E+03  0.13353056212E+03  0.20405127272E+03  0.00000000000E+00 0. -1.
         -3    1    3    3    0  502 -0.36621417819E+01 -0.53768428308E+01  0.60852105823E+02  0.61198860319E+02  0.00000000000E+00 0.  1.
         11    1    5    5    0    0  0.35063793999E+02 -0.13531656177E+02 -0.27756480418E+03  0.28009783271E+03  0.00000000000E+00 0.  1.
        -11    1    5    5    0    0  0.11683670308E+03 -0.27330748179E+02 -0.23569409277E+03  0.26447965961E+03  0.00000000000E+00 0. -1.
          2    1    6    6  503    0 -0.21173995418E+01  0.52386381527E+00 -0.70726818947E+01  0.74013946861E+01  0.00000000000E+00 0. -1.
         -2    1    6    6    0  503 -0.24231067079E+03  0.16635554915E+03  0.26187474794E+03  0.39365849860E+03  0.00000000000E+00 0.  1.
<mgrwt>
<rscale>  0 0.12091911E+04</rscale>
<asrwt>0</asrwt>
<pdfrwt beam="1">  1        2 0.88216412E-01 0.12091911E+04</pdfrwt>
<pdfrwt beam="2">  1       -2 0.98073976E-01 0.12091911E+04</pdfrwt>
<totfact> 0.44688170E+01</totfact>
</mgrwt>
</event>
<event>
12    2  0.3561489E-008  0.1291960E+04  0.7818608E-02  0.9035965E-01
          2   -1    0    0  501    0  0.00000000000E+00  0.00000000000E+00  0.29760076277E+04  0.29760076277E+04  0.00000000000E+00 0. -1.
         -2   -1    0    0    0  501 -0.00000000000E+00 -0.00000000000E+00 -0.14021819606E+03  0.14021819606E+03  0.00000000000E+00 0.  1.
         23    2    1    2    0    0  0.18918076894E+03 -0.15021819342E+03  0.20111113359E+03  0.32712834388E+03  0.90622272884E+02 0.  0.
        254    2    1    2    0    0 -0.18918076894E+03  0.15021819342E+03  0.26346782980E+04  0.27890974799E+04  0.88271181545E+03 0.  0.
         23    2    4    4    0    0 -0.19193834205E+03  0.50492063180E+03  0.16431081713E+04  0.17321132014E+04  0.92878999154E+02 0.  0.
         23    2    4    4    0    0  0.27575731119E+01 -0.35470243838E+03  0.99157012676E+03  0.10569842784E+04  0.90460071853E+02 0.  0.
          1    1    3    3  502    0  0.88512529732E+02 -0.18079595240E+02  0.88310368435E+02  0.12633313444E+03  0.00000000000E+00 0. -1.
         -1    1    3    3    0  502  0.10066823921E+03 -0.13213859818E+03  0.11280076516E+03  0.20079520944E+03  0.00000000000E+00 0.  1.
         11    1    5    5    0    0 -0.32212910103E+02  0.10284658781E+03  0.22502635919E+03  0.24950341587E+03  0.00000000000E+00 0. -1.
        -11    1    5    5    0    0 -0.15972543195E+03  0.40207404400E+03  0.14180818121E+04  0.14826097856E+04  0.00000000000E+00 0.  1.
          3    1    6    6  503    0 -0.18685868559E+02 -0.11704623195E+02  0.71644185609E+02  0.74960317632E+02  0.00000000000E+00 0. -1.
         -3    1    6    6    0  503  0.21443441671E+02 -0.34299781518E+03  0.91992594115E+03  0.98202396081E+03  0.00000000000E+00 0.  1.
<mgrwt>
<rscale>  0 0.12919604E+04</rscale>
<asrwt>0</asrwt>
<pdfrwt beam="1">  1        2 0.45784728E+00 0.12919604E+04</pdfrwt>
<pdfrwt beam="2">  1       -2 0.21572032E-01 0.12919604E+04</pdfrwt>
<totfact> 0.33425439E+01</totfact>
</mgrwt>
</event>
<event>
12    2  0.3561489E-008  0.1397270E+04  0.7818608E-02  0.8955797E-01
          2   -1    0    0  501    0  0.00000000000E+00  0.00000000000E+00  0.43857986396E+03  0.43857986396E+03  0.00000000000E+00 0. -1.
         -2   -1    0    0    0  501 -0.00000000000E+00 -0.00000000000E+00 -0.11128892070E+04  0.11128892070E+04  0.00000000000E+00 0.  1.
         23    2    1    2    0    0  0.20261193706E+02  0.40173792752E+03 -0.31889683120E+03  0.52162843363E+03  0.92720846857E+02 0.  0.
        254    2    1    2    0    0 -0.20261193706E+02 -0.40173792752E+03 -0.35541251182E+03  0.10298406373E+04  0.87889123690E+03 0.  0.
         23    2    4    4    0    0  0.22411870454E+03  0.19733405103E+03 -0.13595005634E+03  0.34065413204E+03  0.91612763509E+02 0.  0.
         23    2    4    4    0    0 -0.24437989824E+03 -0.59907197855E+03 -0.21946245548E+03  0.68918650526E+03  0.90584212285E+02 0.  0.
          4    1    3    3  502    0 -0.17565908033E+02  0.70910802676E+02 -0.24174047974E+02  0.76949903552E+02  0.00000000000E+00 0. -1.
         -4    1    3    3    0  502  0.37827101739E+02  0.33082712484E+03 -0.29472278323E+03  0.44467853008E+03  0.00000000000E+00 0.  1.
         11    1    5    5    0    0  0.59504557733E+02  0.10340836791E+03 -0.77706745287E+02  0.14238125301E+03  0.00000000000E+00 0.  1.
        -11    1    5    5    0    0  0.16461414681E+03  0.93925683123E+02 -0.58243311056E+02  0.19827287904E+03  0.00000000000E+00 0. -1.
          1    1    6    6  503    0 -0.20285994595E+03 -0.49519269148E+03 -0.21652307975E+03  0.57727827209E+03  0.00000000000E+00 0. -1.
         -1    1    6    6    0  503 -0.41519952296E+02 -0.10387928707E+03 -0.29393757304E+01  0.11190823316E+03  0.00000000000E+00 0.  1.
<mgrwt>
<rscale>  0 0.13972699E+04</rscale>
<asrwt>0</asrwt>
<pdfrwt beam="1">  1        2 0.67473826E-01 0.13972699E+04</pdfrwt>
<pdfrwt beam="2">  1       -2 0.17121372E+00 0.13972699E+04</pdfrwt>
<totfact> 0.14551709E+01</totfact>
</mgrwt>
</event>
<event>
12    2  0.3561489E-008  0.3381459E+04  0.7818608E-02  0.8142472E-01
         -2   -1    0    0    0  501 -0.00000000000E+00  0.00000000000E+00  0.22200100216E+04  0.22200100216E+04  0.00000000000E+00 0.  1.
          2   -1    0    0  501    0  0.00000000000E+00 -0.00000000000E+00 -0.12876369417E+04  0.12876369417E+04  0.00000000000E+00 0. -1.
         23    2    1    2    0    0 -0.13006683523E+04 -0.12203683563E+03  0.13450932999E+04  0.18773425541E+04  0.92238430242E+02 0.  0.
        254    2    1    2    0    0  0.13006683523E+04  0.12203683563E+03 -0.41272022001E+03  0.16303044093E+04  0.88369866745E+03 0.  0.
         23    2    4    4    0    0  0.10510943154E+03  0.31993205229E+03 -0.63036617790E+01  0.34910854173E+03  0.91828792165E+02 0.  0.
         23    2    4    4    0    0  0.11955589208E+04 -0.19789521666E+03 -0.40641655823E+03  0.12811958675E+04  0.88118002242E+02 0.  0.
          2    1    3    3  502    0 -0.76907844561E+03 -0.30421920980E+02  0.81694542845E+03  0.11224112356E+04  0.00000000000E+00 0. -1.
         -2    1    3    3    0  502 -0.53158990671E+03 -0.91614914652E+02  0.52814787142E+03  0.75493131846E+03  0.00000000000E+00 0.  1.
         11    1    5    5    0    0  0.28561305715E+01  0.13795383369E+03 -0.22232601181E+02  0.13976303612E+03  0.00000000000E+00 0. -1.
        -11    1    5    5    0    0  0.10225330096E+03  0.18197821861E+03  0.15928939402E+02  0.20934550560E+03  0.00000000000E+00 0.  1.
          3    1    6    6  503    0  0.96682023435E+03 -0.16881576676E+03 -0.36383818821E+03  0.10467178970E+04  0.00000000000E+00 0. -1.
         -3    1    6    6    0  503  0.22873868644E+03 -0.29079449905E+02 -0.42578370015E+02  0.23447797055E+03  0.00000000000E+00 0.  1.
<mgrwt>
<rscale>  0 0.33814594E+04</rscale>
<asrwt>0</asrwt>
<pdfrwt beam="1">  1        2 0.19809799E+00 0.33814594E+04</pdfrwt>
<pdfrwt beam="2">  1       -2 0.34154000E+00 0.33814594E+04</pdfrwt>
<totfact> 0.24516370E-01</totfact>
</mgrwt>
</event>
<event>
12    2  0.3561489E-008  0.1697631E+04  0.7818608E-02  0.8762717E-01
          2   -1    0    0  501    0  0.00000000000E+00  0.00000000000E+00  0.10716213071E+04  0.10716213071E+04  0.00000000000E+00 0. -1.
         -2   -1    0    0    0  501 -0.00000000000E+00 -0.00000000000E+00 -0.67233399131E+03  0.67233399131E+03  0.00000000000E+00 0.  1.
         23    2    1    2    0    0 -0.50310810917E+03 -0.15848781477E+03  0.45117499333E+03  0.69981855549E+03  0.89168262613E+02 0.  0.
        254    2    1    2    0    0  0.50310810917E+03  0.15848781477E+03 -0.51887677547E+02  0.10441367429E+04  0.89960716420E+03 0.  0.
         23    2    4    4    0    0 -0.16706728811E+03  0.14097684914E+03 -0.24407745963E+03  0.34084415805E+03  0.93888141044E+02 0.  0.
         23    2    4    4    0    0  0.67017539728E+03  0.17510965630E+02  0.19218978208E+03  0.70329258487E+03  0.90784638357E+02 0.  0.
          3    1    3    3  502    0 -0.41132670315E+03 -0.92661806921E+02  0.36648238627E+03  0.55864586871E+03  0.00000000000E+00 0. -1.
         -3    1    3    3    0  502 -0.91781406020E+02 -0.65826007851E+02  0.84692607061E+02  0.14117268678E+03  0.00000000000E+00 0.  1.
         11    1    5    5    0    0 -0.11957018013E+02  0.43527091179E+02 -0.15074755616E+02  0.47590190198E+02  0.00000000000E+00 0.  1.
        -11    1    5    5    0    0 -0.15511027010E+03  0.97449757963E+02 -0.22900270401E+03  0.29325396785E+03  0.00000000000E+00 0. -1.
          2    1    6    6  503    0  0.16755688528E+03 -0.45866671880E+01  0.89524207066E+01  0.16785855104E+03  0.00000000000E+00 0.  1.
         -2    1    6    6    0  503  0.50261851199E+03  0.22097632818E+02  0.18323736137E+03  0.53543403383E+03  0.00000000000E+00 0. -1.
<mgrwt>
<rscale>  0 0.16976306E+04</rscale>
<asrwt>0</asrwt>
<pdfrwt beam="1">  1        2 0.16486482E+00 0.16976306E+04</pdfrwt>
<pdfrwt beam="2">  1       -2 0.10343600E+00 0.16976306E+04</pdfrwt>
<totfact> 0.16457776E+01</totfact>
</mgrwt>
</event>
<event>
12    2  0.3561489E-008  0.1357410E+04  0.7818608E-02  0.8985238E-01
         -1   -1    0    0    0  501 -0.00000000000E+00  0.00000000000E+00  0.11676875013E+03  0.11676875013E+03  0.00000000000E+00 0.  1.
          1   -1    0    0  501    0  0.00000000000E+00 -0.00000000000E+00 -0.39448965546E+04  0.39448965546E+04  0.00000000000E+00 0. -1.
         23    2    1    2    0    0 -0.49374722714E+02  0.11656202911E+03 -0.21760535885E+04  0.21816551555E+04  0.91571980945E+02 0.  0.
        254    2    1    2    0    0  0.49374722714E+02 -0.11656202911E+03 -0.16520742159E+04  0.18800101492E+04  0.88829295628E+03 0.  0.
         23    2    4    4    0    0  0.25814820302E+03 -0.66082297554E+02 -0.81992258573E+02  0.29264076784E+03  0.88929881148E+02 0.  0.
         23    2    4    4    0    0 -0.20877348031E+03 -0.50479731559E+02 -0.15700819574E+04  0.15873693813E+04  0.91921872226E+02 0.  0.
          3    1    3    3  502    0 -0.45689714387E+02  0.13222185005E+03 -0.19868680634E+04  0.19917868533E+04  0.00000000000E+00 0. -1.
         -3    1    3    3    0  502 -0.36850083269E+01 -0.15659820937E+02 -0.18918552512E+03  0.18986830224E+03  0.00000000000E+00 0.  1.
         11    1    5    5    0    0  0.97660569008E+02 -0.10078193494E+02  0.11158789471E+02  0.98811311628E+02  0.00000000000E+00 0. -1.
        -11    1    5    5    0    0  0.16048763401E+03 -0.56004104060E+02 -0.93151048043E+02  0.19382945621E+03  0.00000000000E+00 0.  1.
          3    1    6    6  503    0 -0.13196555433E+03 -0.31424941216E+02 -0.12626192806E+04  0.12698857752E+04  0.00000000000E+00 0. -1.
         -3    1    6    6    0  503 -0.76807925975E+02 -0.19054790343E+02 -0.30746267681E+03  0.31748360613E+03  0.00000000000E+00 0.  1.
<mgrwt>
<rscale>  0 0.13574102E+04</rscale>
<asrwt>0</asrwt>
<pdfrwt beam="1">  1        1 0.60690723E+00 0.13574102E+04</pdfrwt>
<pdfrwt beam="2">  1       -1 0.17964421E-01 0.13574102E+04</pdfrwt>
<totfact> 0.26287134E+00</totfact>
</mgrwt>
</event>
<event>
12    2  0.3561489E-008  0.2769342E+04  0.7818608E-02  0.8312850E-01
         -2   -1    0    0    0  501 -0.00000000000E+00  0.00000000000E+00  0.10895145166E+04  0.10895145166E+04  0.00000000000E+00 0. -1.
          2   -1    0    0  501    0  0.00000000000E+00 -0.00000000000E+00 -0.17597875382E+04  0.17597875382E+04  0.00000000000E+00 0.  1.
         23    2    1    2    0    0 -0.10242594241E+04 -0.67532897257E+03 -0.39156469032E+03  0.12910338465E+04  0.90933476204E+02 0.  0.
        254    2    1    2    0    0  0.10242594241E+04  0.67532897257E+03 -0.27870833135E+03  0.15582682083E+04  0.91942638967E+03 0.  0.
         23    2    4    4    0    0  0.57781511120E+03  0.61812566257E+03 -0.56064676846E+03  0.10193431231E+04  0.93733485210E+02 0.  0.
         23    2    4    4    0    0  0.44644431289E+03  0.57203309995E+02  0.28193843712E+03  0.53892508516E+03  0.91467053653E+02 0.  0.
          3    1    3    3  502    0 -0.25164796939E+03 -0.15357155593E+03 -0.55243851222E+02  0.29993800424E+03  0.00000000000E+00 0. -1.
         -3    1    3    3    0  502 -0.77261145470E+03 -0.52175741663E+03 -0.33632083910E+03  0.99109584227E+03  0.00000000000E+00 0.  1.
         11    1    5    5    0    0  0.48548355753E+03  0.46677143404E+03 -0.42880082695E+03  0.79839840021E+03  0.00000000000E+00 0.  1.
        -11    1    5    5    0    0  0.92331553667E+02  0.15135422853E+03 -0.13184594151E+03  0.22094472293E+03  0.00000000000E+00 0. -1.
          3    1    6    6  503    0  0.16298897017E+03 -0.29487358196E+00  0.57515684344E+02  0.17283965197E+03  0.00000000000E+00 0. -1.
         -3    1    6    6    0  503  0.28345534272E+03  0.57498183577E+02  0.22442275277E+03  0.36608543319E+03  0.00000000000E+00 0.  1.
<mgrwt>
<rscale>  0 0.27693422E+04</rscale>
<asrwt>0</asrwt>
<pdfrwt beam="1">  1        2 0.27073654E+00 0.27693422E+04</pdfrwt>
<pdfrwt beam="2">  1       -2 0.16761762E+00 0.27693422E+04</pdfrwt>
<totfact> 0.17568100E+00</totfact>
</mgrwt>
</event>
<event>
12    2  0.3561489E-008  0.1204344E+04  0.7818608E-02  0.9109063E-01
         -2   -1    0    0    0  501 -0.00000000000E+00  0.00000000000E+00  0.38793232007E+03  0.38793232007E+03  0.00000000000E+00 0.  1.
          2   -1    0    0  501    0  0.00000000000E+00 -0.00000000000E+00 -0.93472747272E+03  0.93472747272E+03  0.00000000000E+00 0. -1.
         23    2    1    2    0    0 -0.21241054474E+03 -0.76012017704E+02 -0.10876119649E+02  0.24519852774E+03  0.95435641543E+02 0.  0.
        254    2    1    2    0    0  0.21241054474E+03  0.76012017704E+02 -0.53591903301E+03  0.10774612650E+04  0.90709288465E+03 0.  0.
         23    2    4    4    0    0 -0.11396265000E+03  0.42342538920E+03 -0.29067913624E+03  0.53389506790E+03  0.90956239349E+02 0.  0.
         23    2    4    4    0    0  0.32637319474E+03 -0.34741337149E+03 -0.24523989677E+03  0.54356619715E+03  0.90033831305E+02 0.  0.
          3    1    3    3  502    0 -0.12405665869E+03 -0.48873077443E+02 -0.53178580372E+02  0.14354996926E+03  0.00000000000E+00 0. -1.
         -3    1    3    3    0  502 -0.88353886045E+02 -0.27138940261E+02  0.42302460723E+02  0.10164855848E+03  0.00000000000E+00 0.  1.
         11    1    5    5    0    0 -0.12737595143E+03  0.34694818136E+03 -0.25036713950E+03  0.44640942877E+03  0.00000000000E+00 0.  1.
        -11    1    5    5    0    0  0.13413301435E+02  0.76477207832E+02 -0.40311996740E+02  0.87485639132E+02  0.00000000000E+00 0. -1.
          3    1    6    6  503    0  0.36889005426E+02 -0.39473178036E+02 -0.63852901797E+02  0.83642833366E+02  0.00000000000E+00 0. -1.
         -3    1    6    6    0  503  0.28948418931E+03 -0.30794019346E+03 -0.18138699497E+03  0.45992336378E+03  0.00000000000E+00 0.  1.
<mgrwt>
<rscale>  0 0.12043438E+04</rscale>
<asrwt>0</asrwt>
<pdfrwt beam="1">  1        2 0.14380422E+00 0.12043438E+04</pdfrwt>
<pdfrwt beam="2">  1       -2 0.59681896E-01 0.12043438E+04</pdfrwt>
<totfact> 0.71814568E+01</totfact>
</mgrwt>
</event>
<event>
12    2  0.3561489E-008  0.2338701E+04  0.7818608E-02  0.8462816E-01
          2   -1    0    0  501    0  0.00000000000E+00  0.00000000000E+00  0.27857467717E+04  0.27857467717E+04  0.00000000000E+00 0. -1.
         -2   -1    0    0    0  501 -0.00000000000E+00 -0.00000000000E+00 -0.49084895237E+03  0.49084895237E+03  0.00000000000E+00 0.  1.
         23    2    1    2    0    0  0.78191872951E+03  0.39555384035E+03  0.16135067838E+04  0.18384024595E+04  0.91976744052E+02 0.  0.
        254    2    1    2    0    0 -0.78191872951E+03 -0.39555384035E+03  0.68139103551E+03  0.14381932646E+04  0.91446508017E+03 0.  0.
         23    2    4    4    0    0 -0.89819781588E+03 -0.83517830749E+02  0.58617157125E+03  0.10796612040E+04  0.91305312366E+02 0.  0.
         23    2    4    4    0    0  0.11627908637E+03 -0.31203600960E+03  0.95219464259E+02  0.35853206055E+03  0.92688698631E+02 0.  0.
          1    1    3    3  502    0  0.29562100876E+03  0.15307650951E+03  0.52212108930E+03  0.61922098678E+03  0.00000000000E+00 0. -1.
         -1    1    3    3    0  502  0.48629772075E+03  0.24247733084E+03  0.10913856945E+04  0.12191814727E+04  0.00000000000E+00 0.  1.
         11    1    5    5    0    0 -0.79763999728E+03 -0.59651279852E+02  0.48719961590E+03  0.93656356228E+03  0.00000000000E+00 0. -1.
        -11    1    5    5    0    0 -0.10055781859E+03 -0.23866550896E+02  0.98971955344E+02  0.14309764176E+03  0.00000000000E+00 0.  1.
          3    1    6    6  503    0  0.96761457238E+02 -0.14604461636E+03  0.73528838077E+02  0.18999552522E+03  0.00000000000E+00 0. -1.
         -3    1    6    6    0  503  0.19517629130E+02 -0.16599139324E+03  0.21690626182E+02  0.16853653533E+03  0.00000000000E+00 0.  1.
<mgrwt>
<rscale>  0 0.23387013E+04</rscale>
<asrwt>0</asrwt>
<pdfrwt beam="1">  1        2 0.42857642E+00 0.23387013E+04</pdfrwt>
<pdfrwt beam="2">  1       -2 0.75515225E-01 0.23387013E+04</pdfrwt>
<totfact> 0.33534675E+00</totfact>
</mgrwt>
</event>
<event>
12    2  0.3561489E-008  0.1296922E+04  0.7818608E-02  0.9032010E-01
         -1   -1    0    0    0  501 -0.00000000000E+00  0.00000000000E+00  0.39899550218E+03  0.39899550218E+03  0.00000000000E+00 0. -1.
          1   -1    0    0  501    0  0.00000000000E+00 -0.00000000000E+00 -0.10539003053E+04  0.10539003053E+04  0.00000000000E+00 0.  1.
         23    2    1    2    0    0  0.23942043035E+03  0.32070707878E+02 -0.54970768045E+03  0.60676216057E+03  0.87356240675E+02 0.  0.
        254    2    1    2    0    0 -0.23942043035E+03 -0.32070707878E+02 -0.10519712271E+03  0.84613364694E+03  0.80406780876E+03 0.  0.
         23    2    4    4    0    0  0.39716683349E+02  0.10912877668E+03  0.29500136256E+03  0.32960508931E+03  0.90151018565E+02 0.  0.
         23    2    4    4    0    0 -0.27913711370E+03 -0.14119948456E+03 -0.40019848527E+03  0.51652855763E+03  0.93744869491E+02 0.  0.
          2    1    3    3  502    0  0.88590332053E+02  0.17235263609E+02 -0.11370624690E+03  0.14517028563E+03  0.00000000000E+00 0. -1.
         -2    1    3    3    0  502  0.15083009830E+03  0.14835444268E+02 -0.43600143354E+03  0.46159187494E+03  0.00000000000E+00 0.  1.
         11    1    5    5    0    0  0.19852341816E+02  0.85017214424E+02  0.28296362616E+03  0.29612574349E+03  0.00000000000E+00 0. -1.
        -11    1    5    5    0    0  0.19864341533E+02  0.24111562256E+02  0.12037736397E+02  0.33479345820E+02  0.00000000000E+00 0.  1.
          3    1    6    6  503    0 -0.27489830406E+03 -0.11864418900E+03 -0.38930265694E+03  0.49112328377E+03  0.00000000000E+00 0. -1.
         -3    1    6    6    0  503 -0.42388096351E+01 -0.22555295562E+02 -0.10895828322E+02  0.25405273859E+02  0.00000000000E+00 0.  1.
<mgrwt>
<rscale>  0 0.12969217E+04</rscale>
<asrwt>0</asrwt>
<pdfrwt beam="1">  1        1 0.16213851E+00 0.12969217E+04</pdfrwt>
<pdfrwt beam="2">  1       -1 0.61383924E-01 0.12969217E+04</pdfrwt>
<totfact> 0.36357976E+01</totfact>
</mgrwt>
</event>
<event>
12    2  0.3561489E-008  0.3880684E+04  0.7818608E-02  0.8029059E-01
          1   -1    0    0  501    0  0.00000000000E+00  0.00000000000E+00  0.29807846976E+04  0.29807846976E+04  0.00000000000E+00 0. -1.
         -1   -1    0    0    0  501 -0.00000000000E+00 -0.00000000000E+00 -0.12630654457E+04  0.12630654457E+04  0.00000000000E+00 0.  1.
         23    2    1    2    0    0 -0.85086095322E+03  0.73270025937E+03 -0.77454025080E+03  0.13672057333E+04  0.92330305749E+02 0.  0.
        254    2    1    2    0    0  0.85086095322E+03 -0.73270025937E+03  0.24922595027E+04  0.28766444100E+04  0.89605334704E+03 0.  0.
         23    2    4    4    0    0 -0.11105170590E+03  0.86457729281E+02  0.24711886111E+03  0.29884943428E+03  0.91846788273E+02 0.  0.
         23    2    4    4    0    0  0.96191265912E+03 -0.81915798865E+03  0.22451406416E+04  0.25777949757E+04  0.89859123005E+02 0.  0.
          3    1    3    3  502    0 -0.31260428049E+03  0.28886595925E+03 -0.34531496413E+03  0.54809433772E+03  0.00000000000E+00 0. -1.
         -3    1    3    3    0  502 -0.53825667274E+03  0.44383430012E+03 -0.42922528667E+03  0.81911139561E+03  0.00000000000E+00 0.  1.
         11    1    5    5    0    0 -0.39900863017E+02 -0.54019536239E+01  0.12025653496E+03  0.12681835109E+03  0.00000000000E+00 0.  1.
        -11    1    5    5    0    0 -0.71150842881E+02  0.91859682905E+02  0.12686232615E+03  0.17203108318E+03  0.00000000000E+00 0. -1.
          3    1    6    6  503    0  0.19549132930E+03 -0.20575901189E+03  0.55060790177E+03  0.61945354329E+03  0.00000000000E+00 0. -1.
         -3    1    6    6    0  503  0.76642132982E+03 -0.61339897675E+03  0.16945327398E+04  0.19583414324E+04  0.00000000000E+00 0.  1.
<mgrwt>
<rscale>  0 0.38806835E+04</rscale>
<asrwt>0</asrwt>
<pdfrwt beam="1">  1        1 0.45858226E+00 0.38806835E+04</pdfrwt>
<pdfrwt beam="2">  1       -1 0.19431776E+00 0.38806835E+04</pdfrwt>
<totfact> 0.80371419E-02</totfact>
</mgrwt>
</event>
<event>
12    2  0.3561489E-008  0.1271295E+04  0.7818608E-02  0.9052644E-01
         -2   -1    0    0    0  501 -0.00000000000E+00  0.00000000000E+00  0.20790576041E+03  0.20790576041E+03  0.00000000000E+00 0. -1.
          2   -1    0    0  501    0  0.00000000000E+00 -0.00000000000E+00 -0.19434168719E+04  0.19434168719E+04  0.00000000000E+00 0.  1.
         23    2    1    2    0    0 -0.88541123695E+01 -0.10339892027E+03  0.52837018072E+02  0.14820298379E+03  0.91665925555E+02 0.  0.
        254    2    1    2    0    0  0.88541123695E+01  0.10339892027E+03 -0.17883481295E+04  0.20031196485E+04  0.89639810449E+03 0.  0.
         23    2    4    4    0    0  0.15505767443E+03  0.10664920165E+03 -0.46046432404E+01  0.21088960501E+03  0.95059392737E+02 0.  0.
         23    2    4    4    0    0 -0.14620356206E+03 -0.32502813864E+01 -0.17837434863E+04  0.17922300435E+04  0.94666033888E+02 0.  0.
          1    1    3    3  502    0 -0.10366145823E+01  0.86482411645E+01  0.33018936939E+02  0.34148452990E+02  0.00000000000E+00 0. -1.
         -1    1    3    3    0  502 -0.78174977872E+01 -0.11204716143E+03  0.19818081132E+02  0.11405453080E+03  0.00000000000E+00 0.  1.
         11    1    5    5    0    0  0.15369279941E+03  0.12104945996E+03 -0.87761466163E+01  0.19583531115E+03  0.00000000000E+00 0.  1.
        -11    1    5    5    0    0  0.13648750207E+01 -0.14400258301E+02  0.41715033759E+01  0.15054293852E+02  0.00000000000E+00 0. -1.
          3    1    6    6  503    0 -0.62344626772E+02  0.65495436311E+01 -0.32170592789E+03  0.32775669795E+03  0.00000000000E+00 0. -1.
         -3    1    6    6    0  503 -0.83858935288E+02 -0.97998250175E+01 -0.14620375584E+04  0.14644733455E+04  0.00000000000E+00 0.  1.
<mgrwt>
<rscale>  0 0.12712947E+04</rscale>
<asrwt>0</asrwt>
<pdfrwt beam="1">  1        2 0.29898721E+00 0.12712947E+04</pdfrwt>
<pdfrwt beam="2">  1       -2 0.31985502E-01 0.12712947E+04</pdfrwt>
<totfact> 0.64184239E+01</totfact>
</mgrwt>
</event>
<event>
12    2  0.3561489E-008  0.1868853E+04  0.7818608E-02  0.8670518E-01
         -1   -1    0    0    0  501 -0.00000000000E+00  0.00000000000E+00  0.15873904558E+04  0.15873904558E+04  0.00000000000E+00 0.  1.
          1   -1    0    0  501    0  0.00000000000E+00 -0.00000000000E+00 -0.55005532349E+03  0.55005532349E+03  0.00000000000E+00 0. -1.
         23    2    1    2    0    0  0.35197330224E+03  0.54390066545E+03  0.73721327588E+03  0.98554429639E+03  0.90005592338E+02 0.  0.
        254    2    1    2    0    0 -0.35197330224E+03 -0.54390066545E+03  0.30012185642E+03  0.11519014829E+04  0.90393072645E+03 0.  0.
         23    2    4    4    0    0  0.28770661789E+03 -0.88125688748E+02  0.28591205357E+02  0.31571604402E+03  0.91202677760E+02 0.  0.
         23    2    4    4    0    0 -0.63967992013E+03 -0.45577497670E+03  0.27153065107E+03  0.83618543888E+03  0.92498454653E+02 0.  0.
          2    1    3    3  502    0  0.19108773865E+03  0.24629850670E+03  0.40833361571E+03  0.51372543248E+03  0.00000000000E+00 0. -1.
         -2    1    3    3    0  502  0.16088556359E+03  0.29760215875E+03  0.32887966017E+03  0.47181886391E+03  0.00000000000E+00 0.  1.
         11    1    5    5    0    0  0.11578589692E+02 -0.29620864249E+02 -0.16281791498E+01  0.31845098609E+02  0.00000000000E+00 0. -1.
        -11    1    5    5    0    0  0.27612802820E+03 -0.58504824499E+02  0.30219384507E+02  0.28387094541E+03  0.00000000000E+00 0.  1.
          4    1    6    6  503    0 -0.17404780642E+03 -0.16040154336E+03  0.11398798252E+03  0.26270621270E+03  0.00000000000E+00 0.  1.
         -4    1    6    6    0  503 -0.46563211371E+03 -0.29537343335E+03  0.15754266854E+03  0.57347922618E+03  0.00000000000E+00 0. -1.
<mgrwt>
<rscale>  0 0.18688527E+04</rscale>
<asrwt>0</asrwt>
<pdfrwt beam="1">  1        1 0.84623896E-01 0.18688527E+04</pdfrwt>
<pdfrwt beam="2">  1       -1 0.24421391E+00 0.18688527E+04</pdfrwt>
<totfact> 0.27678006E+00</totfact>
</mgrwt>
</event>
<event>
12    2  0.3561489E-008  0.1622813E+04  0.7818608E-02  0.8806654E-01
          2   -1    0    0  501    0  0.00000000000E+00  0.00000000000E+00  0.12625348738E+04  0.12625348738E+04  0.00000000000E+00 0. -1.
         -2   -1    0    0    0  501 -0.00000000000E+00 -0.00000000000E+00 -0.52147518187E+03  0.52147518187E+03  0.00000000000E+00 0.  1.
         23    2    1    2    0    0  0.25100235378E+03  0.10900863918E+03 -0.27116187778E+03  0.40337220003E+03  0.11956296574E+03 0.  0.
        254    2    1    2    0    0 -0.25100235378E+03 -0.10900863918E+03  0.10122215697E+04  0.13806378556E+04  0.89815550837E+03 0.  0.
         23    2    4    4    0    0  0.29620180688E+03 -0.12319608439E+03  0.60959435314E+03  0.69493695731E+03  0.91756818002E+02 0.  0.
         23    2    4    4    0    0 -0.54720416065E+03  0.14187445212E+02  0.40262721657E+03  0.68570089833E+03  0.91887808799E+02 0.  0.
          4    1    3    3  502    0  0.10691858930E+03  0.10324263268E+03 -0.97992236514E+02  0.17802557220E+03  0.00000000000E+00 0. -1.
         -4    1    3    3    0  502  0.14408376448E+03  0.57660064966E+01 -0.17316964126E+03  0.22534662783E+03  0.00000000000E+00 0.  1.
         11    1    5    5    0    0  0.26747696165E+03 -0.10180317266E+03  0.58569571377E+03  0.65187980495E+03  0.00000000000E+00 0. -1.
        -11    1    5    5    0    0  0.28724845225E+02 -0.21392911724E+02  0.23898639369E+02  0.43057152355E+02  0.00000000000E+00 0.  1.
          2    1    6    6  503    0  0.17397051091E+01 -0.19329997811E+01  0.10699258415E+02  0.11010776206E+02  0.00000000000E+00 0.  1.
         -2    1    6    6    0  503 -0.54894386576E+03  0.16120444994E+02  0.39192795816E+03  0.67469012212E+03  0.00000000000E+00 0. -1.
<mgrwt>
<rscale>  0 0.16228131E+04</rscale>
<asrwt>0</asrwt>
<pdfrwt beam="1">  1        2 0.19423613E+00 0.16228131E+04</pdfrwt>
<pdfrwt beam="2">  1       -2 0.80226951E-01 0.16228131E+04</pdfrwt>
<totfact> 0.22865548E+01</totfact>
</mgrwt>
</event>
<event>
12    2  0.3561489E-008  0.2867956E+04  0.7818608E-02  0.8282476E-01
         -1   -1    0    0    0  501 -0.00000000000E+00  0.00000000000E+00  0.87210448405E+03  0.87210448405E+03  0.00000000000E+00 0.  1.
          1   -1    0    0  501    0  0.00000000000E+00 -0.00000000000E+00 -0.23578510163E+04  0.23578510163E+04  0.00000000000E+00 0. -1.
         23    2    1    2    0    0  0.62989986112E+03 -0.29940875619E+03  0.55393476711E+03  0.89539440039E+03  0.92021561054E+02 0.  0.
        254    2    1    2    0    0 -0.62989986112E+03  0.29940875619E+03 -0.20396812993E+04  0.23345610999E+04  0.89635723246E+03 0.  0.
         23    2    4    4    0    0 -0.65672869887E+03  0.54300252968E+03 -0.17147696812E+04  0.19170155675E+04  0.91483853791E+02 0.  0.
         23    2    4    4    0    0  0.26828837748E+02 -0.24359377349E+03 -0.32491161816E+03  0.41754553242E+03  0.93375580358E+02 0.  0.
          3    1    3    3  502    0  0.22902445155E+03 -0.60875190456E+02  0.19053129148E+03  0.30407262497E+03  0.00000000000E+00 0. -1.
         -3    1    3    3    0  502  0.40087540957E+03 -0.23853356573E+03  0.36340347563E+03  0.59132177542E+03  0.00000000000E+00 0.  1.
         11    1    5    5    0    0 -0.11508163527E+03  0.14259076985E+03 -0.34917429160E+03  0.39433310327E+03  0.00000000000E+00 0.  1.
        -11    1    5    5    0    0 -0.54164706360E+03  0.40041175983E+03 -0.13655953896E+04  0.15226824642E+04  0.00000000000E+00 0. -1.
          2    1    6    6  503    0  0.52623419099E+01  0.80157748526E+01 -0.14534010887E+02  0.17412132590E+02  0.00000000000E+00 0.  1.
         -2    1    6    6    0  503  0.21566495838E+02 -0.25160954834E+03 -0.31037760728E+03  0.40013339983E+03  0.00000000000E+00 0. -1.
<mgrwt>
<rscale>  0 0.28679557E+04</rscale>
<asrwt>0</asrwt>
<pdfrwt beam="1">  1        1 0.36274631E+00 0.28679557E+04</pdfrwt>
<pdfrwt beam="2">  1       -1 0.13416992E+00 0.28679557E+04</pdfrwt>
<totfact> 0.68393504E-01</totfact>
</mgrwt>
</event>
<event>
12    2  0.3561489E-008  0.1494385E+04  0.7818608E-02  0.8888195E-01
         -2   -1    0    0    0  501 -0.00000000000E+00  0.00000000000E+00  0.70469960471E+03  0.70469960471E+03  0.00000000000E+00 0.  1.
          2   -1    0    0  501    0  0.00000000000E+00 -0.00000000000E+00 -0.79224775524E+03  0.79224775524E+03  0.00000000000E+00 0. -1.
         23    2    1    2    0    0  0.21076559255E+02 -0.11810655584E+03  0.49778300185E+03  0.52020146646E+03  0.91805603802E+02 0.  0.
        254    2    1    2    0    0 -0.21076559255E+02  0.11810655584E+03 -0.58533115238E+03  0.97674589350E+03  0.77267496572E+03 0.  0.
         23    2    4    4    0    0 -0.26860632366E+03 -0.16087193362E+03 -0.68408006872E+02  0.33311641911E+03  0.90872202252E+02 0.  0.
         23    2    4    4    0    0  0.24752976440E+03  0.27897848945E+03 -0.51692314551E+03  0.64362947439E+03  0.89159296224E+02 0.  0.
          3    1    3    3  502    0 -0.30486587733E+02 -0.12684283709E+02  0.89954853678E+02  0.95823790287E+02  0.00000000000E+00 0. -1.
         -3    1    3    3    0  502  0.51563146989E+02 -0.10542227213E+03  0.40782814817E+03  0.42437767617E+03  0.00000000000E+00 0.  1.
         11    1    5    5    0    0 -0.27540077424E+03 -0.15160000913E+03 -0.67849152820E+02  0.32160792397E+03  0.00000000000E+00 0.  1.
        -11    1    5    5    0    0  0.67944505870E+01 -0.92719244924E+01 -0.55885405173E+00  0.11508495142E+02  0.00000000000E+00 0. -1.
          1    1    6    6  503    0  0.54243179998E+02  0.37199240055E+02 -0.46695806970E+02  0.80663525992E+02  0.00000000000E+00 0. -1.
         -1    1    6    6    0  503  0.19328658440E+03  0.24177924940E+03 -0.47022733854E+03  0.56296594840E+03  0.00000000000E+00 0.  1.
<mgrwt>
<rscale>  0 0.14943851E+04</rscale>
<asrwt>0</asrwt>
<pdfrwt beam="1">  1        2 0.12188427E+00 0.14943851E+04</pdfrwt>
<pdfrwt beam="2">  1       -2 0.10841532E+00 0.14943851E+04</pdfrwt>
<totfact> 0.22955960E+01</totfact>
</mgrwt>
</event>
<event>
12    2  0.3561489E-008  0.3139010E+04  0.7818608E-02  0.8205113E-01
         -1   -1    0    0    0  501 -0.00000000000E+00  0.00000000000E+00  0.57021477113E+03  0.57021477113E+03  0.00000000000E+00 0.  1.
          1   -1    0    0  501    0  0.00000000000E+00 -0.00000000000E+00 -0.43200315595E+04  0.43200315595E+04  0.00000000000E+00 0. -1.
         23    2    1    2    0    0 -0.10023515749E+04  0.52571047250E+03 -0.31026057533E+04  0.33038182577E+04  0.89288513936E+02 0.  0.
        254    2    1    2    0    0  0.10023515749E+04 -0.52571047250E+03 -0.64721103503E+03  0.15864280729E+04  0.90376530477E+03 0.  0.
         23    2    4    4    0    0  0.72817739473E+03 -0.14577276093E+03  0.39941556421E+02  0.74877100402E+03  0.87009611567E+02 0.  0.
         23    2    4    4    0    0  0.27417418015E+03 -0.37993771157E+03 -0.68715259145E+03  0.83765706889E+03  0.99832536790E+02 0.  0.
          2    1    3    3  502    0 -0.82479202521E+03  0.45796214858E+03 -0.25071645617E+04  0.26787843053E+04  0.00000000000E+00 0. -1.
         -2    1    3    3    0  502 -0.17755954967E+03  0.67748323917E+02 -0.59544119158E+03  0.62503395244E+03  0.00000000000E+00 0.  1.
         11    1    5    5    0    0  0.44435420865E+03 -0.90976071693E+02  0.66787756417E+02  0.45846255329E+03  0.00000000000E+00 0.  1.
        -11    1    5    5    0    0  0.28382318608E+03 -0.54796689236E+02 -0.26846199996E+02  0.29030845073E+03  0.00000000000E+00 0. -1.
          3    1    6    6  503    0  0.78572434922E+02 -0.17002916849E+03 -0.21483667474E+03  0.28502340690E+03  0.00000000000E+00 0. -1.
         -3    1    6    6    0  503  0.19560174523E+03 -0.20990854307E+03 -0.47231591671E+03  0.55263366199E+03  0.00000000000E+00 0.  1.
<mgrwt>
<rscale>  0 0.31390099E+04</rscale>
<asrwt>0</asrwt>
<pdfrwt beam="1">  1        1 0.66462025E+00 0.31390099E+04</pdfrwt>
<pdfrwt beam="2">  1       -1 0.87725348E-01 0.31390099E+04</pdfrwt>
<totfact> 0.52230493E-02</totfact>
</mgrwt>
</event>
<event>
12    2  0.3561489E-008  0.2978341E+04  0.7818608E-02  0.8249943E-01
          1   -1    0    0  501    0  0.00000000000E+00  0.00000000000E+00  0.21382597387E+04  0.21382597387E+04  0.00000000000E+00 0. -1.
         -1   -1    0    0    0  501 -0.00000000000E+00 -0.00000000000E+00 -0.10371185791E+04  0.10371185791E+04  0.00000000000E+00 0.  1.
         23    2    1    2    0    0 -0.50189940980E+03  0.43363306475E+02  0.18363198715E+04  0.19064057930E+04  0.92352494331E+02 0.  0.
        254    2    1    2    0    0  0.50189940980E+03 -0.43363306475E+02 -0.73517871192E+03  0.12689725249E+04  0.90333832892E+03 0.  0.
         23    2    4    4    0    0  0.56473204136E+03  0.29621163416E+03 -0.61037145672E+03  0.88858337208E+03  0.10180119453E+03 0.  0.
         23    2    4    4    0    0 -0.62832631554E+02 -0.33957494063E+03 -0.12480725520E+03  0.38038915279E+03  0.99297415454E+02 0.  0.
          2    1    3    3  502    0 -0.45100556935E+03  0.61534302421E+02  0.15697563933E+04  0.16344196610E+04  0.00000000000E+00 0. -1.
         -2    1    3    3    0  502 -0.50893840450E+02 -0.18170995945E+02  0.26656347820E+03  0.27198613200E+03  0.00000000000E+00 0.  1.
         11    1    5    5    0    0  0.56554345350E+03  0.29360859770E+03 -0.59123931451E+03  0.86925792114E+03  0.00000000000E+00 0.  1.
        -11    1    5    5    0    0 -0.81141214487E+00  0.26030364543E+01 -0.19132142202E+02  0.19325450931E+02  0.00000000000E+00 0. -1.
          1    1    6    6  503    0  0.15766074455E+02 -0.47338421585E+02  0.68607053815E+01  0.50364318126E+02  0.00000000000E+00 0. -1.
         -1    1    6    6    0  503 -0.78598706010E+02 -0.29223651905E+03 -0.13166796058E+03  0.33002483466E+03  0.00000000000E+00 0.  1.
<mgrwt>
<rscale>  0 0.29783411E+04</rscale>
<asrwt>0</asrwt>
<pdfrwt beam="1">  1        1 0.32896304E+00 0.29783411E+04</pdfrwt>
<pdfrwt beam="2">  1       -1 0.15955670E+00 0.29783411E+04</pdfrwt>
<totfact> 0.60264386E-01</totfact>
</mgrwt>
</event>
<event>
12    2  0.3561489E-008  0.2307361E+04  0.7818608E-02  0.8475024E-01
          1   -1    0    0  501    0  0.00000000000E+00  0.00000000000E+00  0.19049499110E+04  0.19049499110E+04  0.00000000000E+00 0. -1.
         -1   -1    0    0    0  501 -0.00000000000E+00 -0.00000000000E+00 -0.69869493331E+03  0.69869493331E+03  0.00000000000E+00 0.  1.
         23    2    1    2    0    0  0.42050505430E+03  0.86780452370E+03  0.35653919703E+03  0.10317601668E+04  0.86600523782E+02 0.  0.
        254    2    1    2    0    0 -0.42050505430E+03 -0.86780452370E+03  0.84971578063E+03  0.15718846775E+04  0.90492836149E+03 0.  0.
         23    2    4    4    0    0 -0.48853204004E+03 -0.83074110675E+03  0.99212025076E+03  0.13861337535E+04  0.90938715994E+02 0.  0.
         23    2    4    4    0    0  0.68026985744E+02 -0.37063416942E+02 -0.14240447012E+03  0.18575092398E+03  0.90680786183E+02 0.  0.
          2    1    3    3  502    0  0.78247682847E+02  0.19042577400E+03  0.11218889152E+03  0.23445899994E+03  0.00000000000E+00 0. -1.
         -2    1    3    3    0  502  0.34225737145E+03  0.67737874970E+03  0.24435030552E+03  0.79730116685E+03  0.00000000000E+00 0.  1.
         11    1    5    5    0    0 -0.21644718500E+03 -0.34989904577E+03  0.36103624804E+03  0.54738094461E+03  0.00000000000E+00 0.  1.
        -11    1    5    5    0    0 -0.27208485504E+03 -0.48084206098E+03  0.63108400271E+03  0.83875280890E+03  0.00000000000E+00 0. -1.
          3    1    6    6  503    0  0.75647533580E+02 -0.58371905308E+02 -0.10444556823E+03  0.14155813431E+03  0.00000000000E+00 0. -1.
         -3    1    6    6    0  503 -0.76205478369E+01  0.21308488366E+02 -0.37958901898E+02  0.44192789673E+02  0.00000000000E+00 0.  1.
<mgrwt>
<rscale>  0 0.23073611E+04</rscale>
<asrwt>0</asrwt>
<pdfrwt beam="1">  1        1 0.29306922E+00 0.23073611E+04</pdfrwt>
<pdfrwt beam="2">  1       -1 0.10749153E+00 0.23073611E+04</pdfrwt>
<totfact> 0.25162984E+00</totfact>
</mgrwt>
</event>
<event>
12    2  0.3561489E-008  0.2597042E+04  0.7818608E-02  0.8369206E-01
          2   -1    0    0  501    0  0.00000000000E+00  0.00000000000E+00  0.85817963349E+03  0.85817963349E+03  0.00000000000E+00 0. -1.
         -2   -1    0    0    0  501 -0.00000000000E+00 -0.00000000000E+00 -0.19648070892E+04  0.19648070892E+04  0.00000000000E+00 0.  1.
         23    2    1    2    0    0 -0.10432185527E+04  0.38869102315E+03 -0.22059093581E+03  0.11385986615E+04  0.91437907202E+02 0.  0.
        254    2    1    2    0    0  0.10432185527E+04 -0.38869102315E+03 -0.88603651986E+03  0.16843880612E+04  0.90150805093E+03 0.  0.
         23    2    4    4    0    0  0.48163780132E+03 -0.39647714340E+03  0.11741323860E+01  0.63057719636E+03  0.91962628796E+02 0.  0.
         23    2    4    4    0    0  0.56158075137E+03  0.77861202513E+01 -0.88721065225E+03  0.10538108648E+04  0.89112475602E+02 0.  0.
          1    1    3    3  502    0 -0.76106699311E+03  0.30299592990E+03 -0.12520783730E+03  0.82867756338E+03  0.00000000000E+00 0. -1.
         -1    1    3    3    0  502 -0.28215155958E+03  0.85695093251E+02 -0.95383098509E+02  0.30992109812E+03  0.00000000000E+00 0.  1.
         11    1    5    5    0    0  0.33726547351E+03 -0.30743754451E+03  0.34683203459E+02  0.45767758083E+03  0.00000000000E+00 0. -1.
        -11    1    5    5    0    0  0.14437232781E+03 -0.89039598887E+02 -0.33509071073E+02  0.17289961553E+03  0.00000000000E+00 0.  1.
          1    1    6    6  503    0  0.22019704113E+03  0.24521554344E+01 -0.43087908115E+03  0.48389000047E+03  0.00000000000E+00 0. -1.
         -1    1    6    6    0  503  0.34138371024E+03  0.53339648170E+01 -0.45633157110E+03  0.56992086432E+03  0.00000000000E+00 0.  1.
<mgrwt>
<rscale>  0 0.25970425E+04</rscale>
<asrwt>0</asrwt>
<pdfrwt beam="1">  1        2 0.13202764E+00 0.25970425E+04</pdfrwt>
<pdfrwt beam="2">  1       -2 0.30227801E+00 0.25970425E+04</pdfrwt>
<totfact> 0.85313757E-01</totfact>
</mgrwt>
</event>
<event>
12    2  0.3561489E-008  0.1060871E+04  0.7818608E-02  0.9244192E-01
          2   -1    0    0  501    0  0.00000000000E+00  0.00000000000E+00  0.29077377306E+03  0.29077377306E+03  0.00000000000E+00 0. -1.
         -2   -1    0    0    0  501 -0.00000000000E+00 -0.00000000000E+00 -0.96763130342E+03  0.96763130342E+03  0.00000000000E+00 0.  1.
         23    2    1    2    0    0 -0.78596863015E+02  0.58336310491E+02 -0.18775276061E+03  0.23054326099E+03  0.91205833538E+02 0.  0.
        254    2    1    2    0    0  0.78596863015E+02 -0.58336310491E+02 -0.48910476975E+03  0.10278618155E+04  0.89871900166E+03 0.  0.
         23    2    4    4    0    0  0.42566811863E+03 -0.88281842219E+02 -0.31803849620E+02  0.44577059467E+03  0.93342955454E+02 0.  0.
         23    2    4    4    0    0 -0.34707125562E+03  0.29945531728E+02 -0.45730092013E+03  0.58209122082E+03  0.91383075359E+02 0.  0.
          1    1    3    3  502    0  0.15293016337E+02  0.56544320359E+01 -0.28078553645E+01  0.16544878424E+02  0.00000000000E+00 0. -1.
         -1    1    3    3    0  502 -0.93889879352E+02  0.52681878455E+02 -0.18494490525E+03  0.21399838256E+03  0.00000000000E+00 0.  1.
         11    1    5    5    0    0  0.25017279025E+03 -0.28381085641E+02 -0.58331319427E+02  0.25844623005E+03  0.00000000000E+00 0. -1.
        -11    1    5    5    0    0  0.17549532839E+03 -0.59900756578E+02  0.26527469807E+02  0.18732436461E+03  0.00000000000E+00 0.  1.
          4    1    6    6  503    0 -0.23474137398E+03 -0.17652200904E+02 -0.26605998046E+03  0.35525065244E+03  0.00000000000E+00 0. -1.
         -4    1    6    6    0  503 -0.11232988164E+03  0.47597732632E+02 -0.19124093967E+03  0.22684056839E+03  0.00000000000E+00 0.  1.
<mgrwt>
<rscale>  0 0.10608710E+04</rscale>
<asrwt>0</asrwt>
<pdfrwt beam="1">  1        2 0.44734427E-01 0.10608710E+04</pdfrwt>
<pdfrwt beam="2">  1       -2 0.14886635E+00 0.10608710E+04</pdfrwt>
<totfact> 0.34548540E+01</totfact>
</mgrwt>
</event>
<event>
12    2  0.3561489E-008  0.1399302E+04  0.7818608E-02  0.8954324E-01
          2   -1    0    0  501    0  0.00000000000E+00  0.00000000000E+00  0.25172665485E+04  0.25172665485E+04  0.00000000000E+00 0. -1.
         -2   -1    0    0    0  501 -0.00000000000E+00 -0.00000000000E+00 -0.19446165553E+03  0.19446165553E+03  0.00000000000E+00 0.  1.
         23    2    1    2    0    0 -0.27881140703E+03 -0.20475176943E+03  0.11408598131E+04  0.11956276411E+04  0.91133173630E+02 0.  0.
        254    2    1    2    0    0  0.27881140703E+03  0.20475176943E+03  0.11819450799E+04  0.15161005629E+04  0.88425542534E+03 0.  0.
         23    2    4    4    0    0  0.50129362648E+03  0.35177506181E+03  0.10141414303E+04  0.11880317782E+04  0.88857590359E+02 0.  0.
         23    2    4    4    0    0 -0.22248221945E+03 -0.14702329238E+03  0.16780364963E+03  0.32806878473E+03  0.91415951624E+02 0.  0.
          4    1    3    3  502    0 -0.27276045821E+03 -0.19161484107E+03  0.11281742107E+04  0.11763892062E+04  0.00000000000E+00 0. -1.
         -4    1    3    3    0  502 -0.60509488187E+01 -0.13136928369E+02  0.12685602364E+02  0.19238434861E+02  0.00000000000E+00 0.  1.
         11    1    5    5    0    0  0.87178867753E+02  0.10213198428E+03  0.24916497089E+03  0.28304466064E+03  0.00000000000E+00 0.  1.
        -11    1    5    5    0    0  0.41411475872E+03  0.24964307753E+03  0.76497645939E+03  0.90498711758E+03  0.00000000000E+00 0. -1.
          3    1    6    6  503    0 -0.13142579264E+03 -0.39088707448E+02  0.10874476765E+03  0.17500311572E+03  0.00000000000E+00 0. -1.
         -3    1    6    6    0  503 -0.91056426805E+02 -0.10793458493E+03  0.59058881976E+02  0.15306566900E+03  0.00000000000E+00 0.  1.
<mgrwt>
<rscale>  0 0.13993024E+04</rscale>
<asrwt>0</asrwt>
<pdfrwt beam="1">  1        2 0.38727175E+00 0.13993024E+04</pdfrwt>
<pdfrwt beam="2">  1       -2 0.29917179E-01 0.13993024E+04</pdfrwt>
<totfact> 0.34259671E+01</totfact>
</mgrwt>
</event>
<event>
12    2  0.3561489E-008  0.1387113E+04  0.7818608E-02  0.8963200E-01
         -2   -1    0    0    0  501 -0.00000000000E+00  0.00000000000E+00  0.19179149612E+03  0.19179149612E+03  0.00000000000E+00 0.  1.
          2   -1    0    0  501    0  0.00000000000E+00 -0.00000000000E+00 -0.25080380299E+04  0.25080380299E+04  0.00000000000E+00 0. -1.
         23    2    1    2    0    0 -0.18733281545E+03  0.32317586311E+03 -0.93097773088E+03  0.10073019876E+04  0.91659896779E+02 0.  0.
        254    2    1    2    0    0  0.18733281545E+03 -0.32317586311E+03 -0.13852688029E+04  0.16925275384E+04  0.89785499365E+03 0.  0.
         23    2    4    4    0    0  0.34068959447E+03 -0.42563837997E+03 -0.13793929372E+04  0.14863586736E+04  0.96435475217E+02 0.  0.
         23    2    4    4    0    0 -0.15335677902E+03  0.10246251686E+03 -0.58758656302E+01  0.20616886479E+03  0.91946756217E+02 0.  0.
          4    1    3    3  502    0 -0.17577911815E+03  0.31137179373E+03 -0.92107521337E+03  0.98804364326E+03  0.00000000000E+00 0. -1.
         -4    1    3    3    0  502 -0.11553697301E+02  0.11804069383E+02 -0.99025175093E+01  0.19258344382E+02  0.00000000000E+00 0.  1.
         11    1    5    5    0    0  0.33250280551E+03 -0.41475107394E+03 -0.12793516656E+04  0.13853942591E+04  0.00000000000E+00 0. -1.
        -11    1    5    5    0    0  0.81867889617E+01 -0.10887306024E+02 -0.10004127166E+03  0.10096441443E+03  0.00000000000E+00 0.  1.
          1    1    6    6  503    0 -0.84252970453E+02  0.92405756152E+02 -0.35982619240E+02  0.13012354010E+03  0.00000000000E+00 0. -1.
         -1    1    6    6    0  503 -0.69103808569E+02  0.10056760706E+02  0.30106753610E+02  0.76045324692E+02  0.00000000000E+00 0.  1.
<mgrwt>
<rscale>  0 0.13871126E+04</rscale>
<asrwt>0</asrwt>
<pdfrwt beam="1">  1        2 0.38585203E+00 0.13871126E+04</pdfrwt>
<pdfrwt beam="2">  1       -2 0.29506382E-01 0.13871126E+04</pdfrwt>
<totfact> 0.35624117E+01</totfact>
</mgrwt>
</event>
<event>
12    2  0.3561489E-008  0.2032859E+04  0.7818608E-02  0.8591410E-01
         -2   -1    0    0    0  501 -0.00000000000E+00  0.00000000000E+00  0.38427658335E+03  0.38427658335E+03  0.00000000000E+00 0.  1.
          2   -1    0    0  501    0  0.00000000000E+00 -0.00000000000E+00 -0.26885033297E+04  0.26885033297E+04  0.00000000000E+00 0. -1.
         23    2    1    2    0    0  0.11456823465E+03  0.75266175359E+03 -0.38899453037E+03  0.86023036695E+03  0.95152214133E+02 0.  0.
        254    2    1    2    0    0 -0.11456823465E+03 -0.75266175359E+03 -0.19152322159E+04  0.22125495461E+04  0.80475801153E+03 0.  0.
         23    2    4    4    0    0  0.14450755413E+03 -0.79680449301E+03 -0.15752853259E+04  0.17735417984E+04  0.90259732575E+02 0.  0.
         23    2    4    4    0    0 -0.25907578878E+03  0.44142739420E+02 -0.33994689004E+03  0.43900774769E+03  0.89972599751E+02 0.  0.
          2    1    3    3  502    0 -0.78530248474E+01  0.88630444639E+02 -0.21740499860E+02  0.91595169361E+02  0.00000000000E+00 0. -1.
         -2    1    3    3    0  502  0.12242125949E+03  0.66403130895E+03 -0.36725403051E+03  0.76863519759E+03  0.00000000000E+00 0.  1.
         11    1    5    5    0    0  0.92597856528E+02 -0.57930700355E+03 -0.10528519041E+04  0.12052668167E+04  0.00000000000E+00 0. -1.
        -11    1    5    5    0    0  0.51909697607E+02 -0.21749748946E+03 -0.52243342178E+03  0.56827498169E+03  0.00000000000E+00 0.  1.
          4    1    6    6  503    0 -0.81843967218E+02  0.43207049400E+02 -0.16946024522E+03  0.19308562556E+03  0.00000000000E+00 0. -1.
         -4    1    6    6    0  503 -0.17723182156E+03  0.93569002019E+00 -0.17048664483E+03  0.24592212213E+03  0.00000000000E+00 0.  1.
<mgrwt>
<rscale>  0 0.20328589E+04</rscale>
<asrwt>0</asrwt>
<pdfrwt beam="1">  1        2 0.41361591E+00 0.20328589E+04</pdfrwt>
<pdfrwt beam="2">  1       -2 0.59119473E-01 0.20328589E+04</pdfrwt>
<totfact> 0.66860723E+00</totfact>
</mgrwt>
</event>
<event>
12    2  0.3561489E-008  0.1482406E+04  0.7818608E-02  0.8896238E-01
          1   -1    0    0  501    0  0.00000000000E+00  0.00000000000E+00  0.34449696662E+04  0.34449696662E+04  0.00000000000E+00 0. -1.
         -1   -1    0    0    0  501 -0.00000000000E+00 -0.00000000000E+00 -0.15947363132E+03  0.15947363132E+03  0.00000000000E+00 0.  1.
         23    2    1    2    0    0 -0.55504929364E+02  0.24370031196E+03  0.10058471702E+03  0.28441132015E+03  0.91114622868E+02 0.  0.
        254    2    1    2    0    0  0.55504929364E+02 -0.24370031196E+03  0.31849113179E+04  0.33200319774E+04  0.90359370782E+03 0.  0.
         23    2    4    4    0    0  0.32722914821E+02  0.31751519146E+03  0.16395761816E+04  0.16728389456E+04  0.91068087893E+02 0.  0.
         23    2    4    4    0    0  0.22782014544E+02 -0.56121550342E+03  0.15453351362E+04  0.16471930317E+04  0.98500452260E+02 0.  0.
          1    1    3    3  502    0 -0.35376885243E+02  0.26139122758E+02  0.35231659912E+02  0.56356433601E+02  0.00000000000E+00 0. -1.
         -1    1    3    3    0  502 -0.20128044121E+02  0.21756118920E+03  0.65353057106E+02  0.22805488655E+03  0.00000000000E+00 0.  1.
         11    1    5    5    0    0  0.53620530293E+02  0.10833398072E+03  0.65674219217E+03  0.66777370390E+03  0.00000000000E+00 0.  1.
        -11    1    5    5    0    0 -0.20897615472E+02  0.20918121073E+03  0.98283398947E+03  0.10050652417E+04  0.00000000000E+00 0. -1.
          2    1    6    6  503    0  0.61194953461E+02 -0.30596064015E+03  0.86101459187E+03  0.91580721938E+03  0.00000000000E+00 0. -1.
         -2    1    6    6    0  503 -0.38412938918E+02 -0.25525486327E+03  0.68432054435E+03  0.73138581236E+03  0.00000000000E+00 0.  1.
<mgrwt>
<rscale>  0 0.14824059E+04</rscale>
<asrwt>0</asrwt>
<pdfrwt beam="1">  1        1 0.52999528E+00 0.14824059E+04</pdfrwt>
<pdfrwt beam="2">  1       -1 0.24534407E-01 0.14824059E+04</pdfrwt>
<totfact> 0.39128685E+00</totfact>
</mgrwt>
</event>
<event>
12    2  0.3561489E-008  0.2606465E+04  0.7818608E-02  0.8366008E-01
          1   -1    0    0  501    0  0.00000000000E+00  0.00000000000E+00  0.24397560318E+04  0.24397560318E+04  0.00000000000E+00 0. -1.
         -1   -1    0    0    0  501 -0.00000000000E+00 -0.00000000000E+00 -0.69614140018E+03  0.69614140018E+03  0.00000000000E+00 0.  1.
         23    2    1    2    0    0 -0.11056175496E+04 -0.18896042691E+03  0.10586999253E+04  0.15461151753E+04  0.10737967489E+03 0.  0.
        254    2    1    2    0    0  0.11056175496E+04  0.18896042691E+03  0.68491470633E+03  0.15897822567E+04  0.89454080938E+03 0.  0.
         23    2    4    4    0    0  0.11354858716E+04 -0.86668432190E+02  0.53695874697E+03  0.12622138234E+04  0.89551427305E+02 0.  0.
         23    2    4    4    0    0 -0.29868321995E+02  0.27562885910E+03  0.14795595936E+03  0.32756843330E+03  0.92448515164E+02 0.  0.
          3    1    3    3  502    0 -0.11919038692E+03 -0.54976204341E+02  0.12720143784E+03  0.18278111819E+03  0.00000000000E+00 0. -1.
         -3    1    3    3    0  502 -0.98642716271E+03 -0.13398422256E+03  0.93149848743E+03  0.13633340571E+04  0.00000000000E+00 0.  1.
         11    1    5    5    0    0  0.16456786460E+03  0.13461877768E+02  0.97736389178E+02  0.19187549604E+03  0.00000000000E+00 0.  1.
        -11    1    5    5    0    0  0.97091800703E+03 -0.10013030996E+03  0.43922235779E+03  0.10703383273E+04  0.00000000000E+00 0. -1.
          3    1    6    6  503    0 -0.36471859490E+02  0.27773288171E+03  0.15282881942E+03  0.31909622085E+03  0.00000000000E+00 0. -1.
         -3    1    6    6    0  503  0.66035374957E+01 -0.21040226107E+01 -0.48728600566E+01  0.84722124463E+01  0.00000000000E+00 0.  1.
<mgrwt>
<rscale>  0 0.26064652E+04</rscale>
<asrwt>0</asrwt>
<pdfrwt beam="1">  1        1 0.37534708E+00 0.26064652E+04</pdfrwt>
<pdfrwt beam="2">  1       -1 0.10709868E+00 0.26064652E+04</pdfrwt>
<totfact> 0.10666713E+00</totfact>
</mgrwt>
</event>
<event>
12    2  0.3561489E-008  0.1363901E+04  0.7818608E-02  0.8980372E-01
          2   -1    0    0  501    0  0.00000000000E+00  0.00000000000E+00  0.36803311406E+04  0.36803311406E+04  0.00000000000E+00 0. -1.
         -2   -1    0    0    0  501 -0.00000000000E+00 -0.00000000000E+00 -0.12636264915E+03  0.12636264915E+03  0.00000000000E+00 0.  1.
         23    2    1    2    0    0  0.17589739362E+03  0.24106619715E+03  0.16464634560E+04  0.16757456502E+04  0.90712554540E+02 0.  0.
        254    2    1    2    0    0 -0.17589739362E+03 -0.24106619715E+03  0.19075050354E+04  0.21309481395E+04  0.90183796156E+03 0.  0.
         23    2    4    4    0    0 -0.70423617244E+02  0.74511023789E+02  0.17435730322E+04  0.17488924789E+04  0.89814282646E+02 0.  0.
         23    2    4    4    0    0 -0.10547377637E+03 -0.31557722094E+03  0.16393200315E+03  0.38205566067E+03  0.91537567792E+02 0.  0.
          4    1    3    3  502    0  0.18539019594E+03  0.21371252020E+03  0.14999969372E+04  0.15264446854E+04  0.00000000000E+00 0. -1.
         -4    1    3    3    0  502 -0.94928023204E+01  0.27353676952E+02  0.14646651884E+03  0.14930096477E+03  0.00000000000E+00 0.  1.
         11    1    5    5    0    0 -0.74569384967E+02  0.34629873896E+02  0.74658898368E+03  0.75110247763E+03  0.00000000000E+00 0. -1.
        -11    1    5    5    0    0  0.41457677227E+01  0.39881149893E+02  0.99698404856E+03  0.99779000125E+03  0.00000000000E+00 0.  1.
          4    1    6    6  503    0 -0.55530275508E+02 -0.25579765897E+03  0.96341003484E+02  0.27892228807E+03  0.00000000000E+00 0. -1.
         -4    1    6    6    0  503 -0.49943500865E+02 -0.59779561970E+02  0.67590999661E+02  0.10313337260E+03  0.00000000000E+00 0.  1.
<mgrwt>
<rscale>  0 0.13639009E+04</rscale>
<asrwt>0</asrwt>
<pdfrwt beam="1">  1        2 0.56620471E+00 0.13639009E+04</pdfrwt>
<pdfrwt beam="2">  1       -2 0.19440410E-01 0.13639009E+04</pdfrwt>
<totfact> 0.13529379E+01</totfact>
</mgrwt>
</event>
<event>
12    2  0.3561489E-008  0.1285587E+04  0.7818608E-02  0.9041074E-01
          1   -1    0    0  501    0  0.00000000000E+00  0.00000000000E+00  0.14546729580E+04  0.14546729580E+04  0.00000000000E+00 0. -1.
         -1   -1    0    0    0  501 -0.00000000000E+00 -0.00000000000E+00 -0.28403864230E+03  0.28403864230E+03  0.00000000000E+00 0.  1.
         23    2    1    2    0    0 -0.73718916826E+01 -0.26768056859E+03  0.54279801489E+03  0.61205011588E+03  0.90930895705E+02 0.  0.
        254    2    1    2    0    0  0.73718916826E+01  0.26768056859E+03  0.62783630085E+03  0.11266614845E+04  0.89637070919E+03 0.  0.
         23    2    4    4    0    0  0.36768605497E+03  0.16315374318E+01  0.37564834413E+02  0.38113078562E+03  0.93026136261E+02 0.  0.
         23    2    4    4    0    0 -0.36031416329E+03  0.26604903116E+03  0.59027146644E+03  0.74553069883E+03  0.82384680394E+02 0.  0.
          3    1    3    3  502    0  0.13133701039E+02 -0.25727276872E+03  0.47355098025E+03  0.53908468957E+03  0.00000000000E+00 0. -1.
         -3    1    3    3    0  502 -0.20505592722E+02 -0.10407799871E+02  0.69247034642E+02  0.72965426318E+02  0.00000000000E+00 0.  1.
         11    1    5    5    0    0  0.54217793084E+02  0.34003569244E+02  0.10245876742E+02  0.64813500125E+02  0.00000000000E+00 0. -1.
        -11    1    5    5    0    0  0.31346826189E+03 -0.32372031812E+02  0.27318957671E+02  0.31631728550E+03  0.00000000000E+00 0.  1.
          2    1    6    6  503    0 -0.74181846654E+02  0.97590664594E+02  0.14021577449E+03  0.18624539620E+03  0.00000000000E+00 0.  1.
         -2    1    6    6    0  503 -0.28613231664E+03  0.16845836657E+03  0.45005569195E+03  0.55928530264E+03  0.00000000000E+00 0. -1.
<mgrwt>
<rscale>  0 0.12855868E+04</rscale>
<asrwt>0</asrwt>
<pdfrwt beam="1">  1        1 0.22379583E+00 0.12855868E+04</pdfrwt>
<pdfrwt beam="2">  1       -1 0.43698254E-01 0.12855868E+04</pdfrwt>
<totfact> 0.35784904E+01</totfact>
</mgrwt>
</event>
<event>
12    2  0.3561489E-008  0.2321889E+04  0.7818608E-02  0.8469340E-01
         -2   -1    0    0    0  501 -0.00000000000E+00  0.00000000000E+00  0.89588602240E+03  0.89588602240E+03  0.00000000000E+00 0.  1.
          2   -1    0    0  501    0  0.00000000000E+00 -0.00000000000E+00 -0.15044240308E+04  0.15044240308E+04  0.00000000000E+00 0. -1.
         23    2    1    2    0    0 -0.54434463771E+03  0.34134087821E+02  0.58824925716E+03  0.80750733910E+03  0.92491586654E+02 0.  0.
        254    2    1    2    0    0  0.54434463771E+03 -0.34134087821E+02 -0.11967872656E+04  0.15928027141E+04  0.89846786616E+03 0.  0.
         23    2    4    4    0    0  0.46712647917E+03  0.12287104068E+03 -0.12857615282E+04  0.13765889659E+04  0.92249842862E+02 0.  0.
         23    2    4    4    0    0  0.77218158536E+02 -0.15700512850E+03  0.88974262610E+02  0.21621374821E+03  0.90657107421E+02 0.  0.
          4    1    3    3  502    0 -0.11594506256E+03  0.45264212511E+02  0.12368869045E+03  0.17547364079E+03  0.00000000000E+00 0. -1.
         -4    1    3    3    0  502 -0.42839957514E+03 -0.11130124689E+02  0.46456056671E+03  0.63203369831E+03  0.00000000000E+00 0.  1.
         11    1    5    5    0    0  0.21292658324E+03  0.87567261748E+01 -0.55846265550E+03  0.59774153921E+03  0.00000000000E+00 0.  1.
        -11    1    5    5    0    0  0.25419989593E+03  0.11411431451E+03 -0.72729887269E+03  0.77884742671E+03  0.00000000000E+00 0. -1.
          2    1    6    6  503    0  0.64030906168E+02 -0.69850246208E+02  0.86081043068E+02  0.12801937281E+03  0.00000000000E+00 0. -1.
         -2    1    6    6    0  503  0.13187252368E+02 -0.87154882296E+02  0.28932195419E+01  0.88194375401E+02  0.00000000000E+00 0.  1.
<mgrwt>
<rscale>  0 0.23218893E+04</rscale>
<asrwt>0</asrwt>
<pdfrwt beam="1">  1        2 0.23144985E+00 0.23218893E+04</pdfrwt>
<pdfrwt beam="2">  1       -2 0.13782862E+00 0.23218893E+04</pdfrwt>
<totfact> 0.42728871E+00</totfact>
</mgrwt>
</event>
<event>
12    2  0.3561489E-008  0.1200104E+04  0.7818608E-02  0.9112765E-01
         -1   -1    0    0    0  501 -0.00000000000E+00  0.00000000000E+00  0.16346562470E+03  0.16346562470E+03  0.00000000000E+00 0.  1.
          1   -1    0    0  501    0  0.00000000000E+00 -0.00000000000E+00 -0.22026810383E+04  0.22026810383E+04  0.00000000000E+00 0. -1.
         23    2    1    2    0    0  0.73370526029E+02  0.82506509668E+02 -0.83468790370E+03  0.84656628225E+03  0.88204395787E+02 0.  0.
        254    2    1    2    0    0 -0.73370526029E+02 -0.82506509668E+02 -0.12045275099E+04  0.15195803808E+04  0.91980837854E+03 0.  0.
         23    2    4    4    0    0 -0.16362396899E+03 -0.20241021292E+03  0.24931012578E+02  0.27767326581E+03  0.93478284313E+02 0.  0.
         23    2    4    4    0    0  0.90253442958E+02  0.11990370325E+03 -0.12294585225E+04  0.12419071150E+04  0.90787893527E+02 0.  0.
          3    1    3    3  502    0 -0.11739729286E+02  0.44396813010E+02 -0.34885736495E+03  0.35186696254E+03  0.00000000000E+00 0.  1.
         -3    1    3    3    0  502  0.85110255315E+02  0.38109696658E+02 -0.48583053876E+03  0.49469931972E+03  0.00000000000E+00 0. -1.
         11    1    5    5    0    0 -0.60471540068E+02 -0.21991105574E+02  0.27141109157E+02  0.69835919760E+02  0.00000000000E+00 0.  1.
        -11    1    5    5    0    0 -0.10315242892E+03 -0.18041910735E+03 -0.22100965785E+01  0.20783734605E+03  0.00000000000E+00 0. -1.
          3    1    6    6  503    0  0.19608946019E+02  0.99554274511E+02 -0.67028060016E+03  0.67791713896E+03  0.00000000000E+00 0. -1.
         -3    1    6    6    0  503  0.70644496939E+02  0.20349428742E+02 -0.55917792234E+03  0.56398997600E+03  0.00000000000E+00 0.  1.
<mgrwt>
<rscale>  0 0.12001044E+04</rscale>
<asrwt>0</asrwt>
<pdfrwt beam="1">  1        1 0.33887399E+00 0.12001044E+04</pdfrwt>
<pdfrwt beam="2">  1       -1 0.25148559E-01 0.12001044E+04</pdfrwt>
<totfact> 0.29871852E+01</totfact>
</mgrwt>
</event>
<event>
12    2  0.3561489E-008  0.1396597E+04  0.7818608E-02  0.8956286E-01
         -1   -1    0    0    0  501 -0.00000000000E+00  0.00000000000E+00  0.19803220063E+03  0.19803220063E+03  0.00000000000E+00 0.  1.
          1   -1    0    0  501    0  0.00000000000E+00 -0.00000000000E+00 -0.24623294243E+04  0.24623294243E+04  0.00000000000E+00 0. -1.
         23    2    1    2    0    0 -0.25637972684E+03 -0.30685365930E+03 -0.69754065625E+03  0.80914796661E+03  0.90927070721E+02 0.  0.
        254    2    1    2    0    0  0.25637972684E+03  0.30685365930E+03 -0.15667565674E+04  0.18512136583E+04  0.90131910810E+03 0.  0.
         23    2    4    4    0    0  0.13983931627E+03 -0.14956659655E+03 -0.12642306484E+04  0.12839339613E+04  0.91005951962E+02 0.  0.
         23    2    4    4    0    0  0.11654041057E+03  0.45642025585E+03 -0.30252591901E+03  0.56727969707E+03  0.91559848079E+02 0.  0.
          1    1    3    3  502    0 -0.10624919884E+03 -0.14102505627E+03 -0.22227949105E+03  0.28387520302E+03  0.00000000000E+00 0. -1.
         -1    1    3    3    0  502 -0.15013052800E+03 -0.16582860303E+03 -0.47526116521E+03  0.52527276359E+03  0.00000000000E+00 0.  1.
         11    1    5    5    0    0  0.44871269165E+02  0.22748088658E+01 -0.26420198563E+03  0.26799495287E+03  0.00000000000E+00 0. -1.
        -11    1    5    5    0    0  0.94968047100E+02 -0.15184140542E+03 -0.10000286628E+04  0.10159390084E+04  0.00000000000E+00 0.  1.
          4    1    6    6  503    0  0.17703303097E+02  0.24741175929E+03 -0.17114804487E+03  0.30135965032E+03  0.00000000000E+00 0. -1.
         -4    1    6    6    0  503  0.98837107475E+02  0.20900849657E+03 -0.13137787413E+03  0.26592004675E+03  0.00000000000E+00 0.  1.
<mgrwt>
<rscale>  0 0.13965966E+04</rscale>
<asrwt>0</asrwt>
<pdfrwt beam="1">  1        1 0.37881990E+00 0.13965966E+04</pdfrwt>
<pdfrwt beam="2">  1       -1 0.30466493E-01 0.13965966E+04</pdfrwt>
<totfact> 0.13980599E+01</totfact>
</mgrwt>
</event>
<event>
12    2  0.3561489E-008  0.1835195E+04  0.7818608E-02  0.8687804E-01
          1   -1    0    0  501    0  0.00000000000E+00  0.00000000000E+00  0.81761280927E+03  0.81761280927E+03  0.00000000000E+00 0. -1.
         -1   -1    0    0    0  501 -0.00000000000E+00 -0.00000000000E+00 -0.10298090034E+04  0.10298090034E+04  0.00000000000E+00 0.  1.
         23    2    1    2    0    0 -0.56267330261E+03 -0.71474200380E+02 -0.38598562757E+03  0.69213159125E+03  0.91386148417E+02 0.  0.
        254    2    1    2    0    0  0.56267330261E+03  0.71474200380E+02  0.17378943347E+03  0.11552902214E+04  0.99135408491E+03 0.  0.
         23    2    4    4    0    0  0.55958919300E+02 -0.57797475359E+02 -0.37334929999E+03  0.39287338341E+03  0.92129510907E+02 0.  0.
         23    2    4    4    0    0  0.50671438331E+03  0.12927167574E+03  0.54713873347E+03  0.76241683798E+03  0.91913050067E+02 0.  0.
          3    1    3    3  502    0 -0.52677912938E+02 -0.23714233439E+01 -0.74436677728E+01  0.53254054776E+02  0.00000000000E+00 0. -1.
         -3    1    3    3    0  502 -0.50999538967E+03 -0.69102777036E+02 -0.37854195980E+03  0.63887753648E+03  0.00000000000E+00 0.  1.
         11    1    5    5    0    0 -0.24754622923E+01  0.10186874939E+02 -0.17375939900E+03  0.17407535459E+03  0.00000000000E+00 0.  1.
        -11    1    5    5    0    0  0.58434381593E+02 -0.67984350298E+02 -0.19958990099E+03  0.21879802882E+03  0.00000000000E+00 0. -1.
          1    1    6    6  503    0  0.29848756873E+03  0.10188126130E+03  0.38114477484E+03  0.49471806059E+03  0.00000000000E+00 0. -1.
         -1    1    6    6    0  503  0.20822681458E+03  0.27390414443E+02  0.16599395863E+03  0.26769877739E+03  0.00000000000E+00 0.  1.
<mgrwt>
<rscale>  0 0.18351948E+04</rscale>
<asrwt>0</asrwt>
<pdfrwt beam="1">  1        1 0.12578659E+00 0.18351948E+04</pdfrwt>
<pdfrwt beam="2">  1       -1 0.15843215E+00 0.18351948E+04</pdfrwt>
<totfact> 0.60318716E+00</totfact>
</mgrwt>
</event>
<event>
12    2  0.3561489E-008  0.1697308E+04  0.7818608E-02  0.8762901E-01
          2   -1    0    0  501    0  0.00000000000E+00  0.00000000000E+00  0.15012108770E+04  0.15012108770E+04  0.00000000000E+00 0. -1.
         -2   -1    0    0    0  501 -0.00000000000E+00 -0.00000000000E+00 -0.47975511818E+03  0.47975511818E+03  0.00000000000E+00 0.  1.
         23    2    1    2    0    0 -0.21552389315E+03  0.35834887468E+03  0.78195055222E+03  0.89149989815E+03  0.91983355987E+02 0.  0.
        254    2    1    2    0    0  0.21552389315E+03 -0.35834887468E+03  0.23950520663E+03  0.10894660971E+04  0.97709220043E+03 0.  0.
         23    2    4    4    0    0  0.51601677529E+03 -0.19361423900E+03 -0.13372246293E+03  0.57488149731E+03  0.94059837011E+02 0.  0.
         23    2    4    4    0    0 -0.30049288213E+03 -0.16473463568E+03  0.37322766956E+03  0.51458459975E+03  0.89805036436E+02 0.  0.
          1    1    3    3  502    0 -0.99504936378E+02  0.23374001638E+03  0.40815819214E+03  0.48075850220E+03  0.00000000000E+00 0. -1.
         -1    1    3    3    0  502 -0.11601895678E+03  0.12460885831E+03  0.37379236008E+03  0.41074139596E+03  0.00000000000E+00 0.  1.
         11    1    5    5    0    0  0.33327667309E+03 -0.96115694225E+02 -0.45801875722E+02  0.34987051793E+03  0.00000000000E+00 0. -1.
        -11    1    5    5    0    0  0.18274010220E+03 -0.97498544774E+02 -0.87920587209E+02  0.22501097938E+03  0.00000000000E+00 0.  1.
          3    1    6    6  503    0 -0.49180051761E+02 -0.64312064254E+02  0.60858937126E+02  0.10128439825E+03  0.00000000000E+00 0. -1.
         -3    1    6    6    0  503 -0.25131283037E+03 -0.10042257143E+03  0.31236873243E+03  0.41330020151E+03  0.00000000000E+00 0.  1.
<mgrwt>
<rscale>  0 0.16973080E+04</rscale>
<asrwt>0</asrwt>
<pdfrwt beam="1">  1        2 0.23095552E+00 0.16973080E+04</pdfrwt>
<pdfrwt beam="2">  1       -2 0.73808480E-01 0.16973080E+04</pdfrwt>
<totfact> 0.19956001E+01</totfact>
</mgrwt>
</event>
<event>
12    2  0.3561489E-008  0.1209611E+04  0.7818608E-02  0.9104485E-01
          2   -1    0    0  501    0  0.00000000000E+00  0.00000000000E+00  0.26723826133E+03  0.26723826133E+03  0.00000000000E+00 0. -1.
         -2   -1    0    0    0  501 -0.00000000000E+00 -0.00000000000E+00 -0.13687784602E+04  0.13687784602E+04  0.00000000000E+00 0.  1.
         23    2    1    2    0    0 -0.11636862193E+03 -0.22036085092E+03 -0.32444718800E+03  0.41963440196E+03  0.93415698450E+02 0.  0.
        254    2    1    2    0    0  0.11636862193E+03  0.22036085092E+03 -0.77709301088E+03  0.12163823196E+04  0.90200434535E+03 0.  0.
         23    2    4    4    0    0  0.22058577173E+03  0.45823933228E+03 -0.78594703639E+03  0.94079204183E+03  0.93464183660E+02 0.  0.
         23    2    4    4    0    0 -0.10421714980E+03 -0.23787848136E+03  0.88540255095E+01  0.27559027775E+03  0.91783556338E+02 0.  0.
          2    1    3    3  502    0 -0.87860751589E+02 -0.86735394133E+02 -0.10998289256E+03  0.16534441908E+03  0.00000000000E+00 0. -1.
         -2    1    3    3    0  502 -0.28507870339E+02 -0.13362545679E+03 -0.21446429544E+03  0.25428998287E+03  0.00000000000E+00 0.  1.
         11    1    5    5    0    0  0.14957871000E+03  0.21647125719E+03 -0.36026761716E+03  0.44612369546E+03  0.00000000000E+00 0. -1.
        -11    1    5    5    0    0  0.71007061721E+02  0.24176807509E+03 -0.42567941923E+03  0.49466834637E+03  0.00000000000E+00 0.  1.
          4    1    6    6  503    0  0.57671174136E+00 -0.54652908647E+01  0.19661347726E+02  0.20414960080E+02  0.00000000000E+00 0.  1.
         -4    1    6    6    0  503 -0.10479386154E+03 -0.23241319049E+03 -0.10807322216E+02  0.25517531767E+03  0.00000000000E+00 0. -1.
<mgrwt>
<rscale>  0 0.12096115E+04</rscale>
<asrwt>0</asrwt>
<pdfrwt beam="1">  1        2 0.41113579E-01 0.12096115E+04</pdfrwt>
<pdfrwt beam="2">  1       -2 0.21058130E+00 0.12096115E+04</pdfrwt>
<totfact> 0.13983067E+01</totfact>
</mgrwt>
</event>
<event>
12    2  0.3561489E-008  0.1090585E+04  0.7818608E-02  0.9214417E-01
          2   -1    0    0  501    0  0.00000000000E+00  0.00000000000E+00  0.15860055300E+04  0.15860055300E+04  0.00000000000E+00 0. -1.
         -2   -1    0    0    0  501 -0.00000000000E+00 -0.00000000000E+00 -0.18747988447E+03  0.18747988447E+03  0.00000000000E+00 0.  1.
         23    2    1    2    0    0  0.77891734348E+02 -0.55396701827E+02  0.41986084147E+03  0.44025503654E+03  0.91681263881E+02 0.  0.
        254    2    1    2    0    0 -0.77891734348E+02  0.55396701827E+02  0.97866480410E+03  0.13332303780E+04  0.90032356690E+03 0.  0.
         23    2    4    4    0    0  0.23251640556E+03  0.13871158251E+03  0.95428132041E+03  0.99601231111E+03  0.89904968863E+02 0.  0.
         23    2    4    4    0    0 -0.31040813991E+03 -0.83314880685E+02  0.24383483695E+02  0.33721806686E+03  0.99130659605E+02 0.  0.
          4    1    3    3  502    0 -0.77015499817E+01 -0.15686252673E+02  0.11002463264E+02  0.20650099101E+02  0.00000000000E+00 0.  1.
         -4    1    3    3    0  502  0.85593284330E+02 -0.39710449154E+02  0.40885837820E+03  0.41960493744E+03  0.00000000000E+00 0. -1.
         11    1    5    5    0    0  0.70204940848E+02  0.93235713488E+02  0.38597752015E+03  0.40323724785E+03  0.00000000000E+00 0.  1.
        -11    1    5    5    0    0  0.16231146472E+03  0.45475869024E+02  0.56830380026E+03  0.59277506326E+03  0.00000000000E+00 0. -1.
          1    1    6    6  503    0 -0.27569910150E+03 -0.68561967787E+02  0.54101897410E+02  0.28920192478E+03  0.00000000000E+00 0. -1.
         -1    1    6    6    0  503 -0.34709038413E+02 -0.14752912899E+02 -0.29718413715E+02  0.48016142081E+02  0.00000000000E+00 0.  1.
<mgrwt>
<rscale>  0 0.10905854E+04</rscale>
<asrwt>0</asrwt>
<pdfrwt beam="1">  1        2 0.24400084E+00 0.10905854E+04</pdfrwt>
<pdfrwt beam="2">  1       -2 0.28843060E-01 0.10905854E+04</pdfrwt>
<totfact> 0.12439892E+02</totfact>
</mgrwt>
</event>
<event>
12    2  0.3561489E-008  0.1315414E+04  0.7818608E-02  0.9017430E-01
          2   -1    0    0  501    0  0.00000000000E+00  0.00000000000E+00  0.19430733068E+04  0.19430733068E+04  0.00000000000E+00 0.  1.
         -2   -1    0    0    0  501 -0.00000000000E+00 -0.00000000000E+00 -0.22262583394E+03  0.22262583394E+03  0.00000000000E+00 0. -1.
         23    2    1    2    0    0  0.62170577941E+02 -0.10016959002E+02  0.10037085717E+04  0.10097196415E+04  0.90207191465E+02 0.  0.
        254    2    1    2    0    0 -0.62170577941E+02  0.10016959002E+02  0.71673890118E+03  0.11559794992E+04  0.90476982152E+03 0.  0.
         23    2    4    4    0    0  0.28348390279E+03 -0.30832856304E+03  0.32559496142E+03  0.53841243519E+03  0.91903457746E+02 0.  0.
         23    2    4    4    0    0 -0.34565448073E+03  0.31834552204E+03  0.39114393977E+03  0.61756706403E+03  0.87032209616E+02 0.  0.
          2    1    3    3  502    0  0.51972949641E+01  0.96896027185E+01  0.12372833571E+02  0.16552561324E+02  0.00000000000E+00 0. -1.
         -2    1    3    3    0  502  0.56973282977E+02 -0.19706561720E+02  0.99133573811E+03  0.99316708021E+03  0.00000000000E+00 0.  1.
         11    1    5    5    0    0  0.19286517581E+03 -0.18233603981E+03  0.25447405689E+03  0.36769614233E+03  0.00000000000E+00 0.  1.
        -11    1    5    5    0    0  0.90618726985E+02 -0.12599252323E+03  0.71120904524E+02  0.17071629286E+03  0.00000000000E+00 0. -1.
          1    1    6    6  503    0 -0.20821430729E+03  0.24674043375E+03  0.25897220156E+03  0.41388481560E+03  0.00000000000E+00 0. -1.
         -1    1    6    6    0  503 -0.13744017344E+03  0.71605088289E+02  0.13217173821E+03  0.20368224843E+03  0.00000000000E+00 0.  1.
<mgrwt>
<rscale>  0 0.13154137E+04</rscale>
<asrwt>0</asrwt>
<pdfrwt beam="1">  1        2 0.29893434E+00 0.13154137E+04</pdfrwt>
<pdfrwt beam="2">  1       -2 0.34250130E-01 0.13154137E+04</pdfrwt>
<totfact> 0.56217561E+01</totfact>
</mgrwt>
</event>
<event>
12    2  0.3561489E-008  0.1172106E+04  0.7818608E-02  0.9137628E-01
          1   -1    0    0  501    0  0.00000000000E+00  0.00000000000E+00  0.34779475528E+03  0.34779475528E+03  0.00000000000E+00 0. -1.
         -1   -1    0    0    0  501 -0.00000000000E+00 -0.00000000000E+00 -0.98753159279E+03  0.98753159279E+03  0.00000000000E+00 0.  1.
         23    2    1    2    0    0  0.38273210667E+02  0.12487020870E+03 -0.34053222465E+03  0.37622389564E+03  0.92329929848E+02 0.  0.
        254    2    1    2    0    0 -0.38273210667E+02 -0.12487020870E+03 -0.29920461286E+03  0.95910245243E+03  0.90182964368E+03 0.  0.
         23    2    4    4    0    0 -0.37943212448E+03  0.87071578556E+02  0.71578501990E+02  0.40499499509E+03  0.85716201630E+02 0.  0.
         23    2    4    4    0    0  0.34115891381E+03 -0.21194178726E+03 -0.37078311485E+03  0.55410745734E+03  0.90808757051E+02 0.  0.
          3    1    3    3  502    0  0.47084884847E+02  0.59080015138E+02 -0.92329630123E+02  0.11929876432E+03  0.00000000000E+00 0. -1.
         -3    1    3    3    0  502 -0.88116741798E+01  0.65790193565E+02 -0.24820259453E+03  0.25692513132E+03  0.00000000000E+00 0.  1.
         11    1    5    5    0    0 -0.27368130534E+03  0.22323620424E+02  0.46967344523E+02  0.27857805436E+03  0.00000000000E+00 0.  1.
        -11    1    5    5    0    0 -0.10575081914E+03  0.64747958133E+02  0.24611157467E+02  0.12641694073E+03  0.00000000000E+00 0. -1.
          1    1    6    6  503    0  0.97673680080E+02 -0.11178643164E+03 -0.12978727905E+03  0.19718288943E+03  0.00000000000E+00 0. -1.
         -1    1    6    6    0  503  0.24348523373E+03 -0.10015535562E+03 -0.24099583580E+03  0.35692456791E+03  0.00000000000E+00 0.  1.
<mgrwt>
<rscale>  0 0.11721063E+04</rscale>
<asrwt>0</asrwt>
<pdfrwt beam="1">  1        1 0.53506887E-01 0.11721063E+04</pdfrwt>
<pdfrwt beam="2">  1       -1 0.15192793E+00 0.11721063E+04</pdfrwt>
<totfact> 0.24139172E+01</totfact>
</mgrwt>
</event>
<event>
12    2  0.3561489E-008  0.2496255E+04  0.7818608E-02  0.8404321E-01
          1   -1    0    0  501    0  0.00000000000E+00  0.00000000000E+00  0.12976379986E+04  0.12976379986E+04  0.00000000000E+00 0. -1.
         -1   -1    0    0    0  501 -0.00000000000E+00 -0.00000000000E+00 -0.12005060262E+04  0.12005060262E+04  0.00000000000E+00 0.  1.
         23    2    1    2    0    0 -0.90407389209E+03  0.17649708423E+03  0.61643908437E+03  0.11120748133E+04  0.90622417537E+02 0.  0.
        254    2    1    2    0    0  0.90407389209E+03 -0.17649708423E+03 -0.51930711188E+03  0.13860692115E+04  0.89610666747E+03 0.  0.
         23    2    4    4    0    0  0.54655245239E+03 -0.28928461821E+03 -0.71749077045E+03  0.95202028121E+03  0.95626547646E+02 0.  0.
         23    2    4    4    0    0  0.35752143970E+03  0.11278753399E+03  0.19818365857E+03  0.43404893028E+03  0.92623451035E+02 0.  0.
          4    1    3    3  502    0 -0.88183361794E+03  0.17821676284E+03  0.58358407451E+03  0.10723628660E+04  0.00000000000E+00 0. -1.
         -4    1    3    3    0  502 -0.22240274154E+02 -0.17196786116E+01  0.32855009864E+02  0.39711947347E+02  0.00000000000E+00 0.  1.
         11    1    5    5    0    0  0.47897752030E+02 -0.40735000700E+02 -0.11723902922E+03  0.13303580309E+03  0.00000000000E+00 0. -1.
        -11    1    5    5    0    0  0.49865470036E+03 -0.24854961751E+03 -0.60025174122E+03  0.81898447812E+03  0.00000000000E+00 0.  1.
          1    1    6    6  503    0  0.29650644238E+03  0.58120641847E+02  0.13676962790E+03  0.33166249486E+03  0.00000000000E+00 0. -1.
         -1    1    6    6    0  503  0.61014997324E+02  0.54666892141E+02  0.61414030665E+02  0.10238643542E+03  0.00000000000E+00 0.  1.
<mgrwt>
<rscale>  0 0.24962550E+04</rscale>
<asrwt>0</asrwt>
<pdfrwt beam="1">  1        1 0.19963661E+00 0.24962550E+04</pdfrwt>
<pdfrwt beam="2">  1       -1 0.18469324E+00 0.24962550E+04</pdfrwt>
<totfact> 0.15546871E+00</totfact>
</mgrwt>
</event>
<event>
12    2  0.3561489E-008  0.1967436E+04  0.7818608E-02  0.8621999E-01
          1   -1    0    0  501    0  0.00000000000E+00  0.00000000000E+00  0.16072453799E+04  0.16072453799E+04  0.00000000000E+00 0. -1.
         -1   -1    0    0    0  501 -0.00000000000E+00 -0.00000000000E+00 -0.60208654380E+03  0.60208654380E+03  0.00000000000E+00 0.  1.
         23    2    1    2    0    0 -0.24398476520E+03  0.54208743991E+03 -0.21974494638E+03  0.63962118503E+03  0.86255786537E+02 0.  0.
        254    2    1    2    0    0  0.24398476520E+03 -0.54208743991E+03  0.12249037825E+04  0.15697107387E+04  0.78116270303E+03 0.  0.
         23    2    4    4    0    0  0.32642404661E+03 -0.23224055272E+03  0.13924515330E+03  0.43367883409E+03  0.90552669134E+02 0.  0.
         23    2    4    4    0    0 -0.82439281408E+02 -0.30984688720E+03  0.10856586292E+04  0.11360319046E+04  0.95459417980E+02 0.  0.
          1    1    3    3  502    0  0.21149790458E+01  0.10242642254E+02 -0.16145238442E+02  0.19236776784E+02  0.00000000000E+00 0. -1.
         -1    1    3    3    0  502 -0.24609974425E+03  0.53184479766E+03 -0.20359970794E+03  0.62038440824E+03  0.00000000000E+00 0.  1.
         11    1    5    5    0    0  0.27216735065E+03 -0.17641080124E+03  0.14569774252E+03  0.35556106329E+03  0.00000000000E+00 0.  1.
        -11    1    5    5    0    0  0.54256695956E+02 -0.55829751477E+02 -0.64525892205E+01  0.78117770793E+02  0.00000000000E+00 0. -1.
          1    1    6    6  503    0 -0.56799228281E+01 -0.79559382928E+01  0.42589355655E+01  0.10662879986E+02  0.00000000000E+00 0. -1.
         -1    1    6    6    0  503 -0.76759358580E+02 -0.30189094890E+03  0.10813996937E+04  0.11253690246E+04  0.00000000000E+00 0.  1.
<mgrwt>
<rscale>  0 0.19674357E+04</rscale>
<asrwt>0</asrwt>
<pdfrwt beam="1">  1        1 0.24726852E+00 0.19674357E+04</pdfrwt>
<pdfrwt beam="2">  1       -1 0.92628700E-01 0.19674357E+04</pdfrwt>
<totfact> 0.58144915E+00</totfact>
</mgrwt>
</event>
<event>
12    2  0.3561489E-008  0.1196909E+04  0.7818608E-02  0.9115566E-01
         -1   -1    0    0    0  501 -0.00000000000E+00  0.00000000000E+00  0.50168722361E+03  0.50168722361E+03  0.00000000000E+00 0.  1.
          1   -1    0    0  501    0  0.00000000000E+00 -0.00000000000E+00 -0.71388667607E+03  0.71388667607E+03  0.00000000000E+00 0. -1.
         23    2    1    2    0    0 -0.22824873379E+03 -0.10162079831E+03 -0.26486290944E+02  0.26756569603E+03  0.92008733052E+02 0.  0.
        254    2    1    2    0    0  0.22824873379E+03  0.10162079831E+03 -0.18571316151E+03  0.94800820365E+03  0.89543615333E+03 0.  0.
         23    2    4    4    0    0 -0.26255051686E+03 -0.12439790183E+03 -0.25264617290E+03  0.39599897754E+03  0.92614737762E+02 0.  0.
         23    2    4    4    0    0  0.49079925066E+03  0.22601870014E+03  0.66933011389E+02  0.55200922610E+03  0.90916447527E+02 0.  0.
          1    1    3    3  502    0 -0.10329674242E+03 -0.81997186145E+02 -0.45809364815E+02  0.13961466053E+03  0.00000000000E+00 0. -1.
         -1    1    3    3    0  502 -0.12495199137E+03 -0.19623612168E+02  0.19323073871E+02  0.12795103550E+03  0.00000000000E+00 0.  1.
         11    1    5    5    0    0 -0.92881253428E+01 -0.22864082115E+02 -0.81728968956E+00  0.24692174586E+02  0.00000000000E+00 0. -1.
        -11    1    5    5    0    0 -0.25326239152E+03 -0.10153381971E+03 -0.25182888321E+03  0.37130680296E+03  0.00000000000E+00 0.  1.
          2    1    6    6  503    0  0.19185627677E+03  0.40484673683E+02  0.21847744583E+02  0.19729461139E+03  0.00000000000E+00 0. -1.
         -2    1    6    6    0  503  0.29894297389E+03  0.18553402646E+03  0.45085266806E+02  0.35471461472E+03  0.00000000000E+00 0.  1.
<mgrwt>
<rscale>  0 0.11969091E+04</rscale>
<asrwt>0</asrwt>
<pdfrwt beam="1">  1        1 0.10982872E+00 0.11969091E+04</pdfrwt>
<pdfrwt beam="2">  1       -1 0.77182650E-01 0.11969091E+04</pdfrwt>
<totfact> 0.44073211E+01</totfact>
</mgrwt>
</event>
<event>
12    2  0.3561489E-008  0.1866867E+04  0.7818608E-02  0.8671527E-01
         -2   -1    0    0    0  501 -0.00000000000E+00  0.00000000000E+00  0.44415391347E+03  0.44415391347E+03  0.00000000000E+00 0.  1.
          2   -1    0    0  501    0  0.00000000000E+00 -0.00000000000E+00 -0.19617039837E+04  0.19617039837E+04  0.00000000000E+00 0. -1.
         23    2    1    2    0    0  0.43172566413E+03  0.15814416333E+03  0.11846881517E+03  0.48345370210E+03  0.91082360758E+02 0.  0.
        254    2    1    2    0    0 -0.43172566413E+03 -0.15814416333E+03 -0.16360188854E+04  0.19224041951E+04  0.89871211763E+03 0.  0.
         23    2    4    4    0    0 -0.46332200965E+03 -0.45205677930E+03 -0.81269814969E+03  0.10429007172E+04  0.90227529962E+02 0.  0.
         23    2    4    4    0    0  0.31596345521E+02  0.29391261597E+03 -0.82332073576E+03  0.87950347788E+03  0.91029548995E+02 0.  0.
          4    1    3    3  502    0  0.37560909023E+03  0.16844610067E+03  0.10501284512E+03  0.42483405600E+03  0.00000000000E+00 0.  1.
         -4    1    3    3    0  502  0.56116573893E+02 -0.10301937339E+02  0.13455970049E+02  0.58619646096E+02  0.00000000000E+00 0. -1.
         11    1    5    5    0    0 -0.92156687098E+02 -0.55596814722E+02 -0.10044860120E+03  0.14722018295E+03  0.00000000000E+00 0.  1.
        -11    1    5    5    0    0 -0.37116532255E+03 -0.39645996458E+03 -0.71224954848E+03  0.89568053428E+03  0.00000000000E+00 0. -1.
          2    1    6    6  503    0 -0.11761837646E+02  0.22609894733E+03 -0.55603938778E+03  0.60036561824E+03  0.00000000000E+00 0. -1.
         -2    1    6    6    0  503  0.43358183167E+02  0.67813668640E+02 -0.26728134799E+03  0.27913785964E+03  0.00000000000E+00 0.  1.
<mgrwt>
<rscale>  0 0.18668674E+04</rscale>
<asrwt>0</asrwt>
<pdfrwt beam="1">  1        2 0.30180061E+00 0.18668674E+04</pdfrwt>
<pdfrwt beam="2">  1       -2 0.68331371E-01 0.18668674E+04</pdfrwt>
<totfact> 0.12909985E+01</totfact>
</mgrwt>
</event>
<event>
12    2  0.3561489E-008  0.1298071E+04  0.7818608E-02  0.9031096E-01
          1   -1    0    0  501    0  0.00000000000E+00  0.00000000000E+00  0.36911490855E+04  0.36911490855E+04  0.00000000000E+00 0. -1.
         -1   -1    0    0    0  501 -0.00000000000E+00 -0.00000000000E+00 -0.11412353362E+03  0.11412353362E+03  0.00000000000E+00 0.  1.
         23    2    1    2    0    0 -0.30600781314E+03  0.52359623176E+02  0.63000820713E+03  0.70866259291E+03  0.94392890091E+02 0.  0.
        254    2    1    2    0    0  0.30600781314E+03 -0.52359623176E+02  0.29470173447E+04  0.30966100262E+04  0.89872137638E+03 0.  0.
         23    2    4    4    0    0  0.34464779145E+03 -0.42593909384E+03  0.15198252889E+04  0.16179713197E+04  0.88068557223E+02 0.  0.
         23    2    4    4    0    0 -0.38639978310E+02  0.37357947066E+03  0.14271920558E+04  0.14786387065E+04  0.91872690796E+02 0.  0.
          1    1    3    3  502    0 -0.31098285203E+03  0.47789820380E+02  0.59559948320E+03  0.67359702017E+03  0.00000000000E+00 0. -1.
         -1    1    3    3    0  502  0.49750388890E+01  0.45698027954E+01  0.34408723929E+02  0.35065572746E+02  0.00000000000E+00 0.  1.
         11    1    5    5    0    0  0.79824753983E+02 -0.56060375420E+02  0.21416818367E+03  0.23533543706E+03  0.00000000000E+00 0.  1.
        -11    1    5    5    0    0  0.26482303746E+03 -0.36987871842E+03  0.13056571052E+04  0.13826358827E+04  0.00000000000E+00 0. -1.
          2    1    6    6  503    0 -0.15918396281E+02  0.11995541825E+03  0.63827949543E+03  0.64964868351E+03  0.00000000000E+00 0.  1.
         -2    1    6    6    0  503 -0.22721582029E+02  0.25362405241E+03  0.78891256039E+03  0.82899002298E+03  0.00000000000E+00 0. -1.
<mgrwt>
<rscale>  0 0.12980708E+04</rscale>
<asrwt>0</asrwt>
<pdfrwt beam="1">  1        1 0.56786900E+00 0.12980708E+04</pdfrwt>
<pdfrwt beam="2">  1       -1 0.17557470E-01 0.12980708E+04</pdfrwt>
<totfact> 0.44762842E+00</totfact>
</mgrwt>
</event>
<event>
12    2  0.3561489E-008  0.1143130E+04  0.7818608E-02  0.9164144E-01
         -1   -1    0    0    0  501 -0.00000000000E+00  0.00000000000E+00  0.46292630275E+03  0.46292630275E+03  0.00000000000E+00 0.  1.
          1   -1    0    0  501    0  0.00000000000E+00 -0.00000000000E+00 -0.70569934675E+03  0.70569934675E+03  0.00000000000E+00 0. -1.
         23    2    1    2    0    0 -0.10387848774E+03 -0.10398209236E+03 -0.15294143495E+03  0.23116957560E+03  0.91898174158E+02 0.  0.
        254    2    1    2    0    0  0.10387848774E+03  0.10398209236E+03 -0.89831609049E+02  0.93745607389E+03  0.92149398085E+03 0.  0.
         23    2    4    4    0    0  0.80975320171E+02  0.11248726861E+03 -0.49423791774E+03  0.52168193272E+03  0.93115688899E+02 0.  0.
         23    2    4    4    0    0  0.22903167573E+02 -0.85051762508E+01  0.40440630869E+03  0.41577414118E+03  0.93417240678E+02 0.  0.
          2    1    3    3  502    0 -0.81283177472E+02 -0.11998965943E+03 -0.12019950703E+03  0.18828806335E+03  0.00000000000E+00 0. -1.
         -2    1    3    3    0  502 -0.22595310272E+02  0.16007567066E+02 -0.32741927914E+02  0.42881512254E+02  0.00000000000E+00 0.  1.
         11    1    5    5    0    0  0.72606332198E+02  0.44736456460E+02 -0.37222819269E+03  0.38187282890E+03  0.00000000000E+00 0.  1.
        -11    1    5    5    0    0  0.83689879734E+01  0.67750812151E+02 -0.12200972504E+03  0.13980910382E+03  0.00000000000E+00 0. -1.
          1    1    6    6  503    0  0.25942502034E+02 -0.11415532262E+02  0.29734874739E+02  0.41079076965E+02  0.00000000000E+00 0.  1.
         -1    1    6    6    0  503 -0.30393344611E+01  0.29103560110E+01  0.37467143395E+03  0.37469506421E+03  0.00000000000E+00 0. -1.
<mgrwt>
<rscale>  0 0.11431304E+04</rscale>
<asrwt>0</asrwt>
<pdfrwt beam="1">  1        1 0.10856913E+00 0.11431304E+04</pdfrwt>
<pdfrwt beam="2">  1       -1 0.71219432E-01 0.11431304E+04</pdfrwt>
<totfact> 0.53256942E+01</totfact>
</mgrwt>
</event>
<event>
12    2  0.3561489E-008  0.1126526E+04  0.7818608E-02  0.9179717E-01
         -2   -1    0    0    0  501 -0.00000000000E+00  0.00000000000E+00  0.82696242028E+03  0.82696242028E+03  0.00000000000E+00 0.  1.
          2   -1    0    0  501    0  0.00000000000E+00 -0.00000000000E+00 -0.38365111532E+03  0.38365111532E+03  0.00000000000E+00 0. -1.
         23    2    1    2    0    0 -0.14793549568E+03  0.21891177157E+02 -0.44618436001E+02  0.18054731983E+03  0.90787638747E+02 0.  0.
        254    2    1    2    0    0  0.14793549568E+03 -0.21891177157E+02  0.48792974097E+03  0.10300662158E+04  0.89476077374E+03 0.  0.
         23    2    4    4    0    0  0.45246219869E+03 -0.75832750371E+02  0.28084966571E+02  0.46844610353E+03  0.90445228143E+02 0.  0.
         23    2    4    4    0    0 -0.30452670301E+03  0.53941573214E+02  0.45984477440E+03  0.56162011223E+03  0.91179645513E+02 0.  0.
          3    1    3    3  502    0 -0.89880328397E+02  0.89666789621E+01 -0.71575290144E+02  0.11524711243E+03  0.00000000000E+00 0. -1.
         -3    1    3    3    0  502 -0.58055167280E+02  0.12924498195E+02  0.26956854143E+02  0.65300207402E+02  0.00000000000E+00 0.  1.
         11    1    5    5    0    0  0.20049262709E+02  0.63697510747E+00  0.21317597724E+02  0.29271464692E+02  0.00000000000E+00 0.  1.
        -11    1    5    5    0    0  0.43241293598E+03 -0.76469725478E+02  0.67673688464E+01  0.43917463884E+03  0.00000000000E+00 0. -1.
          1    1    6    6  503    0 -0.28170070373E+03  0.55362249889E+02  0.36672650178E+03  0.46573446544E+03  0.00000000000E+00 0. -1.
         -1    1    6    6    0  503 -0.22825999289E+02 -0.14206766745E+01  0.93118272615E+02  0.95885646792E+02  0.00000000000E+00 0.  1.
<mgrwt>
<rscale>  0 0.11265257E+04</rscale>
<asrwt>0</asrwt>
<pdfrwt beam="1">  1        2 0.59023249E-01 0.11265257E+04</pdfrwt>
<pdfrwt beam="2">  1       -2 0.12722499E+00 0.11265257E+04</pdfrwt>
<totfact> 0.37874384E+01</totfact>
</mgrwt>
</event>
<event>
12    2  0.3561489E-008  0.1877725E+04  0.7818608E-02  0.8666024E-01
         -1   -1    0    0    0  501 -0.00000000000E+00  0.00000000000E+00  0.37321636422E+03  0.37321636422E+03  0.00000000000E+00 0. -1.
          1   -1    0    0  501    0  0.00000000000E+00 -0.00000000000E+00 -0.23618002093E+04  0.23618002093E+04  0.00000000000E+00 0.  1.
         23    2    1    2    0    0 -0.97261043799E+02 -0.49438775198E+03 -0.13977310672E+02  0.51249471032E+03  0.92609410652E+02 0.  0.
        254    2    1    2    0    0  0.97261043799E+02  0.49438775198E+03 -0.19746065344E+04  0.22225218631E+04  0.88693489427E+03 0.  0.
         23    2    4    4    0    0  0.10677247741E+03  0.17167185845E+03 -0.86462733207E+00  0.22041929415E+03  0.87819865258E+02 0.  0.
         23    2    4    4    0    0 -0.95114336145E+01  0.32271589353E+03 -0.19737419070E+04  0.20021025690E+04  0.92312328175E+02 0.  0.
          2    1    3    3  502    0 -0.92239015375E+02 -0.30261966088E+03  0.22730664865E+02  0.31718035600E+03  0.00000000000E+00 0. -1.
         -2    1    3    3    0  502 -0.50220284240E+01 -0.19176809111E+03 -0.36707975537E+02  0.19531435432E+03  0.00000000000E+00 0.  1.
         11    1    5    5    0    0  0.53741093632E+02  0.15272841591E+03  0.12986550156E+02  0.16242759820E+03  0.00000000000E+00 0.  1.
        -11    1    5    5    0    0  0.53031383781E+02  0.18943442540E+02 -0.13851177488E+02  0.57991695947E+02  0.00000000000E+00 0. -1.
          4    1    6    6  503    0 -0.10439176915E+02  0.21686782636E+03 -0.10428722611E+04  0.10652338632E+04  0.00000000000E+00 0. -1.
         -4    1    6    6    0  503  0.92774330007E+00  0.10584806717E+03 -0.93086964597E+03  0.93686870575E+03  0.00000000000E+00 0.  1.
<mgrwt>
<rscale>  0 0.18777247E+04</rscale>
<asrwt>0</asrwt>
<pdfrwt beam="1">  1        1 0.36335389E+00 0.18777247E+04</pdfrwt>
<pdfrwt beam="2">  1       -1 0.57417901E-01 0.18777247E+04</pdfrwt>
<totfact> 0.48628964E+00</totfact>
</mgrwt>
</event>
<event>
12    2  0.3561489E-008  0.1739986E+04  0.7818608E-02  0.8738882E-01
          1   -1    0    0  501    0  0.00000000000E+00  0.00000000000E+00  0.35682295996E+04  0.35682295996E+04  0.00000000000E+00 0. -1.
         -1   -1    0    0    0  501 -0.00000000000E+00 -0.00000000000E+00 -0.21211865271E+03  0.21211865271E+03  0.00000000000E+00 0.  1.
         23    2    1    2    0    0  0.53067221951E+03  0.28551974536E+03  0.16621701652E+04  0.17703959000E+04  0.91419118837E+02 0.  0.
        254    2    1    2    0    0 -0.53067221951E+03 -0.28551974536E+03  0.16939407817E+04  0.20099523522E+04  0.89852020396E+03 0.  0.
         23    2    4    4    0    0  0.12681951381E+03 -0.11989522374E+03  0.10583786272E+04  0.10761893556E+04  0.86949161552E+02 0.  0.
         23    2    4    4    0    0 -0.65749173332E+03 -0.16562452162E+03  0.63556215444E+03  0.93376299668E+03  0.90814207423E+02 0.  0.
          4    1    3    3  502    0  0.83812470947E+02  0.36443409038E+02  0.17071738195E+03  0.19364161962E+03  0.00000000000E+00 0.  1.
         -4    1    3    3    0  502  0.44685974856E+03  0.24907633632E+03  0.14914527832E+04  0.15767542804E+04  0.00000000000E+00 0. -1.
         11    1    5    5    0    0 -0.11468483638E+02 -0.67158043074E+01  0.13689484975E+03  0.13753846020E+03  0.00000000000E+00 0. -1.
        -11    1    5    5    0    0  0.13828799744E+03 -0.11317941943E+03  0.92148377746E+03  0.93865089535E+03  0.00000000000E+00 0.  1.
          4    1    6    6  503    0 -0.33056846863E+02 -0.19806500298E+02  0.14804567235E+02  0.41282293899E+02  0.00000000000E+00 0. -1.
         -4    1    6    6    0  503 -0.62443488645E+03 -0.14581802132E+03  0.62075758720E+03  0.89248070278E+03  0.00000000000E+00 0.  1.
<mgrwt>
<rscale>  0 0.17399863E+04</rscale>
<asrwt>0</asrwt>
<pdfrwt beam="1">  1        1 0.54895836E+00 0.17399863E+04</pdfrwt>
<pdfrwt beam="2">  1       -1 0.32633642E-01 0.17399863E+04</pdfrwt>
<totfact> 0.18545480E+00</totfact>
</mgrwt>
</event>
<event>
12    2  0.3561489E-008  0.2035645E+04  0.7818608E-02  0.8590134E-01
         -2   -1    0    0    0  501 -0.00000000000E+00  0.00000000000E+00  0.64016096866E+03  0.64016096866E+03  0.00000000000E+00 0.  1.
          2   -1    0    0  501    0  0.00000000000E+00 -0.00000000000E+00 -0.16182846324E+04  0.16182846324E+04  0.00000000000E+00 0. -1.
         23    2    1    2    0    0  0.39872413834E+03 -0.77434468809E+02  0.39405692049E+03  0.57288981201E+03  0.89133858133E+02 0.  0.
        254    2    1    2    0    0 -0.39872413834E+03  0.77434468809E+02 -0.13721805842E+04  0.16855557891E+04  0.89064118862E+03 0.  0.
         23    2    4    4    0    0 -0.12763214617E+02  0.17491741453E+03  0.50764914088E+02  0.20518005784E+03  0.93609711457E+02 0.  0.
         23    2    4    4    0    0 -0.38596092372E+03 -0.97482945725E+02 -0.14229454983E+04  0.14803757312E+04  0.90937643806E+02 0.  0.
          3    1    3    3  502    0  0.46484752315E+02 -0.19959912637E+02  0.16178303291E+02  0.53112783843E+02  0.00000000000E+00 0. -1.
         -3    1    3    3    0  502  0.35223938602E+03 -0.57474556172E+02  0.37787861720E+03  0.51977702816E+03  0.00000000000E+00 0.  1.
         11    1    5    5    0    0 -0.85774560642E+01  0.84399091251E+02  0.72953082070E+02  0.11188803126E+03  0.00000000000E+00 0. -1.
        -11    1    5    5    0    0 -0.41857585530E+01  0.90518323283E+02 -0.22188167982E+02  0.93292026578E+02  0.00000000000E+00 0.  1.
          4    1    6    6  503    0 -0.36809892365E+03 -0.11235823522E+03 -0.13526390988E+04  0.14063263214E+04  0.00000000000E+00 0. -1.
         -4    1    6    6    0  503 -0.17862000064E+02  0.14875289497E+02 -0.70306399502E+02  0.74049409821E+02  0.00000000000E+00 0.  1.
<mgrwt>
<rscale>  0 0.20356450E+04</rscale>
<asrwt>0</asrwt>
<pdfrwt beam="1">  1        2 0.24896687E+00 0.20356450E+04</pdfrwt>
<pdfrwt beam="2">  1       -2 0.98486302E-01 0.20356450E+04</pdfrwt>
<totfact> 0.86414025E+00</totfact>
</mgrwt>
</event>
<event>
12    2  0.3561489E-008  0.1706727E+04  0.7818608E-02  0.8757537E-01
          2   -1    0    0  501    0  0.00000000000E+00  0.00000000000E+00  0.15677704081E+04  0.15677704081E+04  0.00000000000E+00 0. -1.
         -2   -1    0    0    0  501 -0.00000000000E+00 -0.00000000000E+00 -0.46449988300E+03  0.46449988300E+03  0.00000000000E+00 0.  1.
         23    2    1    2    0    0  0.31778654827E+03  0.53238609471E+03  0.26743260202E+03  0.68120225148E+03  0.89961473371E+02 0.  0.
        254    2    1    2    0    0 -0.31778654827E+03 -0.53238609471E+03  0.83583792312E+03  0.13510680397E+04  0.86158956004E+03 0.  0.
         23    2    4    4    0    0 -0.19847074663E+03  0.10443585012E+03 -0.52521088396E+02  0.24819611657E+03  0.92441135297E+02 0.  0.
         23    2    4    4    0    0 -0.11931580164E+03 -0.63682194483E+03  0.88835901151E+03  0.11028719231E+04  0.85827125521E+02 0.  0.
          2    1    3    3  502    0  0.99217798029E+02  0.22372558496E+03  0.69961261767E+02  0.25454250521E+03  0.00000000000E+00 0. -1.
         -2    1    3    3    0  502  0.21856875024E+03  0.30866050975E+03  0.19747134025E+03  0.42665974626E+03  0.00000000000E+00 0.  1.
         11    1    5    5    0    0 -0.18276026426E+03  0.95778134977E+02 -0.74904424103E+02  0.21951181764E+03  0.00000000000E+00 0.  1.
        -11    1    5    5    0    0 -0.15710482375E+02  0.86577151396E+01  0.22383335708E+02  0.28684298933E+02  0.00000000000E+00 0. -1.
          3    1    6    6  503    0 -0.14995056137E+02 -0.22480579419E+03  0.36133930620E+03  0.42582694961E+03  0.00000000000E+00 0. -1.
         -3    1    6    6    0  503 -0.10432074550E+03 -0.41201615064E+03  0.52701970531E+03  0.67704497348E+03  0.00000000000E+00 0.  1.
<mgrwt>
<rscale>  0 0.17067269E+04</rscale>
<asrwt>0</asrwt>
<pdfrwt beam="1">  1        2 0.24119545E+00 0.17067269E+04</pdfrwt>
<pdfrwt beam="2">  1       -2 0.71461521E-01 0.17067269E+04</pdfrwt>
<totfact> 0.19641900E+01</totfact>
</mgrwt>
</event>
<event>
12    2  0.3561489E-008  0.1518090E+04  0.7818608E-02  0.8872512E-01
          1   -1    0    0  501    0  0.00000000000E+00  0.00000000000E+00  0.95361041955E+03  0.95361041955E+03  0.00000000000E+00 0. -1.
         -1   -1    0    0    0  501 -0.00000000000E+00 -0.00000000000E+00 -0.60417658974E+03  0.60417658974E+03  0.00000000000E+00 0.  1.
         23    2    1    2    0    0  0.20193552294E+03 -0.22967268707E+02 -0.39573680509E+03  0.45392045827E+03  0.90170464547E+02 0.  0.
        254    2    1    2    0    0 -0.20193552294E+03  0.22967268707E+02  0.74517063490E+03  0.11038665510E+04  0.78862959398E+03 0.  0.
         23    2    4    4    0    0 -0.24129184874E+03 -0.39376158467E+02  0.88571032860E+03  0.92320543748E+03  0.89739932382E+02 0.  0.
         23    2    4    4    0    0  0.39356325805E+02  0.62343427174E+02 -0.14053969371E+03  0.18066111355E+03  0.86321545100E+02 0.  0.
          4    1    3    3  502    0  0.38098752176E+02 -0.44972812203E+01 -0.19266284640E+02  0.42929362673E+02  0.00000000000E+00 0. -1.
         -4    1    3    3    0  502  0.16383677076E+03 -0.18469987487E+02 -0.37647052045E+03  0.41099109560E+03  0.00000000000E+00 0.  1.
         11    1    5    5    0    0 -0.21771250010E+03 -0.37957426426E+02  0.65475653050E+03  0.69104675179E+03  0.00000000000E+00 0.  1.
        -11    1    5    5    0    0 -0.23579348643E+02 -0.14187320407E+01  0.23095379810E+03  0.23215868569E+03  0.00000000000E+00 0. -1.
          4    1    6    6  503    0 -0.25492571545E+02  0.31143669371E+01 -0.30678228155E+02  0.40009051077E+02  0.00000000000E+00 0. -1.
         -4    1    6    6    0  503  0.64848897350E+02  0.59229060237E+02 -0.10986146555E+03  0.14065206247E+03  0.00000000000E+00 0.  1.
<mgrwt>
<rscale>  0 0.15180897E+04</rscale>
<asrwt>0</asrwt>
<pdfrwt beam="1">  1        1 0.14670929E+00 0.15180897E+04</pdfrwt>
<pdfrwt beam="2">  1       -1 0.92950245E-01 0.15180897E+04</pdfrwt>
<totfact> 0.17887629E+01</totfact>
</mgrwt>
</event>
<event>
12    2  0.3561489E-008  0.1320423E+04  0.7818608E-02  0.9013524E-01
         -2   -1    0    0    0  501 -0.00000000000E+00  0.00000000000E+00  0.27170702343E+03  0.27170702343E+03  0.00000000000E+00 0.  1.
          2   -1    0    0  501    0  0.00000000000E+00 -0.00000000000E+00 -0.16042255670E+04  0.16042255670E+04  0.00000000000E+00 0. -1.
         23    2    1    2    0    0 -0.18276531904E+03  0.17573271021E+03 -0.67333862529E+03  0.72519321148E+03  0.90747685258E+02 0.  0.
        254    2    1    2    0    0  0.18276531904E+03 -0.17573271021E+03 -0.65917991831E+03  0.11507393790E+04  0.90851406503E+03 0.  0.
         23    2    4    4    0    0  0.27863711701E+03  0.20101250313E+03  0.27684717443E+02  0.35669788083E+03  0.91772900260E+02 0.  0.
         23    2    4    4    0    0 -0.95871797970E+02 -0.37674521334E+03 -0.68686463575E+03  0.79404149815E+03  0.87123564623E+02 0.  0.
          2    1    3    3  502    0 -0.10261890914E+03  0.11526565604E+03 -0.28516962473E+03  0.32425071602E+03  0.00000000000E+00 0. -1.
         -2    1    3    3    0  502 -0.80146409897E+02  0.60467054172E+02 -0.38816900057E+03  0.40094249545E+03  0.00000000000E+00 0.  1.
         11    1    5    5    0    0  0.25334130626E+03  0.20930026728E+03  0.21191565715E+02  0.32929849954E+03  0.00000000000E+00 0.  1.
        -11    1    5    5    0    0  0.25295810746E+02 -0.82877641495E+01  0.64931517276E+01  0.27399381294E+02  0.00000000000E+00 0. -1.
          4    1    6    6  503    0 -0.85497144639E+01 -0.11362582997E+02 -0.72809013519E+02  0.74184623470E+02  0.00000000000E+00 0. -1.
         -4    1    6    6    0  503 -0.87322083506E+02 -0.36538263034E+03 -0.61405562223E+03  0.71985687468E+03  0.00000000000E+00 0.  1.
<mgrwt>
<rscale>  0 0.13204232E+04</rscale>
<asrwt>0</asrwt>
<pdfrwt beam="1">  1        2 0.24680394E+00 0.13204232E+04</pdfrwt>
<pdfrwt beam="2">  1       -2 0.41801080E-01 0.13204232E+04</pdfrwt>
<totfact> 0.58857865E+01</totfact>
</mgrwt>
</event>
<event>
12    2  0.3561489E-008  0.1395519E+04  0.7818608E-02  0.8957069E-01
          2   -1    0    0  501    0  0.00000000000E+00  0.00000000000E+00  0.61043414047E+03  0.61043414047E+03  0.00000000000E+00 0.  1.
         -2   -1    0    0    0  501 -0.00000000000E+00 -0.00000000000E+00 -0.79757666982E+03  0.79757666982E+03  0.00000000000E+00 0. -1.
         23    2    1    2    0    0  0.58173569304E+02  0.35148143393E+03  0.13778845580E+03  0.39269799326E+03  0.91119113243E+02 0.  0.
        254    2    1    2    0    0 -0.58173569304E+02 -0.35148143393E+03 -0.32493098514E+03  0.10153128170E+04  0.89350803508E+03 0.  0.
         23    2    4    4    0    0  0.43300271979E+02 -0.24788422044E+02 -0.57331647865E+03  0.58279927656E+03  0.92053422774E+02 0.  0.
         23    2    4    4    0    0 -0.10147384128E+03 -0.32669301189E+03  0.24838549350E+03  0.43251354047E+03  0.91363804779E+02 0.  0.
          1    1    3    3  502    0  0.27248940850E+02  0.67571767858E+02 -0.57136257216E+01  0.73082789409E+02  0.00000000000E+00 0. -1.
         -1    1    3    3    0  502  0.30924628454E+02  0.28390966607E+03  0.14350208152E+03  0.31961520385E+03  0.00000000000E+00 0.  1.
         11    1    5    5    0    0 -0.54583329021E+01 -0.45198444205E+02 -0.36726444059E+03  0.37007548159E+03  0.00000000000E+00 0.  1.
        -11    1    5    5    0    0  0.48758604881E+02  0.20410022161E+02 -0.20605203806E+03  0.21272379496E+03  0.00000000000E+00 0. -1.
          1    1    6    6  503    0  0.38864942135E+01 -0.39422397474E+02  0.20005076839E+01  0.39663992372E+02  0.00000000000E+00 0. -1.
         -1    1    6    6    0  503 -0.10536033550E+03 -0.28727061441E+03  0.24638498582E+03  0.39284954809E+03  0.00000000000E+00 0.  1.
<mgrwt>
<rscale>  0 0.13955186E+04</rscale>
<asrwt>0</asrwt>
<pdfrwt beam="1">  1        2 0.93912946E-01 0.13955186E+04</pdfrwt>
<pdfrwt beam="2">  1       -2 0.12270410E+00 0.13955186E+04</pdfrwt>
<totfact> 0.23745665E+01</totfact>
</mgrwt>
</event>
<event>
12    2  0.3561489E-008  0.1581248E+04  0.7818608E-02  0.8832152E-01
          2   -1    0    0  501    0  0.00000000000E+00  0.00000000000E+00  0.10256529951E+04  0.10256529951E+04  0.00000000000E+00 0.  1.
         -2   -1    0    0    0  501 -0.00000000000E+00 -0.00000000000E+00 -0.60945209810E+03  0.60945209810E+03  0.00000000000E+00 0. -1.
         23    2    1    2    0    0  0.35514137470E+03  0.20939177944E+03  0.47922651152E+03  0.63853372564E+03  0.89983087944E+02 0.  0.
        254    2    1    2    0    0 -0.35514137470E+03 -0.20939177944E+03 -0.63025614521E+02  0.99657136755E+03  0.90510328097E+03 0.  0.
         23    2    4    4    0    0 -0.11368737094E+03  0.29324600894E+03  0.18934793422E+03  0.37825475906E+03  0.91137163040E+02 0.  0.
         23    2    4    4    0    0 -0.24145400376E+03 -0.50263778838E+03 -0.25237354874E+03  0.61831660849E+03  0.87625555547E+02 0.  0.
          2    1    3    3  502    0  0.18279878256E+02  0.34306905770E+02  0.71771000892E+02  0.81622265967E+02  0.00000000000E+00 0. -1.
         -2    1    3    3    0  502  0.33686149644E+03  0.17508487367E+03  0.40745551063E+03  0.55691145967E+03  0.00000000000E+00 0.  1.
         11    1    5    5    0    0 -0.30611973825E+01  0.13124108645E+03  0.75395141983E+02  0.15138699130E+03  0.00000000000E+00 0. -1.
        -11    1    5    5    0    0 -0.11062617356E+03  0.16200492250E+03  0.11395279224E+03  0.22686776776E+03  0.00000000000E+00 0.  1.
          1    1    6    6  503    0 -0.19774852782E+03 -0.31672224671E+03 -0.17237656021E+03  0.41125556570E+03  0.00000000000E+00 0. -1.
         -1    1    6    6    0  503 -0.43705475938E+02 -0.18591554168E+03 -0.79996988538E+02  0.20706104278E+03  0.00000000000E+00 0.  1.
<mgrwt>
<rscale>  0 0.15812481E+04</rscale>
<asrwt>0</asrwt>
<pdfrwt beam="1">  1        2 0.15779277E+00 0.15812481E+04</pdfrwt>
<pdfrwt beam="2">  1       -2 0.93761861E-01 0.15812481E+04</pdfrwt>
<totfact> 0.22387815E+01</totfact>
</mgrwt>
</event>
<event>
12    2  0.3561489E-008  0.1396298E+04  0.7818608E-02  0.8956502E-01
         -1   -1    0    0    0  501 -0.00000000000E+00  0.00000000000E+00  0.11184863628E+04  0.11184863628E+04  0.00000000000E+00 0.  1.
          1   -1    0    0  501    0  0.00000000000E+00 -0.00000000000E+00 -0.43577840914E+03  0.43577840914E+03  0.00000000000E+00 0. -1.
         23    2    1    2    0    0 -0.32424960382E+03 -0.86231142376E+02  0.43618534308E+03  0.55890664598E+03  0.97700408938E+02 0.  0.
        254    2    1    2    0    0  0.32424960382E+03  0.86231142376E+02  0.24652261060E+03  0.99535812598E+03  0.90409666846E+03 0.  0.
         23    2    4    4    0    0  0.18107253488E+03 -0.14870940212E+03  0.53223107333E+03  0.58856570748E+03  0.90763029066E+02 0.  0.
         23    2    4    4    0    0  0.14317706894E+03  0.23494054449E+03 -0.28570846273E+03  0.40679241849E+03  0.90299576693E+02 0.  0.
          4    1    3    3  502    0 -0.60016655034E+02  0.17948761567E+02  0.10826190712E+03  0.12507916475E+03  0.00000000000E+00 0. -1.
         -4    1    3    3    0  502 -0.26423294879E+03 -0.10417990394E+03  0.32792343597E+03  0.43382748123E+03  0.00000000000E+00 0.  1.
         11    1    5    5    0    0  0.85873139163E+02 -0.12062812962E+03  0.36798348317E+03  0.39665751672E+03  0.00000000000E+00 0.  1.
        -11    1    5    5    0    0  0.95199395713E+02 -0.28081272500E+02  0.16424759016E+03  0.19190819076E+03  0.00000000000E+00 0. -1.
          4    1    6    6  503    0  0.21469892133E+02  0.32834192860E+02 -0.41375747144E+01  0.39448194046E+02  0.00000000000E+00 0. -1.
         -4    1    6    6    0  503  0.12170717681E+03  0.20210635163E+03 -0.28157088802E+03  0.36734422445E+03  0.00000000000E+00 0.  1.
<mgrwt>
<rscale>  0 0.13962983E+04</rscale>
<asrwt>0</asrwt>
<pdfrwt beam="1">  1        1 0.67042832E-01 0.13962983E+04</pdfrwt>
<pdfrwt beam="2">  1       -1 0.17207482E+00 0.13962983E+04</pdfrwt>
<totfact> 0.12391356E+01</totfact>
</mgrwt>
</event>
<event>
12    2  0.3561489E-008  0.2258528E+04  0.7818608E-02  0.8494455E-01
         -1   -1    0    0    0  501 -0.00000000000E+00  0.00000000000E+00  0.97837205019E+03  0.97837205019E+03  0.00000000000E+00 0.  1.
          1   -1    0    0  501    0  0.00000000000E+00 -0.00000000000E+00 -0.13034280740E+04  0.13034280740E+04  0.00000000000E+00 0. -1.
         23    2    1    2    0    0  0.35890463381E+03 -0.86741378980E+03  0.56364856641E+01  0.94313842203E+03  0.90879558910E+02 0.  0.
        254    2    1    2    0    0 -0.35890463381E+03  0.86741378980E+03 -0.33069250951E+03  0.13386617022E+04  0.89523091892E+03 0.  0.
         23    2    4    4    0    0 -0.29370298287E+03  0.24953442480E+03  0.26226697892E+03  0.47421068449E+03  0.86965129503E+02 0.  0.
         23    2    4    4    0    0 -0.65201650940E+02  0.61787936500E+03 -0.59295948842E+03  0.86445101771E+03  0.98226483865E+02 0.  0.
          4    1    3    3  502    0  0.34432414725E+03 -0.79362744462E+03 -0.14686711366E+02  0.86522791143E+03  0.00000000000E+00 0.  1.
         -4    1    3    3    0  502  0.14580486560E+02 -0.73786345181E+02  0.20323197030E+02  0.77910510594E+02  0.00000000000E+00 0. -1.
         11    1    5    5    0    0 -0.14491071432E+03  0.95009392861E+02  0.16278557516E+03  0.23774995970E+03  0.00000000000E+00 0.  1.
        -11    1    5    5    0    0 -0.14879226854E+03  0.15452503194E+03  0.99481403754E+02  0.23646072479E+03  0.00000000000E+00 0. -1.
          3    1    6    6  503    0 -0.20137867129E+02  0.12144469019E+03 -0.17486352100E+03  0.21384947380E+03  0.00000000000E+00 0. -1.
         -3    1    6    6    0  503 -0.45063783811E+02  0.49643467480E+03 -0.41809596742E+03  0.65060154391E+03  0.00000000000E+00 0.  1.
<mgrwt>
<rscale>  0 0.22585284E+04</rscale>
<asrwt>0</asrwt>
<pdfrwt beam="1">  1        1 0.20052740E+00 0.22585284E+04</pdfrwt>
<pdfrwt beam="2">  1       -1 0.15051878E+00 0.22585284E+04</pdfrwt>
<totfact> 0.28205469E+00</totfact>
</mgrwt>
</event>
<event>
12    2  0.3561489E-008  0.2663995E+04  0.7818608E-02  0.8346783E-01
          2   -1    0    0  501    0  0.00000000000E+00  0.00000000000E+00  0.12901400724E+04  0.12901400724E+04  0.00000000000E+00 0. -1.
         -2   -1    0    0    0  501 -0.00000000000E+00 -0.00000000000E+00 -0.13752125676E+04  0.13752125676E+04  0.00000000000E+00 0.  1.
         23    2    1    2    0    0  0.44479018350E+03 -0.12109025119E+03 -0.11196742481E+04  0.12151269699E+04  0.10179378588E+03 0.  0.
        254    2    1    2    0    0 -0.44479018350E+03  0.12109025119E+03  0.10346017529E+04  0.14502256701E+04  0.90567795098E+03 0.  0.
         23    2    4    4    0    0 -0.39281630483E+03 -0.35003024608E+03  0.55211965621E+03  0.76808214861E+03  0.91039824987E+02 0.  0.
         23    2    4    4    0    0 -0.51973878662E+02  0.47112049727E+03  0.48248209670E+03  0.68214352151E+03  0.88741215266E+02 0.  0.
          2    1    3    3  502    0  0.27969502912E+03 -0.57922320864E+02 -0.56713801642E+03  0.63500380647E+03  0.00000000000E+00 0. -1.
         -2    1    3    3    0  502  0.16509515438E+03 -0.63167930325E+02 -0.55253623166E+03  0.58012316340E+03  0.00000000000E+00 0.  1.
         11    1    5    5    0    0 -0.25737486657E+03 -0.22656454431E+03  0.41979106044E+03  0.54203122521E+03  0.00000000000E+00 0. -1.
        -11    1    5    5    0    0 -0.13544143826E+03 -0.12346570177E+03  0.13232859577E+03  0.22605092341E+03  0.00000000000E+00 0.  1.
          3    1    6    6  503    0 -0.25167485100E+01  0.11053405878E+03  0.16810746959E+03  0.20120694199E+03  0.00000000000E+00 0.  1.
         -3    1    6    6    0  503 -0.49457130152E+02  0.36058643849E+03  0.31437462711E+03  0.48093657952E+03  0.00000000000E+00 0. -1.
<mgrwt>
<rscale>  0 0.26639946E+04</rscale>
<asrwt>0</asrwt>
<pdfrwt beam="1">  1        2 0.19848309E+00 0.26639946E+04</pdfrwt>
<pdfrwt beam="2">  1       -2 0.21157116E+00 0.26639946E+04</pdfrwt>
<totfact> 0.16490831E+00</totfact>
</mgrwt>
</event>
<event>
12    2  0.3561489E-008  0.2273745E+04  0.7818608E-02  0.8488346E-01
         -1   -1    0    0    0  501 -0.00000000000E+00  0.00000000000E+00  0.38418805272E+03  0.38418805272E+03  0.00000000000E+00 0.  1.
          1   -1    0    0  501    0  0.00000000000E+00 -0.00000000000E+00 -0.33641820422E+04  0.33641820422E+04  0.00000000000E+00 0. -1.
         23    2    1    2    0    0 -0.56368906514E+02 -0.30219799493E+03  0.23637632916E+03  0.39864714884E+03  0.92437538524E+02 0.  0.
        254    2    1    2    0    0  0.56368906514E+02  0.30219799493E+03 -0.32163703186E+04  0.33497229461E+04  0.88380128256E+03 0.  0.
         23    2    4    4    0    0  0.38763169024E+03  0.28798637875E+03 -0.10917563753E+04  0.11973888147E+04  0.92808991845E+02 0.  0.
         23    2    4    4    0    0 -0.33126278373E+03  0.14211616178E+02 -0.21246139434E+04  0.21523341314E+04  0.92848278623E+02 0.  0.
          4    1    3    3  502    0 -0.36426862449E+02 -0.28341612862E+02  0.28390761348E+02  0.54186701851E+02  0.00000000000E+00 0. -1.
         -4    1    3    3    0  502 -0.19942044064E+02 -0.27385638207E+03  0.20798556782E+03  0.34446044699E+03  0.00000000000E+00 0.  1.
         11    1    5    5    0    0  0.26140989777E+02  0.45064686829E+02 -0.17216389045E+03  0.17987379609E+03  0.00000000000E+00 0. -1.
        -11    1    5    5    0    0  0.36149070046E+03  0.24292169192E+03 -0.91959248482E+03  0.10175150186E+04  0.00000000000E+00 0.  1.
          3    1    6    6  503    0 -0.13164979359E+02  0.79334206171E+01 -0.28469512704E+03  0.28510975291E+03  0.00000000000E+00 0. -1.
         -3    1    6    6    0  503 -0.31809780437E+03  0.62781955610E+01 -0.18399188163E+04  0.18672243785E+04  0.00000000000E+00 0.  1.
<mgrwt>
<rscale>  0 0.22737445E+04</rscale>
<asrwt>0</asrwt>
<pdfrwt beam="1">  1        1 0.51756645E+00 0.22737445E+04</pdfrwt>
<pdfrwt beam="2">  1       -1 0.59105856E-01 0.22737445E+04</pdfrwt>
<totfact> 0.83962581E-01</totfact>
</mgrwt>
</event>
<event>
12    2  0.3561489E-008  0.1123764E+04  0.7818608E-02  0.9182334E-01
         -1   -1    0    0    0  501 -0.00000000000E+00  0.00000000000E+00  0.69209610212E+03  0.69209610212E+03  0.00000000000E+00 0.  1.
          1   -1    0    0  501    0  0.00000000000E+00 -0.00000000000E+00 -0.45616708852E+03  0.45616708852E+03  0.00000000000E+00 0. -1.
         23    2    1    2    0    0  0.12010676678E+03 -0.12700689901E+03 -0.12244201109E+03  0.23183010976E+03  0.90535992232E+02 0.  0.
        254    2    1    2    0    0 -0.12010676678E+03  0.12700689901E+03  0.35837102469E+03  0.91643308088E+03  0.82514447982E+03 0.  0.
         23    2    4    4    0    0 -0.31790796885E+03  0.37730145707E+03  0.29542582886E+03  0.58180195099E+03  0.88290563824E+02 0.  0.
         23    2    4    4    0    0  0.19780120207E+03 -0.25029455805E+03  0.62945195825E+02  0.33463112989E+03  0.79014011928E+02 0.  0.
          4    1    3    3  502    0  0.90779789860E+02 -0.12718451468E+03 -0.68884726247E+02  0.17076878090E+03  0.00000000000E+00 0. -1.
         -4    1    3    3    0  502  0.29326976916E+02  0.17761566166E+00 -0.53557284844E+02  0.61061328860E+02  0.00000000000E+00 0.  1.
         11    1    5    5    0    0 -0.72640530143E+02  0.53377857162E+02  0.86487030732E+02  0.12492337147E+03  0.00000000000E+00 0.  1.
        -11    1    5    5    0    0 -0.24526743870E+03  0.32392359990E+03  0.20893879813E+03  0.45687857952E+03  0.00000000000E+00 0. -1.
          1    1    6    6  503    0  0.18940371925E+03 -0.19218273610E+03  0.48323341049E+02  0.27412245113E+03  0.00000000000E+00 0. -1.
         -1    1    6    6    0  503  0.83974828187E+01 -0.58111821952E+02  0.14621854775E+02  0.60508678760E+02  0.00000000000E+00 0.  1.
<mgrwt>
<rscale>  0 0.11237641E+04</rscale>
<asrwt>0</asrwt>
<pdfrwt beam="1">  1        1 0.70179552E-01 0.11237641E+04</pdfrwt>
<pdfrwt beam="2">  1       -1 0.10647632E+00 0.11237641E+04</pdfrwt>
<totfact> 0.41231634E+01</totfact>
</mgrwt>
</event>
<event>
12    2  0.3561489E-008  0.1795735E+04  0.7818608E-02  0.8708571E-01
         -1   -1    0    0    0  501 -0.00000000000E+00  0.00000000000E+00  0.25494164649E+04  0.25494164649E+04  0.00000000000E+00 0.  1.
          1   -1    0    0  501    0  0.00000000000E+00 -0.00000000000E+00 -0.31621583802E+03  0.31621583802E+03  0.00000000000E+00 0. -1.
         23    2    1    2    0    0 -0.15996218259E+03 -0.27105953608E+03 -0.10110855240E+03  0.34366902339E+03  0.93937672466E+02 0.  0.
        254    2    1    2    0    0  0.15996218259E+03  0.27105953608E+03  0.23343091793E+04  0.25219632796E+04  0.90124262375E+03 0.  0.
         23    2    4    4    0    0  0.44034909413E+03 -0.49919435473E+02  0.16478768239E+04  0.17088690163E+04  0.91301771431E+02 0.  0.
         23    2    4    4    0    0 -0.28038691154E+03  0.32097897156E+03  0.68643235543E+03  0.81309426325E+03  0.91041649858E+02 0.  0.
          3    1    3    3  502    0 -0.12720732905E+03 -0.21158326297E+03 -0.11810484102E+03  0.27367487135E+03  0.00000000000E+00 0. -1.
         -3    1    3    3    0  502 -0.32754853542E+02 -0.59476273114E+02  0.16996288617E+02  0.69994152047E+02  0.00000000000E+00 0.  1.
         11    1    5    5    0    0  0.30463064776E+03  0.64993466747E+01  0.11581983810E+04  0.11976082677E+04  0.00000000000E+00 0.  1.
        -11    1    5    5    0    0  0.13571844638E+03 -0.56418782148E+02  0.48967844290E+03  0.51126074864E+03  0.00000000000E+00 0. -1.
          3    1    6    6  503    0 -0.61381746431E+02  0.10544064006E+03  0.26294914530E+03  0.28987531868E+03  0.00000000000E+00 0. -1.
         -3    1    6    6    0  503 -0.21900516510E+03  0.21553833150E+03  0.42348321014E+03  0.52321894457E+03  0.00000000000E+00 0.  1.
<mgrwt>
<rscale>  0 0.17957348E+04</rscale>
<asrwt>0</asrwt>
<pdfrwt beam="1">  1        1 0.48648592E-01 0.17957348E+04</pdfrwt>
<pdfrwt beam="2">  1       -1 0.39221790E+00 0.17957348E+04</pdfrwt>
<totfact> 0.62649691E-01</totfact>
</mgrwt>
</event>
<event>
12    2  0.3561489E-008  0.1636925E+04  0.7818608E-02  0.8798179E-01
          2   -1    0    0  501    0  0.00000000000E+00  0.00000000000E+00  0.96573619384E+03  0.96573619384E+03  0.00000000000E+00 0.  1.
         -2   -1    0    0    0  501 -0.00000000000E+00 -0.00000000000E+00 -0.69364770566E+03  0.69364770566E+03  0.00000000000E+00 0. -1.
         23    2    1    2    0    0 -0.29354920321E+03 -0.20543381876E+03  0.61472401528E+03  0.71540061452E+03  0.74419323408E+02 0.  0.
        254    2    1    2    0    0  0.29354920321E+03  0.20543381876E+03 -0.34263552710E+03  0.94398328498E+03  0.80332505830E+03 0.  0.
         23    2    4    4    0    0 -0.23025693501E+03 -0.46124070893E+02  0.17591366697E+02  0.25555684278E+03  0.99268110058E+02 0.  0.
         23    2    4    4    0    0  0.52380613822E+03  0.25155788965E+03 -0.36022689380E+03  0.68842644220E+03  0.80705074265E+02 0.  0.
          1    1    3    3  502    0 -0.54870959507E+02 -0.63905714489E+02  0.19294646005E+03  0.21053051795E+03  0.00000000000E+00 0. -1.
         -1    1    3    3    0  502 -0.23867824370E+03 -0.14152810427E+03  0.42177755523E+03  0.50487009657E+03  0.00000000000E+00 0.  1.
         11    1    5    5    0    0 -0.14723852767E+02  0.58090274209E+01  0.29561577621E+02  0.33532424775E+02  0.00000000000E+00 0. -1.
        -11    1    5    5    0    0 -0.21553308224E+03 -0.51933098314E+02 -0.11970210924E+02  0.22202441801E+03  0.00000000000E+00 0.  1.
          4    1    6    6  503    0  0.49779115344E+02  0.19401263606E+01 -0.43055019896E+02  0.65844203640E+02  0.00000000000E+00 0. -1.
         -4    1    6    6    0  503  0.47402702288E+03  0.24961776329E+03 -0.31717187390E+03  0.62258223856E+03  0.00000000000E+00 0.  1.
<mgrwt>
<rscale>  0 0.16369248E+04</rscale>
<asrwt>0</asrwt>
<pdfrwt beam="1">  1        2 0.14857480E+00 0.16369248E+04</pdfrwt>
<pdfrwt beam="2">  1       -2 0.10671503E+00 0.16369248E+04</pdfrwt>
<totfact> 0.17925040E+01</totfact>
</mgrwt>
</event>
<event>
12    2  0.3561489E-008  0.1259248E+04  0.7818608E-02  0.9062521E-01
          2   -1    0    0  501    0  0.00000000000E+00  0.00000000000E+00  0.14607289017E+04  0.14607289017E+04  0.00000000000E+00 0. -1.
         -2   -1    0    0    0  501 -0.00000000000E+00 -0.00000000000E+00 -0.27138937878E+03  0.27138937878E+03  0.00000000000E+00 0.  1.
         23    2    1    2    0    0  0.21117257999E+03 -0.10704906694E+03  0.55371092491E+03  0.60873317000E+03  0.88920878394E+02 0.  0.
        254    2    1    2    0    0 -0.21117257999E+03  0.10704906694E+03  0.63562859805E+03  0.11233851105E+04  0.89549820247E+03 0.  0.
         23    2    4    4    0    0 -0.14932941915E+03  0.34992013818E+03 -0.43258680916E+02  0.39374578671E+03  0.91766293115E+02 0.  0.
         23    2    4    4    0    0 -0.61843160845E+02 -0.24287107125E+03  0.67888727897E+03  0.72963932381E+03  0.93137916649E+02 0.  0.
          1    1    3    3  502    0  0.16532525136E+03 -0.66198761268E+02  0.48458073424E+03  0.51626853742E+03  0.00000000000E+00 0. -1.
         -1    1    3    3    0  502  0.45847328626E+02 -0.40850305667E+02  0.69130190675E+02  0.92464632579E+02  0.00000000000E+00 0.  1.
         11    1    5    5    0    0 -0.14210373391E+03  0.29293087046E+03 -0.65575552030E+02  0.33211762838E+03  0.00000000000E+00 0. -1.
        -11    1    5    5    0    0 -0.72256852344E+01  0.56989267726E+02  0.22316871114E+02  0.61628158332E+02  0.00000000000E+00 0.  1.
          2    1    6    6  503    0 -0.58260547637E+02 -0.22934004749E+03  0.53400669115E+03  0.58408415060E+03  0.00000000000E+00 0. -1.
         -2    1    6    6    0  503 -0.35826132083E+01 -0.13531023756E+02  0.14488058782E+03  0.14555517321E+03  0.00000000000E+00 0.  1.
<mgrwt>
<rscale>  0 0.12592479E+04</rscale>
<asrwt>0</asrwt>
<pdfrwt beam="1">  1        2 0.22472752E+00 0.12592479E+04</pdfrwt>
<pdfrwt beam="2">  1       -2 0.41752213E-01 0.12592479E+04</pdfrwt>
<totfact> 0.71351373E+01</totfact>
</mgrwt>
</event>
<event>
12    2  0.3561489E-008  0.1915272E+04  0.7818608E-02  0.8647292E-01
         -2   -1    0    0    0  501 -0.00000000000E+00  0.00000000000E+00  0.92492380311E+03  0.92492380311E+03  0.00000000000E+00 0.  1.
          2   -1    0    0  501    0  0.00000000000E+00 -0.00000000000E+00 -0.99150466757E+03  0.99150466757E+03  0.00000000000E+00 0. -1.
         23    2    1    2    0    0  0.28955990815E+03  0.68110354781E+03 -0.14448171236E+02  0.74650479846E+03  0.96507415392E+02 0.  0.
        254    2    1    2    0    0 -0.28955990815E+03 -0.68110354781E+03 -0.52132693228E+02  0.11699236722E+04  0.90457536883E+03 0.  0.
         23    2    4    4    0    0  0.32047479168E+03 -0.23723807488E+03 -0.21497237198E+02  0.40934321459E+03  0.90076300133E+02 0.  0.
         23    2    4    4    0    0 -0.61003469983E+03 -0.44386547292E+03 -0.30635456030E+02  0.76058045764E+03  0.91570783160E+02 0.  0.
          3    1    3    3  502    0  0.23147024002E+03  0.58411759602E+03 -0.43396671911E+02  0.62980561218E+03  0.00000000000E+00 0. -1.
         -3    1    3    3    0  502  0.58089668131E+02  0.96985951784E+02  0.28948500675E+02  0.11669918628E+03  0.00000000000E+00 0.  1.
         11    1    5    5    0    0  0.21660170753E+03 -0.13184078678E+03 -0.50491193931E+02  0.25854913155E+03  0.00000000000E+00 0. -1.
        -11    1    5    5    0    0  0.10387308415E+03 -0.10539728811E+03  0.28993956733E+02  0.15079408303E+03  0.00000000000E+00 0.  1.
          1    1    6    6  503    0 -0.30185217526E+03 -0.27295123139E+03 -0.31473758582E+02  0.40817607463E+03  0.00000000000E+00 0. -1.
         -1    1    6    6    0  503 -0.30818252457E+03 -0.17091424153E+03  0.83830255127E+00  0.35240438300E+03  0.00000000000E+00 0.  1.
<mgrwt>
<rscale>  0 0.19152715E+04</rscale>
<asrwt>0</asrwt>
<pdfrwt beam="1">  1        2 0.15253918E+00 0.19152715E+04</pdfrwt>
<pdfrwt beam="2">  1       -2 0.14229597E+00 0.19152715E+04</pdfrwt>
<totfact> 0.82133995E+00</totfact>
</mgrwt>
</event>
<event>
12    2  0.3561489E-008  0.1165401E+04  0.7818608E-02  0.9143692E-01
         -2   -1    0    0    0  501 -0.00000000000E+00  0.00000000000E+00  0.35203494538E+03  0.35203494538E+03  0.00000000000E+00 0.  1.
          2   -1    0    0  501    0  0.00000000000E+00 -0.00000000000E+00 -0.96450641741E+03  0.96450641741E+03  0.00000000000E+00 0. -1.
         23    2    1    2    0    0  0.86374347597E+02  0.12766508491E+03  0.48180284189E+02  0.19463304991E+03  0.10863600924E+03 0.  0.
        254    2    1    2    0    0 -0.86374347597E+02 -0.12766508491E+03 -0.66065175621E+03  0.11219083129E+04  0.89356511665E+03 0.  0.
         23    2    4    4    0    0  0.24757559749E+03 -0.95599889832E+02 -0.71569404827E+03  0.76916811480E+03  0.94702706867E+02 0.  0.
         23    2    4    4    0    0 -0.33394994509E+03 -0.32065195075E+02  0.55042292053E+02  0.35274019808E+03  0.94049193871E+02 0.  0.
          4    1    3    3  502    0 -0.21976144203E+02  0.44458427908E+02  0.26754514930E+02  0.56349860649E+02  0.00000000000E+00 0. -1.
         -4    1    3    3    0  502  0.10835049180E+03  0.83206656999E+02  0.21425769259E+02  0.13828318926E+03  0.00000000000E+00 0.  1.
         11    1    5    5    0    0  0.16401975890E+03 -0.44173699266E+02 -0.55948466923E+03  0.58470239620E+03  0.00000000000E+00 0.  1.
        -11    1    5    5    0    0  0.83555838598E+02 -0.51426190567E+02 -0.15620937903E+03  0.18446571860E+03  0.00000000000E+00 0. -1.
          1    1    6    6  503    0 -0.69786425879E+02  0.31728324916E+02  0.12550413009E+02  0.77681044700E+02  0.00000000000E+00 0. -1.
         -1    1    6    6    0  503 -0.26416351921E+03 -0.63793519991E+02  0.42491879044E+02  0.27505915338E+03  0.00000000000E+00 0.  1.
<mgrwt>
<rscale>  0 0.11654012E+04</rscale>
<asrwt>0</asrwt>
<pdfrwt beam="1">  1        2 0.14838560E+00 0.11654012E+04</pdfrwt>
<pdfrwt beam="2">  1       -2 0.54159223E-01 0.11654012E+04</pdfrwt>
<totfact> 0.84318021E+01</totfact>
</mgrwt>
</event>
<event>
12    2  0.3561489E-008  0.2781118E+04  0.7818608E-02  0.8309154E-01
         -2   -1    0    0    0  501 -0.00000000000E+00  0.00000000000E+00  0.12564087636E+04  0.12564087636E+04  0.00000000000E+00 0.  1.
          2   -1    0    0  501    0  0.00000000000E+00 -0.00000000000E+00 -0.15390332382E+04  0.15390332382E+04  0.00000000000E+00 0. -1.
         23    2    1    2    0    0  0.42516966676E+03 -0.96638528431E+03  0.53338210592E+03  0.11864789962E+04  0.92553628998E+02 0.  0.
        254    2    1    2    0    0 -0.42516966676E+03  0.96638528431E+03 -0.81600658052E+03  0.16089630056E+04  0.89901359870E+03 0.  0.
         23    2    4    4    0    0 -0.64341199575E+03  0.94896596450E+03 -0.68860903623E+03  0.13405914472E+04  0.92128309198E+02 0.  0.
         23    2    4    4    0    0  0.21824232899E+03  0.17419319809E+02 -0.12739754429E+03  0.26837155843E+03  0.88656709934E+02 0.  0.
          3    1    3    3  502    0  0.11316021494E+03 -0.18729739401E+03  0.13852397092E+03  0.25898733283E+03  0.00000000000E+00 0. -1.
         -3    1    3    3    0  502  0.31200945182E+03 -0.77908789030E+03  0.39485813499E+03  0.92749166337E+03  0.00000000000E+00 0.  1.
         11    1    5    5    0    0 -0.28649569990E+02  0.66520189066E+02 -0.23844151435E+02  0.76251406358E+02  0.00000000000E+00 0. -1.
        -11    1    5    5    0    0 -0.61476242576E+03  0.88244577544E+03 -0.66476488479E+03  0.12643400408E+04  0.00000000000E+00 0.  1.
          2    1    6    6  503    0  0.99115746355E+02 -0.23392982890E+02 -0.22065289330E+02  0.10420191849E+03  0.00000000000E+00 0. -1.
         -2    1    6    6    0  503  0.11912658264E+03  0.40812302699E+02 -0.10533225496E+03  0.16416963994E+03  0.00000000000E+00 0.  1.
<mgrwt>
<rscale>  0 0.27811184E+04</rscale>
<asrwt>0</asrwt>
<pdfrwt beam="1">  1        2 0.23677434E+00 0.27811184E+04</pdfrwt>
<pdfrwt beam="2">  1       -2 0.19329366E+00 0.27811184E+04</pdfrwt>
<totfact> 0.15494453E+00</totfact>
</mgrwt>
</event>
<event>
12    2  0.3561489E-008  0.1499512E+04  0.7818608E-02  0.8884778E-01
          1   -1    0    0  501    0  0.00000000000E+00  0.00000000000E+00  0.95891198626E+03  0.95891198626E+03  0.00000000000E+00 0. -1.
         -1   -1    0    0    0  501 -0.00000000000E+00 -0.00000000000E+00 -0.58622055701E+03  0.58622055701E+03  0.00000000000E+00 0.  1.
         23    2    1    2    0    0 -0.25255638304E+02  0.41946732145E+03  0.14753122650E+03  0.45508067385E+03  0.93500138447E+02 0.  0.
        254    2    1    2    0    0  0.25255638304E+02 -0.41946732145E+03  0.22516020275E+03  0.10900518694E+04  0.98026796342E+03 0.  0.
         23    2    4    4    0    0  0.33498945262E+03 -0.39886950939E+03  0.44899266933E+03  0.69385127308E+03  0.92305759036E+02 0.  0.
         23    2    4    4    0    0 -0.30973381431E+03 -0.20597812060E+02 -0.22383246658E+03  0.39620059635E+03  0.10254088872E+03 0.  0.
          1    1    3    3  502    0  0.13972305178E+02  0.79387784671E+01  0.11931760610E+02  0.20015404737E+02  0.00000000000E+00 0. -1.
         -1    1    3    3    0  502 -0.39227943483E+02  0.41152854298E+03  0.13559946589E+03  0.43506526911E+03  0.00000000000E+00 0.  1.
         11    1    5    5    0    0  0.22279484481E+03 -0.19405121862E+03  0.24915725149E+03  0.38648771558E+03  0.00000000000E+00 0. -1.
        -11    1    5    5    0    0  0.11219460781E+03 -0.20481829077E+03  0.19983541784E+03  0.30736355750E+03  0.00000000000E+00 0.  1.
          1    1    6    6  503    0 -0.51649803133E+02  0.13036694556E+02 -0.53640242766E+00  0.53272368975E+02  0.00000000000E+00 0. -1.
         -1    1    6    6    0  503 -0.25808401118E+03 -0.33634506616E+02 -0.22329606415E+03  0.34292822737E+03  0.00000000000E+00 0.  1.
<mgrwt>
<rscale>  0 0.14995118E+04</rscale>
<asrwt>0</asrwt>
<pdfrwt beam="1">  1        1 0.14752492E+00 0.14995118E+04</pdfrwt>
<pdfrwt beam="2">  1       -1 0.90187778E-01 0.14995118E+04</pdfrwt>
<totfact> 0.18971159E+01</totfact>
</mgrwt>
</event>
<event>
12    2  0.3561489E-008  0.1302275E+04  0.7818608E-02  0.9027763E-01
         -1   -1    0    0    0  501 -0.00000000000E+00  0.00000000000E+00  0.30960007207E+03  0.30960007207E+03  0.00000000000E+00 0.  1.
          1   -1    0    0  501    0  0.00000000000E+00 -0.00000000000E+00 -0.13694434907E+04  0.13694434907E+04  0.00000000000E+00 0. -1.
         23    2    1    2    0    0 -0.29226427478E+02  0.18974312718E+03 -0.63907317893E+03  0.67347395417E+03  0.91082383251E+02 0.  0.
        254    2    1    2    0    0  0.29226427478E+02 -0.18974312718E+03 -0.42077023967E+03  0.10055696086E+04  0.89289753316E+03 0.  0.
         23    2    4    4    0    0  0.40957054600E+03 -0.23032476358E+03 -0.37817436762E+03  0.61011689187E+03  0.91810895642E+02 0.  0.
         23    2    4    4    0    0 -0.38034411852E+03  0.40581636398E+02 -0.42595872054E+02  0.39545271670E+03  0.90884130217E+02 0.  0.
          4    1    3    3  502    0 -0.55344966079E+02  0.12603837110E+03 -0.34499737296E+03  0.37144572095E+03  0.00000000000E+00 0. -1.
         -4    1    3    3    0  502  0.26118538602E+02  0.63704756083E+02 -0.29407580597E+03  0.30202823322E+03  0.00000000000E+00 0.  1.
         11    1    5    5    0    0  0.18757450506E+03 -0.14555355418E+03 -0.15104297017E+03  0.28139653680E+03  0.00000000000E+00 0. -1.
        -11    1    5    5    0    0  0.22199604093E+03 -0.84771209400E+02 -0.22713139745E+03  0.32872035508E+03  0.00000000000E+00 0.  1.
          1    1    6    6  503    0 -0.65008928360E+02  0.39886742174E+02  0.55087136770E+01  0.76468679171E+02  0.00000000000E+00 0. -1.
         -1    1    6    6    0  503 -0.31533519016E+03  0.69489422429E+00 -0.48104585731E+02  0.31898403753E+03  0.00000000000E+00 0.  1.
<mgrwt>
<rscale>  0 0.13022746E+04</rscale>
<asrwt>0</asrwt>
<pdfrwt beam="1">  1        1 0.21068362E+00 0.13022746E+04</pdfrwt>
<pdfrwt beam="2">  1       -1 0.47630780E-01 0.13022746E+04</pdfrwt>
<totfact> 0.34899713E+01</totfact>
</mgrwt>
</event>
<event>
12    2  0.3561489E-008  0.1695244E+04  0.7818608E-02  0.8764082E-01
         -2   -1    0    0    0  501 -0.00000000000E+00  0.00000000000E+00  0.46649103771E+03  0.46649103771E+03  0.00000000000E+00 0.  1.
          2   -1    0    0  501    0  0.00000000000E+00 -0.00000000000E+00 -0.15401425433E+04  0.15401425433E+04  0.00000000000E+00 0. -1.
         23    2    1    2    0    0 -0.22585353345E+03 -0.22980047468E+03 -0.10002486666E+04  0.10554995039E+04  0.98811594144E+02 0.  0.
        254    2    1    2    0    0  0.22585353345E+03  0.22980047468E+03 -0.73402839064E+02  0.95113407710E+03  0.89188002506E+03 0.  0.
         23    2    4    4    0    0 -0.32522085374E+02 -0.28674641747E+03 -0.18646847054E+03  0.35561230970E+03  0.91697493622E+02 0.  0.
         23    2    4    4    0    0  0.25837561882E+03  0.51654689214E+03  0.11306563148E+03  0.59552176740E+03  0.91014758367E+02 0.  0.
          1    1    3    3  502    0 -0.12061872396E+03 -0.14890602758E+03 -0.72530233352E+03  0.75019021363E+03  0.00000000000E+00 0. -1.
         -1    1    3    3    0  502 -0.10523480948E+03 -0.80894447097E+02 -0.27494633304E+03  0.30530929031E+03  0.00000000000E+00 0.  1.
         11    1    5    5    0    0  0.22806500708E+02 -0.18906374987E+03 -0.12181458212E+03  0.22606200567E+03  0.00000000000E+00 0. -1.
        -11    1    5    5    0    0 -0.55328586082E+02 -0.97682667595E+02 -0.64653888418E+02  0.12955030403E+03  0.00000000000E+00 0.  1.
          3    1    6    6  503    0  0.16093807901E+01  0.57745582925E+02  0.22601595780E+02  0.62032044829E+02  0.00000000000E+00 0. -1.
         -3    1    6    6    0  503  0.25676623803E+03  0.45880130922E+03  0.90464035697E+02  0.53348972257E+03  0.00000000000E+00 0.  1.
<mgrwt>
<rscale>  0 0.16952436E+04</rscale>
<asrwt>0</asrwt>
<pdfrwt beam="1">  1        2 0.23694500E+00 0.16952436E+04</pdfrwt>
<pdfrwt beam="2">  1       -2 0.71767854E-01 0.16952436E+04</pdfrwt>
<totfact> 0.20184865E+01</totfact>
</mgrwt>
</event>
<event>
12    2  0.3561489E-008  0.3298756E+04  0.7818608E-02  0.8163212E-01
          1   -1    0    0  501    0  0.00000000000E+00  0.00000000000E+00  0.26926242393E+04  0.26926242393E+04  0.00000000000E+00 0. -1.
         -1   -1    0    0    0  501 -0.00000000000E+00 -0.00000000000E+00 -0.10103330159E+04  0.10103330159E+04  0.00000000000E+00 0.  1.
         23    2    1    2    0    0  0.12531593216E+04 -0.19488923535E+02 -0.19567012161E+03  0.12716325575E+04  0.89299840446E+02 0.  0.
        254    2    1    2    0    0 -0.12531593216E+04  0.19488923535E+02  0.18779613450E+04  0.24313246977E+04  0.90211577350E+03 0.  0.
         23    2    4    4    0    0 -0.10032042342E+04 -0.28527393411E+03  0.16845734018E+04  0.19834233322E+04  0.91545703243E+02 0.  0.
         23    2    4    4    0    0 -0.24995508731E+03  0.30476285764E+03  0.19338794320E+03  0.44790136541E+03  0.88649825100E+02 0.  0.
          3    1    3    3  502    0  0.89538671322E+02  0.12655876531E+02 -0.32975871368E+02  0.96253586766E+02  0.00000000000E+00 0. -1.
         -3    1    3    3    0  502  0.11636206502E+04 -0.32144800066E+02 -0.16269425025E+03  0.11753789708E+04  0.00000000000E+00 0.  1.
         11    1    5    5    0    0 -0.72150363040E+03 -0.24246622573E+03  0.12616135180E+04  0.14734402018E+04  0.00000000000E+00 0. -1.
        -11    1    5    5    0    0 -0.28170060385E+03 -0.42807708380E+02  0.42295988377E+03  0.50998313049E+03  0.00000000000E+00 0.  1.
          1    1    6    6  503    0 -0.19763352763E+03  0.28676675432E+03  0.17358039147E+03  0.38913279858E+03  0.00000000000E+00 0. -1.
         -1    1    6    6    0  503 -0.52321559674E+02  0.17996103322E+02  0.19807551736E+02  0.58768566830E+02  0.00000000000E+00 0.  1.
<mgrwt>
<rscale>  0 0.32987556E+04</rscale>
<asrwt>0</asrwt>
<pdfrwt beam="1">  1        1 0.41424988E+00 0.32987556E+04</pdfrwt>
<pdfrwt beam="2">  1       -1 0.15543585E+00 0.32987556E+04</pdfrwt>
<totfact> 0.26084020E-01</totfact>
</mgrwt>
</event>
<event>
12    2  0.3561489E-008  0.1814856E+04  0.7818608E-02  0.8698439E-01
         -2   -1    0    0    0  501 -0.00000000000E+00  0.00000000000E+00  0.13596280511E+04  0.13596280511E+04  0.00000000000E+00 0.  1.
          2   -1    0    0  501    0  0.00000000000E+00 -0.00000000000E+00 -0.60562549267E+03  0.60562549267E+03  0.00000000000E+00 0. -1.
         23    2    1    2    0    0 -0.60916692905E+03  0.21839932333E+03  0.56823179322E+02  0.65586419430E+03  0.90257164690E+02 0.  0.
        254    2    1    2    0    0  0.60916692905E+03 -0.21839932333E+03  0.69717937909E+03  0.13093893494E+04  0.89981040776E+03 0.  0.
         23    2    4    4    0    0  0.41203997453E+03  0.27141377243E+03  0.56870961615E+03  0.75820693679E+03  0.89469296516E+02 0.  0.
         23    2    4    4    0    0  0.19712695452E+03 -0.48981309576E+03  0.12846976294E+03  0.55118241265E+03  0.92312875864E+02 0.  0.
          3    1    3    3  502    0 -0.45303331758E+03  0.12309955678E+03  0.24407040377E+02  0.47009402393E+03  0.00000000000E+00 0. -1.
         -3    1    3    3    0  502 -0.15613361147E+03  0.95299766544E+02  0.32416138945E+02  0.18577017037E+03  0.00000000000E+00 0.  1.
         11    1    5    5    0    0  0.30557829360E+02  0.46226167669E+02  0.92371358129E+02  0.10771772053E+03  0.00000000000E+00 0. -1.
        -11    1    5    5    0    0  0.38148214517E+03  0.22518760476E+03  0.47633825802E+03  0.65048921627E+03  0.00000000000E+00 0.  1.
          2    1    6    6  503    0  0.72369644689E+02 -0.19892134281E+03  0.97818856672E+02  0.23318575175E+03  0.00000000000E+00 0. -1.
         -2    1    6    6    0  503  0.12475730983E+03 -0.29089175294E+03  0.30650906264E+02  0.31799666090E+03  0.00000000000E+00 0.  1.
<mgrwt>
<rscale>  0 0.18148558E+04</rscale>
<asrwt>0</asrwt>
<pdfrwt beam="1">  1        2 0.93173153E-01 0.18148558E+04</pdfrwt>
<pdfrwt beam="2">  1       -2 0.20917355E+00 0.18148558E+04</pdfrwt>
<totfact> 0.53561089E+00</totfact>
</mgrwt>
</event>
<event>
12    2  0.3561489E-008  0.2641235E+04  0.7818608E-02  0.8354328E-01
          1   -1    0    0  501    0  0.00000000000E+00  0.00000000000E+00  0.11346870537E+04  0.11346870537E+04  0.00000000000E+00 0. -1.
         -1   -1    0    0    0  501 -0.00000000000E+00 -0.00000000000E+00 -0.15370141358E+04  0.15370141358E+04  0.00000000000E+00 0.  1.
         23    2    1    2    0    0 -0.24789373837E+03 -0.85001933522E+03  0.59510323034E+03  0.10706962105E+04  0.90875434382E+02 0.  0.
        254    2    1    2    0    0  0.24789373837E+03  0.85001933522E+03 -0.99743031251E+03  0.16010049790E+04  0.88564413781E+03 0.  0.
         23    2    4    4    0    0  0.58568435861E+02  0.59626789028E+03 -0.11001369746E+04  0.12564122403E+04  0.96460851622E+02 0.  0.
         23    2    4    4    0    0  0.18932530251E+03  0.25375144494E+03  0.10270666210E+03  0.34459273879E+03  0.89227973239E+02 0.  0.
          4    1    3    3  502    0 -0.25950122813E+01 -0.15507741411E+02  0.28686787746E+02  0.32713237743E+02  0.00000000000E+00 0.  1.
         -4    1    3    3    0  502 -0.24529872609E+03 -0.83451159381E+03  0.56641644259E+03  0.10379829727E+04  0.00000000000E+00 0. -1.
         11    1    5    5    0    0  0.13695020904E+01  0.11701366429E+03 -0.29944110560E+03  0.32149502156E+03  0.00000000000E+00 0. -1.
        -11    1    5    5    0    0  0.57198933770E+02  0.47925422599E+03 -0.80069586901E+03  0.93491721869E+03  0.00000000000E+00 0.  1.
          2    1    6    6  503    0  0.19386315757E+03  0.24274762148E+03  0.82976129942E+02  0.32154994906E+03  0.00000000000E+00 0. -1.
         -2    1    6    6    0  503 -0.45378550686E+01  0.11003823463E+02  0.19730532159E+02  0.23042789734E+02  0.00000000000E+00 0.  1.
<mgrwt>
<rscale>  0 0.26412346E+04</rscale>
<asrwt>0</asrwt>
<pdfrwt beam="1">  1        1 0.17456724E+00 0.26412346E+04</pdfrwt>
<pdfrwt beam="2">  1       -1 0.23646371E+00 0.26412346E+04</pdfrwt>
<totfact> 0.89642745E-01</totfact>
</mgrwt>
</event>
<event>
12    2  0.3561489E-008  0.1474172E+04  0.7818608E-02  0.8901812E-01
         -2   -1    0    0    0  501 -0.00000000000E+00  0.00000000000E+00  0.41580474270E+03  0.41580474270E+03  0.00000000000E+00 0.  1.
          2   -1    0    0  501    0  0.00000000000E+00 -0.00000000000E+00 -0.13066135859E+04  0.13066135859E+04  0.00000000000E+00 0. -1.
         23    2    1    2    0    0 -0.31774737815E+03  0.25549746993E+03 -0.42152496780E+02  0.42090167900E+03  0.95598310305E+02 0.  0.
        254    2    1    2    0    0  0.31774737815E+03 -0.25549746993E+03 -0.84865634644E+03  0.13015166496E+04  0.89860204844E+03 0.  0.
         23    2    4    4    0    0 -0.27437817510E+03 -0.24628378059E+03 -0.41346782758E+03  0.56105610446E+03  0.88821305767E+02 0.  0.
         23    2    4    4    0    0  0.59212555325E+03 -0.92136893383E+01 -0.43518851886E+03  0.74046054517E+03  0.90527394330E+02 0.  0.
          1    1    3    3  502    0 -0.95106160440E+02  0.12717874719E+03  0.82989642523E+01  0.15902354637E+03  0.00000000000E+00 0. -1.
         -1    1    3    3    0  502 -0.22264121771E+03  0.12831872274E+03 -0.50451461032E+02  0.26187813263E+03  0.00000000000E+00 0.  1.
         11    1    5    5    0    0 -0.75511174377E+02 -0.25528643657E+02 -0.11487935868E+03  0.13982459066E+03  0.00000000000E+00 0. -1.
        -11    1    5    5    0    0 -0.19886700072E+03 -0.22075513694E+03 -0.29858846889E+03  0.42123151380E+03  0.00000000000E+00 0.  1.
          1    1    6    6  503    0  0.83562908436E+02  0.30153003267E+01 -0.25883728721E+02  0.87531817729E+02  0.00000000000E+00 0. -1.
         -1    1    6    6    0  503  0.50856264481E+03 -0.12228989665E+02 -0.40930479014E+03  0.65292872744E+03  0.00000000000E+00 0.  1.
<mgrwt>
<rscale>  0 0.14741725E+04</rscale>
<asrwt>0</asrwt>
<pdfrwt beam="1">  1        2 0.20101748E+00 0.14741725E+04</pdfrwt>
<pdfrwt beam="2">  1       -2 0.63969960E-01 0.14741725E+04</pdfrwt>
<totfact> 0.35836762E+01</totfact>
</mgrwt>
</event>
<event>
12    2  0.3561489E-008  0.2097738E+04  0.7818608E-02  0.8562241E-01
          1   -1    0    0  501    0  0.00000000000E+00  0.00000000000E+00  0.10228733420E+04  0.10228733420E+04  0.00000000000E+00 0. -1.
         -1   -1    0    0    0  501 -0.00000000000E+00 -0.00000000000E+00 -0.10755250376E+04  0.10755250376E+04  0.00000000000E+00 0.  1.
         23    2    1    2    0    0 -0.34746108722E+03  0.68309235238E+03  0.18596589687E+03  0.79443219056E+03  0.95889632341E+02 0.  0.
        254    2    1    2    0    0  0.34746108722E+03 -0.68309235238E+03 -0.23861759249E+03  0.13039661890E+04  0.10276405488E+04 0.  0.
         23    2    4    4    0    0  0.50655371914E+03 -0.39086049582E+02 -0.35080017755E+03  0.62501173491E+03  0.97234328093E+02 0.  0.
         23    2    4    4    0    0 -0.15909263192E+03 -0.64400630280E+03  0.11218258506E+03  0.67895445409E+03  0.91321600743E+02 0.  0.
          4    1    3    3  502    0 -0.14369827950E+03  0.32733186288E+03  0.42164305750E+02  0.35996273789E+03  0.00000000000E+00 0. -1.
         -4    1    3    3    0  502 -0.20376280772E+03  0.35576048950E+03  0.14380159112E+03  0.43446945267E+03  0.00000000000E+00 0.  1.
         11    1    5    5    0    0  0.18145634550E+03 -0.47951719314E+02 -0.90053594825E+02  0.20817161826E+03  0.00000000000E+00 0. -1.
        -11    1    5    5    0    0  0.32509737364E+03  0.88656697317E+01 -0.26074658272E+03  0.41684011665E+03  0.00000000000E+00 0.  1.
          3    1    6    6  503    0 -0.14969741787E+03 -0.44127464223E+03  0.92354341502E+02  0.47503889439E+03  0.00000000000E+00 0. -1.
         -3    1    6    6    0  503 -0.93952140526E+01 -0.20273166057E+03  0.19828243557E+02  0.20391555970E+03  0.00000000000E+00 0.  1.
<mgrwt>
<rscale>  0 0.20977377E+04</rscale>
<asrwt>0</asrwt>
<pdfrwt beam="1">  1        1 0.15736513E+00 0.20977377E+04</pdfrwt>
<pdfrwt beam="2">  1       -1 0.16546539E+00 0.20977377E+04</pdfrwt>
<totfact> 0.35515955E+00</totfact>
</mgrwt>
</event>
<event>
12    2  0.3561489E-008  0.2095164E+04  0.7818608E-02  0.8563377E-01
         -2   -1    0    0    0  501 -0.00000000000E+00  0.00000000000E+00  0.98366830133E+03  0.98366830133E+03  0.00000000000E+00 0.  1.
          2   -1    0    0  501    0  0.00000000000E+00 -0.00000000000E+00 -0.11156488625E+04  0.11156488625E+04  0.00000000000E+00 0. -1.
         23    2    1    2    0    0 -0.46707673625E+03 -0.13359932740E+03 -0.75040523074E+03  0.89809082019E+03  0.86311373303E+02 0.  0.
        254    2    1    2    0    0  0.46707673625E+03  0.13359932740E+03  0.61842466958E+03  0.12012263436E+04  0.90801222397E+03 0.  0.
         23    2    4    4    0    0  0.55097782750E+02  0.33177345032E+03 -0.83516220468E+02  0.35869000734E+03  0.92596837310E+02 0.  0.
         23    2    4    4    0    0  0.41197895350E+03 -0.19817412292E+03  0.70194089004E+03  0.84253633630E+03  0.90259757059E+02 0.  0.
          2    1    3    3  502    0 -0.43489552490E+03 -0.98962489035E+02 -0.67241966540E+03  0.80689274271E+03  0.00000000000E+00 0. -1.
         -2    1    3    3    0  502 -0.32181211353E+02 -0.34636838362E+02 -0.77985565336E+02  0.91198077483E+02  0.00000000000E+00 0.  1.
         11    1    5    5    0    0  0.61243633982E+02  0.30318404986E+03 -0.48529457843E+02  0.31309177420E+03  0.00000000000E+00 0.  1.
        -11    1    5    5    0    0 -0.61458512324E+01  0.28589400457E+02 -0.34986762625E+02  0.45598233133E+02  0.00000000000E+00 0. -1.
          3    1    6    6  503    0  0.18776350205E+02  0.69080171321E+01  0.51976999988E+02  0.55694528955E+02  0.00000000000E+00 0. -1.
         -3    1    6    6    0  503  0.39320260330E+03 -0.20508214006E+03  0.64996389005E+03  0.78684180734E+03  0.00000000000E+00 0.  1.
<mgrwt>
<rscale>  0 0.20951644E+04</rscale>
<asrwt>0</asrwt>
<pdfrwt beam="1">  1        2 0.17163829E+00 0.20951644E+04</pdfrwt>
<pdfrwt beam="2">  1       -2 0.15133359E+00 0.20951644E+04</pdfrwt>
<totfact> 0.57488804E+00</totfact>
</mgrwt>
</event>
<event>
12    2  0.3561489E-008  0.2081399E+04  0.7818608E-02  0.8569482E-01
         -2   -1    0    0    0  501 -0.00000000000E+00  0.00000000000E+00  0.38503044919E+03  0.38503044919E+03  0.00000000000E+00 0. -1.
          2   -1    0    0  501    0  0.00000000000E+00 -0.00000000000E+00 -0.28129093136E+04  0.28129093136E+04  0.00000000000E+00 0.  1.
         23    2    1    2    0    0 -0.66573060303E+03  0.34560651079E+03 -0.15921312250E+04  0.17621855690E+04  0.88176220695E+02 0.  0.
        254    2    1    2    0    0  0.66573060303E+03 -0.34560651079E+03 -0.83574763936E+03  0.14357541937E+04  0.89458084711E+03 0.  0.
         23    2    4    4    0    0 -0.20938342696E+03 -0.34306511412E+02 -0.11690541907E+03  0.25770291403E+03  0.87895157314E+02 0.  0.
         23    2    4    4    0    0  0.87511402999E+03 -0.31129999938E+03 -0.71884222029E+03  0.11780512797E+04  0.91314975989E+02 0.  0.
          2    1    3    3  502    0 -0.87535899077E+02  0.78149072494E+02 -0.27933009885E+03  0.30297708706E+03  0.00000000000E+00 0. -1.
         -2    1    3    3    0  502 -0.57819470395E+03  0.26745743830E+03 -0.13128011262E+04  0.14592084820E+04  0.00000000000E+00 0.  1.
         11    1    5    5    0    0 -0.97702693402E+01 -0.27295536620E+02 -0.74130795991E+01  0.29924208118E+02  0.00000000000E+00 0.  1.
        -11    1    5    5    0    0 -0.19961315762E+03 -0.70109747919E+01 -0.10949233947E+03  0.22777870591E+03  0.00000000000E+00 0. -1.
          1    1    6    6  503    0  0.70214331843E+03 -0.28535859856E+03 -0.59875072978E+03  0.96588674585E+03  0.00000000000E+00 0. -1.
         -1    1    6    6    0  503  0.17297071156E+03 -0.25941400818E+02 -0.12009149051E+03  0.21216453385E+03  0.00000000000E+00 0.  1.
<mgrwt>
<rscale>  0 0.20813993E+04</rscale>
<asrwt>0</asrwt>
<pdfrwt beam="1">  1        2 0.43275527E+00 0.20813993E+04</pdfrwt>
<pdfrwt beam="2">  1       -2 0.59235455E-01 0.20813993E+04</pdfrwt>
<totfact> 0.55846241E+00</totfact>
</mgrwt>
</event>
<event>
12    2  0.3561489E-008  0.1900306E+04  0.7818608E-02  0.8654704E-01
         -2   -1    0    0    0  501 -0.00000000000E+00  0.00000000000E+00  0.76194987603E+03  0.76194987603E+03  0.00000000000E+00 0.  1.
          2   -1    0    0  501    0  0.00000000000E+00 -0.00000000000E+00 -0.11848424869E+04  0.11848424869E+04  0.00000000000E+00 0. -1.
         23    2    1    2    0    0  0.29991110964E+03 -0.63285280011E+03 -0.39705377298E+03  0.81034295604E+03  0.92491445426E+02 0.  0.
        254    2    1    2    0    0 -0.29991110964E+03  0.63285280011E+03 -0.25838837874E+02  0.11364494069E+04  0.89465091993E+03 0.  0.
         23    2    4    4    0    0 -0.27675490910E+02  0.55170395970E+03 -0.37784043803E+03  0.67499960864E+03  0.87851483236E+02 0.  0.
         23    2    4    4    0    0 -0.27223561873E+03  0.81148840408E+02  0.35200160015E+03  0.46144979823E+03  0.91287586042E+02 0.  0.
          2    1    3    3  502    0  0.73608232669E+02 -0.10428215901E+03 -0.10587838407E+03  0.16584080565E+03  0.00000000000E+00 0. -1.
         -2    1    3    3    0  502  0.22630287697E+03 -0.52857064110E+03 -0.29117538891E+03  0.64450215040E+03  0.00000000000E+00 0.  1.
         11    1    5    5    0    0  0.20181133187E+02  0.38159083413E+02 -0.36261483389E+02  0.56376315605E+02  0.00000000000E+00 0.  1.
        -11    1    5    5    0    0 -0.47856624098E+02  0.51354487629E+03 -0.34157895464E+03  0.61862329303E+03  0.00000000000E+00 0. -1.
          4    1    6    6  503    0 -0.92452381519E+02  0.42033796632E+02  0.65140606712E+02  0.12065480326E+03  0.00000000000E+00 0.  1.
         -4    1    6    6    0  503 -0.17978323721E+03  0.39115043776E+02  0.28686099344E+03  0.34079499496E+03  0.00000000000E+00 0. -1.
<mgrwt>
<rscale>  0 0.19003059E+04</rscale>
<asrwt>0</asrwt>
<pdfrwt beam="1">  1        2 0.18228346E+00 0.19003059E+04</pdfrwt>
<pdfrwt beam="2">  1       -2 0.11722306E+00 0.19003059E+04</pdfrwt>
<totfact> 0.10193461E+01</totfact>
</mgrwt>
</event>
<event>
12    2  0.3561489E-008  0.1650116E+04  0.7818608E-02  0.8790338E-01
          2   -1    0    0  501    0  0.00000000000E+00  0.00000000000E+00  0.14387232092E+04  0.14387232092E+04  0.00000000000E+00 0. -1.
         -2   -1    0    0    0  501 -0.00000000000E+00 -0.00000000000E+00 -0.47314209209E+03  0.47314209209E+03  0.00000000000E+00 0.  1.
         23    2    1    2    0    0 -0.30013768170E+03  0.27725500209E+03  0.80276310219E+03  0.90553575287E+03  0.92808605903E+02 0.  0.
        254    2    1    2    0    0  0.30013768170E+03 -0.27725500209E+03  0.16281801491E+03  0.10063295484E+04  0.90511683770E+03 0.  0.
         23    2    4    4    0    0 -0.30539662797E+03 -0.18310293462E+03  0.64706171084E+01  0.36723771442E+03  0.89598465176E+02 0.  0.
         23    2    4    4    0    0  0.60553430966E+03 -0.94152067465E+02  0.15634739780E+03  0.63909183400E+03  0.91964403447E+02 0.  0.
          2    1    3    3  502    0 -0.17293912706E+03  0.13006867365E+03  0.33354917581E+03  0.39759383071E+03  0.00000000000E+00 0. -1.
         -2    1    3    3    0  502 -0.12719855464E+03  0.14718632844E+03  0.46921392638E+03  0.50794192216E+03  0.00000000000E+00 0.  1.
         11    1    5    5    0    0 -0.51034957428E+02 -0.75187774090E+02  0.11526388720E+01  0.90879573220E+02  0.00000000000E+00 0.  1.
        -11    1    5    5    0    0 -0.25436167054E+03 -0.10791516053E+03  0.53179782365E+01  0.27635814120E+03  0.00000000000E+00 0. -1.
          4    1    6    6  503    0  0.49387249992E+03 -0.10971029107E+03  0.11352320108E+03  0.51849195879E+03  0.00000000000E+00 0. -1.
         -4    1    6    6    0  503  0.11166180974E+03  0.15558223605E+02  0.42824196721E+02  0.12059987521E+03  0.00000000000E+00 0.  1.
<mgrwt>
<rscale>  0 0.16501158E+04</rscale>
<asrwt>0</asrwt>
<pdfrwt beam="1">  1        2 0.22134203E+00 0.16501158E+04</pdfrwt>
<pdfrwt beam="2">  1       -2 0.72791092E-01 0.16501158E+04</pdfrwt>
<totfact> 0.22409966E+01</totfact>
</mgrwt>
</event>
<event>
12    2  0.3561489E-008  0.1965923E+04  0.7818608E-02  0.8622720E-01
          2   -1    0    0  501    0  0.00000000000E+00  0.00000000000E+00  0.13376541784E+04  0.13376541784E+04  0.00000000000E+00 0. -1.
         -2   -1    0    0    0  501 -0.00000000000E+00 -0.00000000000E+00 -0.72231938275E+03  0.72231938275E+03  0.00000000000E+00 0.  1.
         23    2    1    2    0    0 -0.71393114071E+03 -0.28199603806E+03  0.27971594424E+03  0.82195390901E+03  0.90265053621E+02 0.  0.
        254    2    1    2    0    0  0.71393114071E+03  0.28199603806E+03  0.33561885141E+03  0.12380196521E+04  0.91150052468E+03 0.  0.
         23    2    4    4    0    0  0.36545718811E+03  0.43982349996E+03 -0.16604747689E+03  0.60078605743E+03  0.79802598719E+02 0.  0.
         23    2    4    4    0    0  0.34847395260E+03 -0.15782746189E+03  0.50166632829E+03  0.63723359471E+03  0.89743779222E+02 0.  0.
          4    1    3    3  502    0 -0.13644760875E+03 -0.90297282730E+02  0.44107101598E+02  0.16946086750E+03  0.00000000000E+00 0.  1.
         -4    1    3    3    0  502 -0.57748353196E+03 -0.19169875533E+03  0.23560884265E+03  0.65249304151E+03  0.00000000000E+00 0. -1.
         11    1    5    5    0    0  0.11836558635E+03  0.19869090744E+03 -0.50632185195E+02  0.23675326166E+03  0.00000000000E+00 0.  1.
        -11    1    5    5    0    0  0.24709160176E+03  0.24113259252E+03 -0.11541529169E+03  0.36403279576E+03  0.00000000000E+00 0. -1.
          3    1    6    6  503    0  0.28159966905E+03 -0.12818204459E+03  0.45580054276E+03  0.55089304311E+03  0.00000000000E+00 0. -1.
         -3    1    6    6    0  503  0.66874283556E+02 -0.29645417301E+02  0.45865785535E+02  0.86340551602E+02  0.00000000000E+00 0.  1.
<mgrwt>
<rscale>  0 0.19659232E+04</rscale>
<asrwt>0</asrwt>
<pdfrwt beam="1">  1        2 0.20579295E+00 0.19659232E+04</pdfrwt>
<pdfrwt beam="2">  1       -2 0.11112606E+00 0.19659232E+04</pdfrwt>
<totfact> 0.93879208E+00</totfact>
</mgrwt>
</event>
<event>
12    2  0.3561489E-008  0.1376132E+04  0.7818608E-02  0.8971279E-01
          1   -1    0    0  501    0  0.00000000000E+00  0.00000000000E+00  0.19119714265E+04  0.19119714265E+04  0.00000000000E+00 0. -1.
         -1   -1    0    0    0  501 -0.00000000000E+00 -0.00000000000E+00 -0.24761613557E+03  0.24761613557E+03  0.00000000000E+00 0.  1.
         23    2    1    2    0    0  0.17828609196E+03 -0.18882078148E+02  0.10475784497E+04  0.10685660112E+04  0.11077115454E+03 0.  0.
        254    2    1    2    0    0 -0.17828609196E+03  0.18882078148E+02  0.61677684122E+03  0.10910215508E+04  0.88191376506E+03 0.  0.
         23    2    4    4    0    0 -0.16877677992E+03 -0.30899207774E+03 -0.24997782802E+02  0.36441207540E+03  0.90606655386E+02 0.  0.
         23    2    4    4    0    0 -0.95093120373E+01  0.32787415589E+03  0.64177462402E+03  0.72660947541E+03  0.92167090673E+02 0.  0.
          1    1    3    3  502    0  0.36209980322E+02  0.58569976124E+01  0.53011609556E+03  0.53138361084E+03  0.00000000000E+00 0. -1.
         -1    1    3    3    0  502  0.14207611164E+03 -0.24739075761E+02  0.51746235413E+03  0.53718240040E+03  0.00000000000E+00 0.  1.
         11    1    5    5    0    0 -0.17528310218E+03 -0.29040926820E+03 -0.37211634043E+02  0.34124245731E+03  0.00000000000E+00 0. -1.
        -11    1    5    5    0    0  0.65063222588E+01 -0.18582809546E+02  0.12213851241E+02  0.23169618083E+02  0.00000000000E+00 0.  1.
          1    1    6    6  503    0  0.39795889835E+02  0.16451501995E+03  0.34474309218E+03  0.38405299666E+03  0.00000000000E+00 0. -1.
         -1    1    6    6    0  503 -0.49305201872E+02  0.16335913595E+03  0.29703153185E+03  0.34255647876E+03  0.00000000000E+00 0.  1.
<mgrwt>
<rscale>  0 0.13761322E+04</rscale>
<asrwt>0</asrwt>
<pdfrwt beam="1">  1        1 0.29414944E+00 0.13761322E+04</pdfrwt>
<pdfrwt beam="2">  1       -1 0.38094791E-01 0.13761322E+04</pdfrwt>
<totfact> 0.22257313E+01</totfact>
</mgrwt>
</event>
<event>
12    2  0.3561489E-008  0.1220290E+04  0.7818608E-02  0.9095279E-01
         -1   -1    0    0    0  501 -0.00000000000E+00  0.00000000000E+00  0.13290861109E+04  0.13290861109E+04  0.00000000000E+00 0.  1.
          1   -1    0    0  501    0  0.00000000000E+00 -0.00000000000E+00 -0.28010013390E+03  0.28010013390E+03  0.00000000000E+00 0. -1.
         23    2    1    2    0    0 -0.22097524488E+03 -0.14564934135E+03  0.21553297886E+03  0.35325086808E+03  0.91038021370E+02 0.  0.
        254    2    1    2    0    0  0.22097524488E+03  0.14564934135E+03  0.83345299814E+03  0.12559353767E+04  0.90149097660E+03 0.  0.
         23    2    4    4    0    0  0.24340481504E+03 -0.34770475360E+03  0.43788579413E+03  0.61659472091E+03  0.91107527102E+02 0.  0.
         23    2    4    4    0    0 -0.22429570157E+02  0.49335409495E+03  0.39556720402E+03  0.63934065581E+03  0.91551693900E+02 0.  0.
          3    1    3    3  502    0 -0.14257739197E+03 -0.11403414756E+03  0.94382354054E+02  0.20552403331E+03  0.00000000000E+00 0. -1.
         -3    1    3    3    0  502 -0.78397852907E+02 -0.31615193787E+02  0.12115062480E+03  0.14772683476E+03  0.00000000000E+00 0.  1.
         11    1    5    5    0    0  0.12476374799E+03 -0.15195417152E+03  0.14210968418E+03  0.24259271504E+03  0.00000000000E+00 0. -1.
        -11    1    5    5    0    0  0.11864106704E+03 -0.19575058208E+03  0.29577610995E+03  0.37400200586E+03  0.00000000000E+00 0.  1.
          2    1    6    6  503    0 -0.94613729303E+01  0.30566395721E+03  0.18698786085E+03  0.35844725193E+03  0.00000000000E+00 0.  1.
         -2    1    6    6    0  503 -0.12968197227E+02  0.18769013774E+03  0.20857934317E+03  0.28089340387E+03  0.00000000000E+00 0. -1.
<mgrwt>
<rscale>  0 0.12202905E+04</rscale>
<asrwt>0</asrwt>
<pdfrwt beam="1">  1        1 0.43092329E-01 0.12202905E+04</pdfrwt>
<pdfrwt beam="2">  1       -1 0.20447478E+00 0.12202905E+04</pdfrwt>
<totfact> 0.13292381E+01</totfact>
</mgrwt>
</event>
<event>
12    2  0.3561489E-008  0.2328674E+04  0.7818608E-02  0.8466700E-01
         -1   -1    0    0    0  501 -0.00000000000E+00  0.00000000000E+00  0.75284895365E+03  0.75284895365E+03  0.00000000000E+00 0.  1.
          1   -1    0    0  501    0  0.00000000000E+00 -0.00000000000E+00 -0.18007345661E+04  0.18007345661E+04  0.00000000000E+00 0. -1.
         23    2    1    2    0    0 -0.18324970437E+03  0.32375466185E+03  0.53584313887E+03  0.65898334931E+03  0.93453999187E+02 0.  0.
        254    2    1    2    0    0  0.18324970437E+03 -0.32375466185E+03 -0.15837287513E+04  0.18946001705E+04  0.97103836839E+03 0.  0.
         23    2    4    4    0    0  0.30079635486E+03 -0.42811672529E+03 -0.16221390312E+04  0.17068475151E+04  0.90725000050E+02 0.  0.
         23    2    4    4    0    0 -0.11754665049E+03  0.10436206344E+03  0.38410279896E+02  0.18775265535E+03  0.95221083073E+02 0.  0.
          2    1    3    3  502    0 -0.23449642971E+02  0.16191178643E+02  0.12142194419E+02  0.30975359669E+02  0.00000000000E+00 0. -1.
         -2    1    3    3    0  502 -0.15980006140E+03  0.30756348321E+03  0.52370094446E+03  0.62800798964E+03  0.00000000000E+00 0.  1.
         11    1    5    5    0    0  0.25561922659E+03 -0.32090133175E+03 -0.11647516588E+04  0.12348948459E+04  0.00000000000E+00 0. -1.
        -11    1    5    5    0    0  0.45177128265E+02 -0.10721539354E+03 -0.45738737238E+03  0.47195266918E+03  0.00000000000E+00 0.  1.
          4    1    6    6  503    0 -0.11042506202E+03  0.11639841805E+03  0.15871110354E+02  0.16122710129E+03  0.00000000000E+00 0. -1.
         -4    1    6    6    0  503 -0.71215884728E+01 -0.12036354607E+02  0.22539169542E+02  0.26525554061E+02  0.00000000000E+00 0.  1.
<mgrwt>
<rscale>  0 0.23286744E+04</rscale>
<asrwt>0</asrwt>
<pdfrwt beam="1">  1        1 0.27703608E+00 0.23286744E+04</pdfrwt>
<pdfrwt beam="2">  1       -1 0.11582292E+00 0.23286744E+04</pdfrwt>
<totfact> 0.24754000E+00</totfact>
</mgrwt>
</event>
<event>
12    2  0.3561489E-008  0.1935794E+04  0.7818608E-02  0.8637242E-01
          2   -1    0    0  501    0  0.00000000000E+00  0.00000000000E+00  0.27690776858E+04  0.27690776858E+04  0.00000000000E+00 0. -1.
         -2   -1    0    0    0  501 -0.00000000000E+00 -0.00000000000E+00 -0.33831636430E+03  0.33831636430E+03  0.00000000000E+00 0.  1.
         23    2    1    2    0    0 -0.50950651414E+03 -0.84320829274E+02  0.18505142711E+04  0.19233702037E+04  0.90790873231E+02 0.  0.
        254    2    1    2    0    0  0.50950651414E+03  0.84320829274E+02  0.58024705034E+03  0.11840238464E+04  0.89359886925E+03 0.  0.
         23    2    4    4    0    0 -0.93234698427E+02  0.28137709284E+03  0.42212577083E+03  0.52370880295E+03  0.90636452511E+02 0.  0.
         23    2    4    4    0    0  0.60274121257E+03 -0.19705626357E+03  0.15812127951E+03  0.66031504341E+03  0.94262809080E+02 0.  0.
          4    1    3    3  502    0 -0.28777342620E+03 -0.19659655988E+02  0.11566687219E+04  0.11920916824E+04  0.00000000000E+00 0. -1.
         -4    1    3    3    0  502 -0.22173308795E+03 -0.64661173286E+02  0.69384554921E+03  0.73127852134E+03  0.00000000000E+00 0.  1.
         11    1    5    5    0    0 -0.10153788874E+03  0.19527140368E+03  0.26628268511E+03  0.34546683247E+03  0.00000000000E+00 0. -1.
        -11    1    5    5    0    0  0.83031903155E+01  0.86105689160E+02  0.15584308572E+03  0.17824197049E+03  0.00000000000E+00 0.  1.
          3    1    6    6  503    0  0.44869618217E+02 -0.36269528569E+02  0.32786806536E+02  0.66360651175E+02  0.00000000000E+00 0. -1.
         -3    1    6    6    0  503  0.55787159435E+03 -0.16078673500E+03  0.12533447298E+03  0.59395439224E+03  0.00000000000E+00 0.  1.
<mgrwt>
<rscale>  0 0.19357937E+04</rscale>
<asrwt>0</asrwt>
<pdfrwt beam="1">  1        2 0.42601194E+00 0.19357937E+04</pdfrwt>
<pdfrwt beam="2">  1       -2 0.52048673E-01 0.19357937E+04</pdfrwt>
<totfact> 0.78700373E+00</totfact>
</mgrwt>
</event>
<event>
12    2  0.3561489E-008  0.3460050E+04  0.7818608E-02  0.8123323E-01
         -2   -1    0    0    0  501 -0.00000000000E+00  0.00000000000E+00  0.11403926641E+04  0.11403926641E+04  0.00000000000E+00 0.  1.
          2   -1    0    0  501    0  0.00000000000E+00 -0.00000000000E+00 -0.26245223273E+04  0.26245223273E+04  0.00000000000E+00 0. -1.
         23    2    1    2    0    0  0.15988375908E+03  0.21516638677E+03 -0.24235037640E+04  0.24399663341E+04  0.90586019540E+02 0.  0.
        254    2    1    2    0    0 -0.15988375908E+03 -0.21516638677E+03  0.93937410086E+03  0.13249486573E+04  0.89510102930E+03 0.  0.
         23    2    4    4    0    0 -0.18319838015E+03 -0.54681472287E+03  0.51902715616E+03  0.78175399472E+03  0.95823440737E+02 0.  0.
         23    2    4    4    0    0  0.23314621074E+02  0.33164833610E+03  0.42034694470E+03  0.54319466256E+03  0.88513824471E+02 0.  0.
          3    1    3    3  502    0  0.10439885493E+03  0.17738809989E+03 -0.20649908724E+04  0.20752235933E+04  0.00000000000E+00 0. -1.
         -3    1    3    3    0  502  0.55484904145E+02  0.37778286885E+02 -0.35851289162E+03  0.36474274085E+03  0.00000000000E+00 0.  1.
         11    1    5    5    0    0 -0.17887782539E+03 -0.52498084230E+03  0.51887604755E+03  0.75949622376E+03  0.00000000000E+00 0. -1.
        -11    1    5    5    0    0 -0.43205547648E+01 -0.21833880570E+02  0.15110861706E+00  0.22257770959E+02  0.00000000000E+00 0.  1.
          3    1    6    6  503    0  0.35403557329E+02  0.13667164855E+03  0.12205716429E+03  0.18662931909E+03  0.00000000000E+00 0. -1.
         -3    1    6    6    0  503 -0.12088936255E+02  0.19497668754E+03  0.29828978041E+03  0.35656534347E+03  0.00000000000E+00 0.  1.
<mgrwt>
<rscale>  0 0.34600497E+04</rscale>
<asrwt>0</asrwt>
<pdfrwt beam="1">  1        2 0.40377267E+00 0.34600497E+04</pdfrwt>
<pdfrwt beam="2">  1       -2 0.17544503E+00 0.34600497E+04</pdfrwt>
<totfact> 0.47328435E-01</totfact>
</mgrwt>
</event>
<event>
12    2  0.3561489E-008  0.1642091E+04  0.7818608E-02  0.8795099E-01
         -2   -1    0    0    0  501 -0.00000000000E+00  0.00000000000E+00  0.12905848043E+04  0.12905848043E+04  0.00000000000E+00 0.  1.
          2   -1    0    0  501    0  0.00000000000E+00 -0.00000000000E+00 -0.52233324646E+03  0.52233324646E+03  0.00000000000E+00 0. -1.
         23    2    1    2    0    0 -0.34538357589E+03  0.24929796942E+03 -0.15802598194E+03  0.46354784539E+03  0.92005988641E+02 0.  0.
        254    2    1    2    0    0  0.34538357589E+03 -0.24929796942E+03  0.92627753980E+03  0.13493702054E+04  0.88395168330E+03 0.  0.
         23    2    4    4    0    0  0.52774875602E+03  0.12521831214E+03  0.45156001216E+03  0.71136649324E+03  0.89092468464E+02 0.  0.
         23    2    4    4    0    0 -0.18236518013E+03 -0.37451628155E+03  0.47471752764E+03  0.63800371215E+03  0.90401889382E+02 0.  0.
          3    1    3    3  502    0 -0.29114074233E+03  0.21735017741E+03 -0.97406977662E+02  0.37615442409E+03  0.00000000000E+00 0. -1.
         -3    1    3    3    0  502 -0.54242833559E+02  0.31947792013E+02 -0.60619004280E+02  0.87393421302E+02  0.00000000000E+00 0.  1.
         11    1    5    5    0    0  0.26419243100E+03  0.52423215056E+02  0.28030681167E+03  0.38873865610E+03  0.00000000000E+00 0.  1.
        -11    1    5    5    0    0  0.26355632502E+03  0.72795097080E+02  0.17125320049E+03  0.32262783714E+03  0.00000000000E+00 0. -1.
          3    1    6    6  503    0  0.73755297294E+01 -0.41690248543E+02  0.36193012194E+02  0.55699276423E+02  0.00000000000E+00 0. -1.
         -3    1    6    6    0  503 -0.18974070986E+03 -0.33282603301E+03  0.43852451544E+03  0.58230443573E+03  0.00000000000E+00 0.  1.
<mgrwt>
<rscale>  0 0.16420906E+04</rscale>
<asrwt>0</asrwt>
<pdfrwt beam="1">  1        2 0.80358962E-01 0.16420906E+04</pdfrwt>
<pdfrwt beam="2">  1       -2 0.19855151E+00 0.16420906E+04</pdfrwt>
<totfact> 0.75960925E+00</totfact>
</mgrwt>
</event>
<event>
12    2  0.3561489E-008  0.2833792E+04  0.7818608E-02  0.8292853E-01
          2   -1    0    0  501    0  0.00000000000E+00  0.00000000000E+00  0.13490497709E+04  0.13490497709E+04  0.00000000000E+00 0. -1.
         -2   -1    0    0    0  501 -0.00000000000E+00 -0.00000000000E+00 -0.14881546438E+04  0.14881546438E+04  0.00000000000E+00 0.  1.
         23    2    1    2    0    0  0.90519721644E+03 -0.71900395576E+03 -0.59320950425E+03  0.13025020982E+04  0.90914854936E+02 0.  0.
        254    2    1    2    0    0 -0.90519721644E+03  0.71900395576E+03  0.45410463132E+03  0.15347023164E+04  0.90152731231E+03 0.  0.
         23    2    4    4    0    0 -0.46803034322E+03  0.19541235359E+03 -0.23100702181E+03  0.56387094152E+03  0.85719335352E+02 0.  0.
         23    2    4    4    0    0 -0.43716687323E+03  0.52359160217E+03  0.68511165313E+03  0.97083137492E+03  0.88727337269E+02 0.  0.
          4    1    3    3  502    0  0.27284841103E+02 -0.39453350227E+02 -0.38144258167E+02  0.61286326609E+02  0.00000000000E+00 0. -1.
         -4    1    3    3    0  502  0.87791237534E+03 -0.67955060553E+03 -0.55506524609E+03  0.12412157716E+04  0.00000000000E+00 0.  1.
         11    1    5    5    0    0 -0.41126857820E+03  0.14987923087E+03 -0.17246789329E+03  0.47047933161E+03  0.00000000000E+00 0. -1.
        -11    1    5    5    0    0 -0.56761765022E+02  0.45533122718E+02 -0.58539128516E+02  0.93391609903E+02  0.00000000000E+00 0.  1.
          4    1    6    6  503    0 -0.34962864367E+03  0.40967999823E+03  0.48703283814E+03  0.72613970753E+03  0.00000000000E+00 0. -1.
         -4    1    6    6    0  503 -0.87538229559E+02  0.11391160393E+03  0.19807881499E+03  0.24469166739E+03  0.00000000000E+00 0.  1.
<mgrwt>
<rscale>  0 0.28337923E+04</rscale>
<asrwt>0</asrwt>
<pdfrwt beam="1">  1        2 0.20754612E+00 0.28337923E+04</pdfrwt>
<pdfrwt beam="2">  1       -2 0.22894687E+00 0.28337923E+04</pdfrwt>
<totfact> 0.11662275E+00</totfact>
</mgrwt>
</event>
<event>
12    2  0.3561489E-008  0.1855255E+04  0.7818608E-02  0.8677455E-01
          1   -1    0    0  501    0  0.00000000000E+00  0.00000000000E+00  0.78803353766E+03  0.78803353766E+03  0.00000000000E+00 0. -1.
         -1   -1    0    0    0  501 -0.00000000000E+00 -0.00000000000E+00 -0.10919492135E+04  0.10919492135E+04  0.00000000000E+00 0.  1.
         23    2    1    2    0    0  0.21199396521E+02  0.63466951316E+03 -0.43757002199E+03  0.77667837791E+03  0.92233254412E+02 0.  0.
        254    2    1    2    0    0 -0.21199396521E+02 -0.63466951316E+03  0.13365434615E+03  0.11033043733E+04  0.89227924466E+03 0.  0.
         23    2    4    4    0    0  0.22192981690E+03  0.12484964387E+03 -0.61178344310E+02  0.27715584915E+03  0.90732010343E+02 0.  0.
         23    2    4    4    0    0 -0.24312921342E+03 -0.75951915703E+03  0.19483269046E+03  0.82614852410E+03  0.92630676821E+02 0.  0.
          2    1    3    3  502    0  0.44663554613E+00  0.33229492300E+03 -0.28289688992E+03  0.43640665171E+03  0.00000000000E+00 0. -1.
         -2    1    3    3    0  502  0.20752760975E+02  0.30237459016E+03 -0.15467313207E+03  0.34027172620E+03  0.00000000000E+00 0.  1.
         11    1    5    5    0    0  0.17300233377E+03  0.13405654328E+03 -0.61604891551E+02  0.22736782303E+03  0.00000000000E+00 0. -1.
        -11    1    5    5    0    0  0.48927483130E+02 -0.92068994105E+01  0.42654724145E+00  0.49788026119E+02  0.00000000000E+00 0.  1.
          4    1    6    6  503    0 -0.15651323547E+03 -0.59648253619E+03  0.17139599891E+03  0.64005030841E+03  0.00000000000E+00 0. -1.
         -4    1    6    6    0  503 -0.86615977952E+02 -0.16303662084E+03  0.23436691544E+02  0.18609821569E+03  0.00000000000E+00 0.  1.
<mgrwt>
<rscale>  0 0.18552548E+04</rscale>
<asrwt>0</asrwt>
<pdfrwt beam="1">  1        1 0.12123593E+00 0.18552548E+04</pdfrwt>
<pdfrwt beam="2">  1       -1 0.16799219E+00 0.18552548E+04</pdfrwt>
<totfact> 0.54160376E+00</totfact>
</mgrwt>
</event>
<event>
12    2  0.3561489E-008  0.1201635E+04  0.7818608E-02  0.9111427E-01
         -1   -1    0    0    0  501 -0.00000000000E+00  0.00000000000E+00  0.50937788005E+03  0.50937788005E+03  0.00000000000E+00 0.  1.
          1   -1    0    0  501    0  0.00000000000E+00 -0.00000000000E+00 -0.70867115667E+03  0.70867115667E+03  0.00000000000E+00 0. -1.
         23    2    1    2    0    0 -0.84311063984E+02  0.21622532937E+03  0.13473750868E+03  0.28316264068E+03  0.90361143510E+02 0.  0.
        254    2    1    2    0    0  0.84311063984E+02 -0.21622532937E+03 -0.33403078530E+03  0.93488639605E+03  0.84176853078E+03 0.  0.
         23    2    4    4    0    0 -0.14240200331E+03  0.20388046005E+03  0.97012222026E+02  0.28538297393E+03  0.10092818262E+03 0.  0.
         23    2    4    4    0    0  0.22671306730E+03 -0.42010578942E+03 -0.43104300733E+03  0.64950342212E+03  0.90382144179E+02 0.  0.
          4    1    3    3  502    0 -0.71575363335E+02  0.20859480020E+03  0.93866177185E+02  0.23967828964E+03  0.00000000000E+00 0.  1.
         -4    1    3    3    0  502 -0.12735700650E+02  0.76305291745E+01  0.40871331498E+02  0.43484351035E+02  0.00000000000E+00 0. -1.
         11    1    5    5    0    0  0.15404181473E+02  0.18703830710E+02  0.15638326138E+02  0.28838851130E+02  0.00000000000E+00 0. -1.
        -11    1    5    5    0    0 -0.15780618479E+03  0.18517662934E+03  0.81373895888E+02  0.25654412280E+03  0.00000000000E+00 0.  1.
          2    1    6    6  503    0  0.37759612047E+02 -0.15868995664E+03 -0.13644606006E+03  0.21266362629E+03  0.00000000000E+00 0. -1.
         -2    1    6    6    0  503  0.18895345525E+03 -0.26141583278E+03 -0.29459694727E+03  0.43683979583E+03  0.00000000000E+00 0.  1.
<mgrwt>
<rscale>  0 0.12016346E+04</rscale>
<asrwt>0</asrwt>
<pdfrwt beam="1">  1        1 0.10902633E+00 0.12016346E+04</pdfrwt>
<pdfrwt beam="2">  1       -1 0.78365828E-01 0.12016346E+04</pdfrwt>
<totfact> 0.43145332E+01</totfact>
</mgrwt>
</event>
<event>
12    2  0.3561489E-008  0.1310695E+04  0.7818608E-02  0.9021126E-01
          1   -1    0    0  501    0  0.00000000000E+00  0.00000000000E+00  0.59850469925E+03  0.59850469925E+03  0.00000000000E+00 0. -1.
         -1   -1    0    0    0  501 -0.00000000000E+00 -0.00000000000E+00 -0.71758944255E+03  0.71758944255E+03  0.00000000000E+00 0.  1.
         23    2    1    2    0    0  0.76618195506E+01 -0.13082784715E+03  0.29761848104E+03  0.33794411940E+03  0.91950195830E+02 0.  0.
        254    2    1    2    0    0 -0.76618195506E+01  0.13082784715E+03 -0.41670322433E+03  0.97815002239E+03  0.87519212752E+03 0.  0.
         23    2    4    4    0    0  0.30188587172E+02  0.36782139951E+03 -0.56538398174E+03  0.68122921175E+03  0.90610481703E+02 0.  0.
         23    2    4    4    0    0 -0.37850406722E+02 -0.23699355236E+03  0.14868075740E+03  0.29692081065E+03  0.91964139878E+02 0.  0.
          1    1    3    3  502    0  0.41652479537E+02 -0.33562561930E+02  0.13751301154E+03  0.14755067929E+03  0.00000000000E+00 0. -1.
         -1    1    3    3    0  502 -0.33990659987E+02 -0.97265285223E+02  0.16010546950E+03  0.19039344011E+03  0.00000000000E+00 0.  1.
         11    1    5    5    0    0 -0.26834637379E+02  0.62600619447E+02 -0.12560080920E+03  0.14287931477E+03  0.00000000000E+00 0. -1.
        -11    1    5    5    0    0  0.57023224551E+02  0.30522078007E+03 -0.43978317254E+03  0.53834989697E+03  0.00000000000E+00 0.  1.
          4    1    6    6  503    0  0.10588738734E+02 -0.79680636556E+02  0.93531914641E+02  0.12332617032E+03  0.00000000000E+00 0. -1.
         -4    1    6    6    0  503 -0.48439145456E+02 -0.15731291580E+03  0.55148842763E+02  0.17359464032E+03  0.00000000000E+00 0.  1.
<mgrwt>
<rscale>  0 0.13106955E+04</rscale>
<asrwt>0</asrwt>
<pdfrwt beam="1">  1        1 0.92077646E-01 0.13106955E+04</pdfrwt>
<pdfrwt beam="2">  1       -1 0.11039838E+00 0.13106955E+04</pdfrwt>
<totfact> 0.25545717E+01</totfact>
</mgrwt>
</event>
<event>
12    2  0.3561489E-008  0.2570819E+04  0.7818608E-02  0.8378181E-01
          1   -1    0    0  501    0  0.00000000000E+00  0.00000000000E+00  0.14198641403E+04  0.14198641403E+04  0.00000000000E+00 0. -1.
         -1   -1    0    0    0  501 -0.00000000000E+00 -0.00000000000E+00 -0.11636875228E+04  0.11636875228E+04  0.00000000000E+00 0.  1.
         23    2    1    2    0    0 -0.29566934663E+03  0.80505652847E+03 -0.62409676664E+03  0.10647217814E+04  0.92732523987E+02 0.  0.
        254    2    1    2    0    0  0.29566934663E+03 -0.80505652847E+03  0.88027338414E+03  0.15188298818E+04  0.89242736531E+03 0.  0.
         23    2    4    4    0    0  0.45323185139E+03 -0.83179029054E+03  0.92818500537E+03  0.13294798330E+04  0.93247109962E+02 0.  0.
         23    2    4    4    0    0 -0.15756250476E+03  0.26733762071E+02 -0.47911621229E+02  0.18935004880E+03  0.89539268432E+02 0.  0.
          4    1    3    3  502    0 -0.60354077233E+02  0.11639805916E+03 -0.61277061165E+02  0.14472733343E+03  0.00000000000E+00 0. -1.
         -4    1    3    3    0  502 -0.23531526940E+03  0.68865846931E+03 -0.56281970548E+03  0.91999444794E+03  0.00000000000E+00 0.  1.
         11    1    5    5    0    0  0.16896867974E+02 -0.34102915802E+02  0.67511920238E+02  0.77500789594E+02  0.00000000000E+00 0.  1.
        -11    1    5    5    0    0  0.43633498342E+03 -0.79768737474E+03  0.86067308513E+03  0.12519790434E+04  0.00000000000E+00 0. -1.
          4    1    6    6  503    0 -0.12161694576E+03  0.52257097603E+02 -0.57361745381E+02  0.14426314699E+03  0.00000000000E+00 0. -1.
         -4    1    6    6    0  503 -0.35945559003E+02 -0.25523335533E+02  0.94501241518E+01  0.45086901815E+02  0.00000000000E+00 0.  1.
<mgrwt>
<rscale>  0 0.25708195E+04</rscale>
<asrwt>0</asrwt>
<pdfrwt beam="1">  1        1 0.21844064E+00 0.25708195E+04</pdfrwt>
<pdfrwt beam="2">  1       -1 0.17902885E+00 0.25708195E+04</pdfrwt>
<totfact> 0.13894163E+00</totfact>
</mgrwt>
</event>
<event>
12    2  0.3561489E-008  0.1509327E+04  0.7818608E-02  0.8878274E-01
          1   -1    0    0  501    0  0.00000000000E+00  0.00000000000E+00  0.35048313673E+04  0.35048313673E+04  0.00000000000E+00 0. -1.
         -1   -1    0    0    0  501 -0.00000000000E+00 -0.00000000000E+00 -0.16249479507E+03  0.16249479507E+03  0.00000000000E+00 0.  1.
         23    2    1    2    0    0  0.45879406747E+03  0.45171396827E+02  0.13742955437E+04  0.14524627972E+04  0.91801330596E+02 0.  0.
        254    2    1    2    0    0 -0.45879406747E+03 -0.45171396827E+02  0.19680410285E+04  0.22148633652E+04  0.90548428205E+03 0.  0.
         23    2    4    4    0    0 -0.51329031813E+02 -0.12544307303E+03  0.17092399280E+04  0.17169753772E+04  0.90181374345E+02 0.  0.
         23    2    4    4    0    0 -0.40746503566E+03  0.80271676201E+02  0.25880110049E+03  0.49788798798E+03  0.91886569598E+02 0.  0.
          3    1    3    3  502    0  0.25784878496E+02  0.98741401726E+00  0.16954025738E+03  0.17149266403E+03  0.00000000000E+00 0. -1.
         -3    1    3    3    0  502  0.43300918898E+03  0.44183982810E+02  0.12047552863E+04  0.12809701331E+04  0.00000000000E+00 0.  1.
         11    1    5    5    0    0 -0.46839324030E+02 -0.97961002593E+02  0.80304827665E+03  0.81035598038E+03  0.00000000000E+00 0. -1.
        -11    1    5    5    0    0 -0.44897077822E+01 -0.27482070435E+02  0.90619165136E+03  0.90661939681E+03  0.00000000000E+00 0.  1.
          1    1    6    6  503    0 -0.44984451990E+02 -0.16905890243E+02  0.14901016189E+02  0.50313520342E+02  0.00000000000E+00 0. -1.
         -1    1    6    6    0  503 -0.36248058367E+03  0.97177566444E+02  0.24390008430E+03  0.44757446764E+03  0.00000000000E+00 0.  1.
<mgrwt>
<rscale>  0 0.15093268E+04</rscale>
<asrwt>0</asrwt>
<pdfrwt beam="1">  1        1 0.53920477E+00 0.15093268E+04</pdfrwt>
<pdfrwt beam="2">  1       -1 0.24999202E-01 0.15093268E+04</pdfrwt>
<totfact> 0.33931357E+00</totfact>
</mgrwt>
</event>
<event>
12    2  0.3561489E-008  0.1272276E+04  0.7818608E-02  0.9051844E-01
         -1   -1    0    0    0  501 -0.00000000000E+00  0.00000000000E+00  0.51296226344E+03  0.51296226344E+03  0.00000000000E+00 0.  1.
          1   -1    0    0  501    0  0.00000000000E+00 -0.00000000000E+00 -0.78889185937E+03  0.78889185937E+03  0.00000000000E+00 0. -1.
         23    2    1    2    0    0  0.22283914906E+02 -0.29485554178E+03 -0.95305647606E+02  0.32284481112E+03  0.87802290505E+02 0.  0.
        254    2    1    2    0    0 -0.22283914906E+02  0.29485554178E+03 -0.18062394833E+03  0.97900931169E+03  0.91564068186E+03 0.  0.
         23    2    4    4    0    0 -0.17102704068E+03 -0.14847507592E+03  0.24091459807E+03  0.34285383601E+03  0.90630086010E+02 0.  0.
         23    2    4    4    0    0  0.14874312577E+03  0.44333061770E+03 -0.42153854640E+03  0.63615547568E+03  0.91282468608E+02 0.  0.
          3    1    3    3  502    0  0.53549588942E+02 -0.23388606790E+03 -0.74060404276E+02  0.25110793439E+03  0.00000000000E+00 0. -1.
         -3    1    3    3    0  502 -0.31265674036E+02 -0.60969473885E+02 -0.21245243330E+02  0.71736876729E+02  0.00000000000E+00 0.  1.
         11    1    5    5    0    0 -0.55657112879E+01 -0.17954024027E+02 -0.45426704464E+01  0.19338044774E+02  0.00000000000E+00 0.  1.
        -11    1    5    5    0    0 -0.16546132939E+03 -0.13052105189E+03  0.24545726852E+03  0.32351579124E+03  0.00000000000E+00 0. -1.
          4    1    6    6  503    0  0.97718790990E+02  0.33681533774E+03 -0.26252337942E+03  0.43807768557E+03  0.00000000000E+00 0. -1.
         -4    1    6    6    0  503  0.51024334782E+02  0.10651527997E+03 -0.15901516698E+03  0.19807779011E+03  0.00000000000E+00 0.  1.
<mgrwt>
<rscale>  0 0.12722763E+04</rscale>
<asrwt>0</asrwt>
<pdfrwt beam="1">  1        1 0.12136798E+00 0.12722763E+04</pdfrwt>
<pdfrwt beam="2">  1       -1 0.78917272E-01 0.12722763E+04</pdfrwt>
<totfact> 0.35762405E+01</totfact>
</mgrwt>
</event>
<event>
12    2  0.3561489E-008  0.2876043E+04  0.7818608E-02  0.8280041E-01
         -1   -1    0    0    0  501 -0.00000000000E+00  0.00000000000E+00  0.12215184756E+04  0.12215184756E+04  0.00000000000E+00 0.  1.
          1   -1    0    0  501    0  0.00000000000E+00 -0.00000000000E+00 -0.16928973200E+04  0.16928973200E+04  0.00000000000E+00 0. -1.
         23    2    1    2    0    0 -0.11986884167E+04 -0.36506454879E+03 -0.33831735298E+03  0.13011391615E+04  0.91533824572E+02 0.  0.
        254    2    1    2    0    0  0.11986884167E+04  0.36506454879E+03 -0.13306149140E+03  0.16132766342E+04  0.10073877569E+04 0.  0.
         23    2    4    4    0    0  0.38386507178E+03 -0.21775598766E+02 -0.49832745222E+03  0.63601176642E+03  0.91401024972E+02 0.  0.
         23    2    4    4    0    0  0.81482334492E+03  0.38684014756E+03  0.36526596081E+03  0.97726486773E+03  0.89694015409E+02 0.  0.
          4    1    3    3  502    0 -0.88404799998E+03 -0.30978153357E+03 -0.24286443290E+03  0.96772340965E+03  0.00000000000E+00 0. -1.
         -4    1    3    3    0  502 -0.31464041671E+03 -0.55283015222E+02 -0.95452920077E+02  0.33341575180E+03  0.00000000000E+00 0.  1.
         11    1    5    5    0    0  0.22018860263E+02 -0.22051646812E+02 -0.60127691707E+02  0.67723294695E+02  0.00000000000E+00 0. -1.
        -11    1    5    5    0    0  0.36184621151E+03  0.27604804575E+00 -0.43819976051E+03  0.56828847173E+03  0.00000000000E+00 0.  1.
          4    1    6    6  503    0  0.77399254160E+03  0.38755228480E+03  0.34852905206E+03  0.93313114193E+03  0.00000000000E+00 0.  1.
         -4    1    6    6    0  503  0.40830803318E+02 -0.71213724773E+00  0.16736908755E+02  0.44133725808E+02  0.00000000000E+00 0. -1.
<mgrwt>
<rscale>  0 0.28760427E+04</rscale>
<asrwt>0</asrwt>
<pdfrwt beam="1">  1        1 0.26044574E+00 0.28760427E+04</pdfrwt>
<pdfrwt beam="2">  1       -1 0.18792592E+00 0.28760427E+04</pdfrwt>
<totfact> 0.75757078E-01</totfact>
</mgrwt>
</event>
<event>
12    2  0.3561489E-008  0.1816009E+04  0.7818608E-02  0.8697832E-01
          2   -1    0    0  501    0  0.00000000000E+00  0.00000000000E+00  0.10816333720E+04  0.10816333720E+04  0.00000000000E+00 0. -1.
         -2   -1    0    0    0  501 -0.00000000000E+00 -0.00000000000E+00 -0.76224697705E+03  0.76224697705E+03  0.00000000000E+00 0.  1.
         23    2    1    2    0    0  0.50773916386E+03 -0.28984170610E+02  0.58221205033E+03  0.77847639802E+03  0.91735980199E+02 0.  0.
        254    2    1    2    0    0 -0.50773916386E+03  0.28984170610E+02 -0.26282565541E+03  0.10654039510E+04  0.89853720736E+03 0.  0.
         23    2    4    4    0    0 -0.12717119192E+03 -0.10936874930E+03  0.30659176021E+03  0.36089982223E+03  0.90089615832E+02 0.  0.
         23    2    4    4    0    0 -0.38056797194E+03  0.13835291991E+03 -0.56941741562E+03  0.70450412877E+03  0.90090857037E+02 0.  0.
          3    1    3    3  502    0  0.34780524737E+03 -0.60783191867E+02  0.41591052729E+03  0.54556819300E+03  0.00000000000E+00 0. -1.
         -3    1    3    3    0  502  0.15993391650E+03  0.31799021257E+02  0.16630152304E+03  0.23290820502E+03  0.00000000000E+00 0.  1.
         11    1    5    5    0    0 -0.11809325721E+03 -0.77131621318E+02  0.17320325038E+03  0.22337114932E+03  0.00000000000E+00 0.  1.
        -11    1    5    5    0    0 -0.90779347129E+01 -0.32237127981E+02  0.13338850983E+03  0.13752867292E+03  0.00000000000E+00 0. -1.
          3    1    6    6  503    0 -0.28591309044E+03  0.61871137907E+02 -0.38432630286E+03  0.48299175983E+03  0.00000000000E+00 0. -1.
         -3    1    6    6    0  503 -0.94654881504E+02  0.76481782002E+02 -0.18509111276E+03  0.22151236894E+03  0.00000000000E+00 0.  1.
<mgrwt>
<rscale>  0 0.18160086E+04</rscale>
<asrwt>0</asrwt>
<pdfrwt beam="1">  1        2 0.16640513E+00 0.18160086E+04</pdfrwt>
<pdfrwt beam="2">  1       -2 0.11726877E+00 0.18160086E+04</pdfrwt>
<totfact> 0.11854689E+01</totfact>
</mgrwt>
</event>
<event>
12    2  0.3561489E-008  0.2268210E+04  0.7818608E-02  0.8490562E-01
          2   -1    0    0  501    0  0.00000000000E+00  0.00000000000E+00  0.98487001543E+03  0.98487001543E+03  0.00000000000E+00 0. -1.
         -2   -1    0    0    0  501 -0.00000000000E+00 -0.00000000000E+00 -0.13059529041E+04  0.13059529041E+04  0.00000000000E+00 0.  1.
         23    2    1    2    0    0 -0.40292541372E+03  0.32873543813E+03  0.67077213282E+03  0.85323690788E+03  0.87533362207E+02 0.  0.
        254    2    1    2    0    0  0.40292541372E+03 -0.32873543813E+03 -0.99185502150E+03  0.14375860117E+04  0.90136634059E+03 0.  0.
         23    2    4    4    0    0 -0.24323209211E+03 -0.11328455757E+03 -0.76959477065E+02  0.29364747427E+03  0.91163788963E+02 0.  0.
         23    2    4    4    0    0  0.64615750584E+03 -0.21545088056E+03 -0.91489554444E+03  0.11439385374E+04  0.87309311178E+02 0.  0.
          3    1    3    3  502    0 -0.23321111153E+03  0.21545675764E+03  0.34523848018E+03  0.46904013171E+03  0.00000000000E+00 0. -1.
         -3    1    3    3    0  502 -0.16971430219E+03  0.11327868048E+03  0.32553365264E+03  0.38419677618E+03  0.00000000000E+00 0.  1.
         11    1    5    5    0    0 -0.98854943101E+02 -0.23146708777E+02 -0.69961419605E+02  0.12329910841E+03  0.00000000000E+00 0.  1.
        -11    1    5    5    0    0 -0.14437714901E+03 -0.90137848789E+02 -0.69980574603E+01  0.17034836585E+03  0.00000000000E+00 0. -1.
          1    1    6    6  503    0  0.34589724829E+03 -0.99452128763E+02 -0.55072991674E+03  0.65790506419E+03  0.00000000000E+00 0. -1.
         -1    1    6    6    0  503  0.30026025755E+03 -0.11599875180E+03 -0.36416562770E+03  0.48603347321E+03  0.00000000000E+00 0.  1.
<mgrwt>
<rscale>  0 0.22682097E+04</rscale>
<asrwt>0</asrwt>
<pdfrwt beam="1">  1        2 0.15151847E+00 0.22682097E+04</pdfrwt>
<pdfrwt beam="2">  1       -2 0.20091583E+00 0.22682097E+04</pdfrwt>
<totfact> 0.30708137E+00</totfact>
</mgrwt>
</event>
<event>
12    2  0.3561489E-008  0.1512046E+04  0.7818608E-02  0.8876482E-01
         -1   -1    0    0    0  501 -0.00000000000E+00  0.00000000000E+00  0.18216942818E+04  0.18216942818E+04  0.00000000000E+00 0.  1.
          1   -1    0    0  501    0  0.00000000000E+00 -0.00000000000E+00 -0.31375760010E+03  0.31375760010E+03  0.00000000000E+00 0. -1.
         23    2    1    2    0    0  0.89972123140E+02 -0.22920671161E+03 -0.92839677444E+02  0.27816924878E+03  0.90156672914E+02 0.  0.
        254    2    1    2    0    0 -0.89972123140E+02  0.22920671161E+03  0.16007763592E+04  0.18572826331E+04  0.90905617411E+03 0.  0.
         23    2    4    4    0    0  0.15998776196E+03 -0.74694207189E+02 -0.88841495579E+01  0.19769688810E+03  0.88486286443E+02 0.  0.
         23    2    4    4    0    0 -0.24995988510E+03  0.30390091880E+03  0.16096605087E+04  0.16595857450E+04  0.91554241615E+02 0.  0.
          1    1    3    3  502    0  0.10521970811E+03 -0.22127471225E+03 -0.87464902383E+02  0.26016109318E+03  0.00000000000E+00 0. -1.
         -1    1    3    3    0  502 -0.15247584971E+02 -0.79319993657E+01 -0.53747750615E+01  0.18008155606E+02  0.00000000000E+00 0.  1.
         11    1    5    5    0    0  0.10491325311E+02 -0.39589403370E+00  0.25210723589E+02  0.27309434684E+02  0.00000000000E+00 0. -1.
        -11    1    5    5    0    0  0.14949643665E+03 -0.74298313155E+02 -0.34094873147E+02  0.17038745342E+03  0.00000000000E+00 0.  1.
          1    1    6    6  503    0 -0.10025464159E+03  0.18824841214E+03  0.92508930822E+03  0.94935698555E+03  0.00000000000E+00 0. -1.
         -1    1    6    6    0  503 -0.14970524351E+03  0.11565250667E+03  0.68457120050E+03  0.71022875948E+03  0.00000000000E+00 0.  1.
<mgrwt>
<rscale>  0 0.15120455E+04</rscale>
<asrwt>0</asrwt>
<pdfrwt beam="1">  1        1 0.48270401E-01 0.15120455E+04</pdfrwt>
<pdfrwt beam="2">  1       -1 0.28026065E+00 0.15120455E+04</pdfrwt>
<totfact> 0.35482092E+00</totfact>
</mgrwt>
</event>
<event>
12    2  0.3561489E-008  0.2348196E+04  0.7818608E-02  0.8459157E-01
          2   -1    0    0  501    0  0.00000000000E+00  0.00000000000E+00  0.26439586118E+04  0.26439586118E+04  0.00000000000E+00 0. -1.
         -2   -1    0    0    0  501 -0.00000000000E+00 -0.00000000000E+00 -0.52137961538E+03  0.52137961538E+03  0.00000000000E+00 0.  1.
         23    2    1    2    0    0 -0.89313159304E+03  0.13528068156E+03  0.32941690933E+03  0.96573700347E+03  0.90263804637E+02 0.  0.
        254    2    1    2    0    0  0.89313159304E+03 -0.13528068156E+03  0.17931620871E+04  0.21996012237E+04  0.89823736699E+03 0.  0.
         23    2    4    4    0    0 -0.70872578211E+02 -0.24081060544E+03  0.61835831842E+03  0.67351080909E+03  0.90758635736E+02 0.  0.
         23    2    4    4    0    0  0.96400417125E+03  0.10552992388E+03  0.11748037687E+04  0.15260904147E+04  0.91364389651E+02 0.  0.
          1    1    3    3  502    0 -0.15799353564E+03  0.45693442958E+02  0.89644551614E+02  0.18731255608E+03  0.00000000000E+00 0. -1.
         -1    1    3    3    0  502 -0.73513805741E+03  0.89587238600E+02  0.23977235771E+03  0.77842444739E+03  0.00000000000E+00 0.  1.
         11    1    5    5    0    0 -0.21076202515E+02 -0.10544041457E+03  0.37988764761E+03  0.39481199594E+03  0.00000000000E+00 0.  1.
        -11    1    5    5    0    0 -0.49796375695E+02 -0.13537019087E+03  0.23847067082E+03  0.27869881314E+03  0.00000000000E+00 0. -1.
          1    1    6    6  503    0  0.10074737217E+03 -0.21448075312E+01  0.86400645950E+02  0.13273923617E+03  0.00000000000E+00 0.  1.
         -1    1    6    6    0  503  0.86325679908E+03  0.10767473141E+03  0.10884031228E+04  0.13933511785E+04  0.00000000000E+00 0. -1.
<mgrwt>
<rscale>  0 0.23481960E+04</rscale>
<asrwt>0</asrwt>
<pdfrwt beam="1">  1        2 0.40676286E+00 0.23481960E+04</pdfrwt>
<pdfrwt beam="2">  1       -2 0.80212250E-01 0.23481960E+04</pdfrwt>
<totfact> 0.35576724E+00</totfact>
</mgrwt>
</event>
<event>
12    2  0.3561489E-008  0.1127218E+04  0.7818608E-02  0.9179062E-01
         -1   -1    0    0    0  501 -0.00000000000E+00  0.00000000000E+00  0.21109280716E+03  0.21109280716E+03  0.00000000000E+00 0.  1.
          1   -1    0    0  501    0  0.00000000000E+00 -0.00000000000E+00 -0.15048114032E+04  0.15048114032E+04  0.00000000000E+00 0. -1.
         23    2    1    2    0    0 -0.60105604871E+02  0.81228781176E+02 -0.46851034465E+03  0.48811603428E+03  0.92436579584E+02 0.  0.
        254    2    1    2    0    0  0.60105604871E+02 -0.81228781176E+02 -0.82520825141E+03  0.12277881761E+04  0.90348455911E+03 0.  0.
         23    2    4    4    0    0  0.13966605426E+03  0.28385019074E+03 -0.77225358930E+03  0.83945452352E+03  0.90723499588E+02 0.  0.
         23    2    4    4    0    0 -0.79560449386E+02 -0.36507897192E+03 -0.52954662116E+02  0.38833365259E+03  0.91576791003E+02 0.  0.
          4    1    3    3  502    0 -0.80842701975E+02  0.49895121918E+02 -0.27378661810E+03  0.28980023793E+03  0.00000000000E+00 0. -1.
         -4    1    3    3    0  502  0.20737097104E+02  0.31333659258E+02 -0.19472372655E+03  0.19831579635E+03  0.00000000000E+00 0.  1.
         11    1    5    5    0    0  0.89518318552E+02  0.10468312089E+03 -0.25607407631E+03  0.29076797917E+03  0.00000000000E+00 0.  1.
        -11    1    5    5    0    0  0.50147735705E+02  0.17916706985E+03 -0.51617951299E+03  0.54868654435E+03  0.00000000000E+00 0. -1.
          1    1    6    6  503    0 -0.25901349441E+02 -0.17394129780E+03  0.19635317173E+02  0.17695197276E+03  0.00000000000E+00 0. -1.
         -1    1    6    6    0  503 -0.53659099945E+02 -0.19113767412E+03 -0.72589979289E+02  0.21138167983E+03  0.00000000000E+00 0.  1.
<mgrwt>
<rscale>  0 0.11272176E+04</rscale>
<asrwt>0</asrwt>
<pdfrwt beam="1">  1        1 0.23150945E+00 0.11272176E+04</pdfrwt>
<pdfrwt beam="2">  1       -1 0.32475816E-01 0.11272176E+04</pdfrwt>
<totfact> 0.57258866E+01</totfact>
</mgrwt>
</event>
<event>
12    2  0.3561489E-008  0.2055447E+04  0.7818608E-02  0.8581127E-01
          2   -1    0    0  501    0  0.00000000000E+00  0.00000000000E+00  0.19987950358E+04  0.19987950358E+04  0.00000000000E+00 0. -1.
         -2   -1    0    0    0  501 -0.00000000000E+00 -0.00000000000E+00 -0.52842635985E+03  0.52842635985E+03  0.00000000000E+00 0.  1.
         23    2    1    2    0    0  0.12102633814E+03 -0.51623079801E+03  0.13781003494E+04  0.14794190543E+04  0.91534440995E+02 0.  0.
        254    2    1    2    0    0 -0.12102633814E+03  0.51623079801E+03  0.92268326594E+02  0.10478023414E+04  0.89901873796E+03 0.  0.
         23    2    4    4    0    0 -0.11250700577E+03  0.56431219784E+03  0.41076670721E+03  0.71275713307E+03  0.90484031759E+02 0.  0.
         23    2    4    4    0    0 -0.85193323707E+01 -0.48081399837E+02 -0.31849838061E+03  0.33504520833E+03  0.91813251425E+02 0.  0.
          2    1    3    3  502    0 -0.14958862716E+02 -0.53542177690E+02  0.15578332881E+03  0.16540549538E+03  0.00000000000E+00 0.  1.
         -2    1    3    3    0  502  0.13598520086E+03 -0.46268862032E+03  0.12223170205E+04  0.13140135589E+04  0.00000000000E+00 0. -1.
         11    1    5    5    0    0 -0.81677130299E+02  0.20949949432E+03  0.18395385981E+03  0.29051714970E+03  0.00000000000E+00 0.  1.
        -11    1    5    5    0    0 -0.30829875470E+02  0.35481270352E+03  0.22681284740E+03  0.42223998336E+03  0.00000000000E+00 0. -1.
          2    1    6    6  503    0  0.13556448558E+02 -0.36225701859E+02 -0.30326198243E+03  0.30571867584E+03  0.00000000000E+00 0. -1.
         -2    1    6    6    0  503 -0.22075780928E+02 -0.11855697978E+02 -0.15236398187E+02  0.29326532490E+02  0.00000000000E+00 0.  1.
<mgrwt>
<rscale>  0 0.20554474E+04</rscale>
<asrwt>0</asrwt>
<pdfrwt beam="1">  1        2 0.30750692E+00 0.20554474E+04</pdfrwt>
<pdfrwt beam="2">  1       -2 0.81296364E-01 0.20554474E+04</pdfrwt>
<totfact> 0.82497148E+00</totfact>
</mgrwt>
</event>
<event>
12    2  0.3561489E-008  0.1305508E+04  0.7818608E-02  0.9025209E-01
          1   -1    0    0  501    0  0.00000000000E+00  0.00000000000E+00  0.75420380938E+03  0.75420380938E+03  0.00000000000E+00 0. -1.
         -1   -1    0    0    0  501 -0.00000000000E+00 -0.00000000000E+00 -0.56495054786E+03  0.56495054786E+03  0.00000000000E+00 0.  1.
         23    2    1    2    0    0 -0.42128467520E+02  0.31461721772E+03 -0.37144679633E+02  0.33274024968E+03  0.92615036943E+02 0.  0.
        254    2    1    2    0    0  0.42128467520E+02 -0.31461721772E+03  0.22639794116E+03  0.98641410756E+03  0.90608937880E+03 0.  0.
         23    2    4    4    0    0 -0.25061075641E+03  0.13071675811E+03 -0.14432500876E+03  0.33091230116E+03  0.93704966928E+02 0.  0.
         23    2    4    4    0    0  0.29273922393E+03 -0.44533397583E+03  0.37072294992E+03  0.65550180640E+03  0.90711131256E+02 0.  0.
          2    1    3    3  502    0 -0.86197951361E+01  0.13789721696E+03 -0.61489722895E+02  0.15123137682E+03  0.00000000000E+00 0. -1.
         -2    1    3    3    0  502 -0.33508672383E+02  0.17672000077E+03  0.24345043262E+02  0.18150887286E+03  0.00000000000E+00 0.  1.
         11    1    5    5    0    0 -0.16107888461E+03  0.11926824212E+03 -0.64876313349E+02  0.21066622102E+03  0.00000000000E+00 0.  1.
        -11    1    5    5    0    0 -0.89531871801E+02  0.11448515988E+02 -0.79448695411E+02  0.12024608014E+03  0.00000000000E+00 0. -1.
          3    1    6    6  503    0  0.95453739147E+02 -0.20186620045E+03  0.11577475658E+03  0.25152569145E+03  0.00000000000E+00 0. -1.
         -3    1    6    6    0  503  0.19728548479E+03 -0.24346777539E+03  0.25494819334E+03  0.40397611494E+03  0.00000000000E+00 0.  1.
<mgrwt>
<rscale>  0 0.13055081E+04</rscale>
<asrwt>0</asrwt>
<pdfrwt beam="1">  1        1 0.11603136E+00 0.13055081E+04</pdfrwt>
<pdfrwt beam="2">  1       -1 0.86915469E-01 0.13055081E+04</pdfrwt>
<totfact> 0.31113085E+01</totfact>
</mgrwt>
</event>
<event>
12    2  0.3561489E-008  0.2540788E+04  0.7818608E-02  0.8388597E-01
         -1   -1    0    0    0  501 -0.00000000000E+00  0.00000000000E+00  0.10473384218E+04  0.10473384218E+04  0.00000000000E+00 0.  1.
          1   -1    0    0  501    0  0.00000000000E+00 -0.00000000000E+00 -0.15409545334E+04  0.15409545334E+04  0.00000000000E+00 0. -1.
         23    2    1    2    0    0  0.44123244454E+03 -0.73953950954E+03  0.48093011291E+03  0.99050406523E+03  0.90552600449E+02 0.  0.
        254    2    1    2    0    0 -0.44123244454E+03  0.73953950954E+03 -0.97454622446E+03  0.15977888899E+04  0.92821561982E+03 0.  0.
         23    2    4    4    0    0  0.94544166701E+02  0.37188253626E+03 -0.83995507249E+03  0.92800547639E+03  0.91839099471E+02 0.  0.
         23    2    4    4    0    0 -0.53577661124E+03  0.36765697329E+03 -0.13459115198E+03  0.66978341354E+03  0.90922030864E+02 0.  0.
          4    1    3    3  502    0  0.21148503503E+03 -0.28609422024E+03  0.16668172798E+03  0.39288499760E+03  0.00000000000E+00 0. -1.
         -4    1    3    3    0  502  0.22974740952E+03 -0.45344528930E+03  0.31424838494E+03  0.59761906764E+03  0.00000000000E+00 0.  1.
         11    1    5    5    0    0  0.91309457255E+00  0.16837716504E+03 -0.40907074541E+03  0.44236927809E+03  0.00000000000E+00 0. -1.
        -11    1    5    5    0    0  0.93631072128E+02  0.20350537122E+03 -0.43088432708E+03  0.48563619831E+03  0.00000000000E+00 0.  1.
          2    1    6    6  503    0 -0.38517796623E+03  0.30805126138E+03 -0.85717826193E+02  0.50060482522E+03  0.00000000000E+00 0.  1.
         -2    1    6    6    0  503 -0.15059864501E+03  0.59605711911E+02 -0.48873325784E+02  0.16917858832E+03  0.00000000000E+00 0. -1.
<mgrwt>
<rscale>  0 0.25407880E+04</rscale>
<asrwt>0</asrwt>
<pdfrwt beam="1">  1        1 0.23706993E+00 0.25407880E+04</pdfrwt>
<pdfrwt beam="2">  1       -1 0.16112899E+00 0.25407880E+04</pdfrwt>
<totfact> 0.15545982E+00</totfact>
</mgrwt>
</event>
<event>
12    2  0.3561489E-008  0.1433251E+04  0.7818608E-02  0.8930096E-01
          1   -1    0    0  501    0  0.00000000000E+00  0.00000000000E+00  0.50091795793E+03  0.50091795793E+03  0.00000000000E+00 0. -1.
         -1   -1    0    0    0  501 -0.00000000000E+00 -0.00000000000E+00 -0.10252216271E+04  0.10252216271E+04  0.00000000000E+00 0.  1.
         23    2    1    2    0    0  0.20181643205E+02 -0.39817212100E+03 -0.30931033817E+03  0.51317371144E+03  0.93413254653E+02 0.  0.
        254    2    1    2    0    0 -0.20181643205E+02  0.39817212100E+03 -0.21499333099E+03  0.10129658736E+04  0.90605153938E+03 0.  0.
         23    2    4    4    0    0  0.28053996488E+03  0.19433820888E+03  0.23719133960E+03  0.42535411623E+03  0.90533868130E+02 0.  0.
         23    2    4    4    0    0 -0.30072160809E+03  0.20383391212E+03 -0.45218467060E+03  0.58761175736E+03  0.93993892183E+02 0.  0.
          4    1    3    3  502    0  0.24305916215E+02 -0.24589867303E+03 -0.13459285764E+03  0.28137550051E+03  0.00000000000E+00 0. -1.
         -4    1    3    3    0  502 -0.41242730101E+01 -0.15227344797E+03 -0.17471748053E+03  0.23179821093E+03  0.00000000000E+00 0.  1.
         11    1    5    5    0    0  0.67073636307E+02  0.97797649818E+02  0.72814731969E+02  0.13915903919E+03  0.00000000000E+00 0. -1.
        -11    1    5    5    0    0  0.21346632858E+03  0.96540559066E+02  0.16437660764E+03  0.28619507703E+03  0.00000000000E+00 0.  1.
          2    1    6    6  503    0 -0.25688598589E+02 -0.86380859765E+01 -0.42040126685E+02  0.50018925204E+02  0.00000000000E+00 0. -1.
         -2    1    6    6    0  503 -0.27503300950E+03  0.21247199809E+03 -0.41014454391E+03  0.53759283216E+03  0.00000000000E+00 0.  1.
<mgrwt>
<rscale>  0 0.14332507E+04</rscale>
<asrwt>0</asrwt>
<pdfrwt beam="1">  1        1 0.77064302E-01 0.14332507E+04</pdfrwt>
<pdfrwt beam="2">  1       -1 0.15772640E+00 0.14332507E+04</pdfrwt>
<totfact> 0.13075698E+01</totfact>
</mgrwt>
</event>
<event>
12    2  0.3561489E-008  0.1430715E+04  0.7818608E-02  0.8931881E-01
         -1   -1    0    0    0  501 -0.00000000000E+00  0.00000000000E+00  0.16380133581E+04  0.16380133581E+04  0.00000000000E+00 0.  1.
          1   -1    0    0  501    0  0.00000000000E+00 -0.00000000000E+00 -0.31241285016E+03  0.31241285016E+03  0.00000000000E+00 0. -1.
         23    2    1    2    0    0 -0.35180768664E+03 -0.19675981053E+01  0.77334342958E+03  0.85462379505E+03  0.92462160816E+02 0.  0.
        254    2    1    2    0    0  0.35180768664E+03  0.19675981053E+01  0.55225707836E+03  0.10958024132E+04  0.87864812545E+03 0.  0.
         23    2    4    4    0    0  0.91053151573E+02 -0.36824074092E+03  0.49321680742E+03  0.62924652864E+03  0.93789418347E+02 0.  0.
         23    2    4    4    0    0  0.26075453506E+03  0.37020833903E+03  0.59040270947E+02  0.46655588457E+03  0.95611181285E+02 0.  0.
          4    1    3    3  502    0 -0.71941753468E+02  0.16765193946E+02  0.25213890521E+03  0.26273696950E+03  0.00000000000E+00 0. -1.
         -4    1    3    3    0  502 -0.27986593317E+03 -0.18732792052E+02  0.52120452437E+03  0.59188682556E+03  0.00000000000E+00 0.  1.
         11    1    5    5    0    0  0.44289535635E+02 -0.11149899302E+03  0.94510081863E+02  0.15272767917E+03  0.00000000000E+00 0.  1.
        -11    1    5    5    0    0  0.46763615938E+02 -0.25674174790E+03  0.39870672555E+03  0.47651884946E+03  0.00000000000E+00 0. -1.
          1    1    6    6  503    0  0.10375685584E+03  0.22263187766E+03  0.51447195557E+02  0.25095268880E+03  0.00000000000E+00 0. -1.
         -1    1    6    6    0  503  0.15699767922E+03  0.14757646137E+03  0.75930753902E+01  0.21560319576E+03  0.00000000000E+00 0.  1.
<mgrwt>
<rscale>  0 0.14307151E+04</rscale>
<asrwt>0</asrwt>
<pdfrwt beam="1">  1        1 0.48063517E-01 0.14307151E+04</pdfrwt>
<pdfrwt beam="2">  1       -1 0.25200205E+00 0.14307151E+04</pdfrwt>
<totfact> 0.54766204E+00</totfact>
</mgrwt>
</event>
<event>
12    2  0.3561489E-008  0.3915359E+04  0.7818608E-02  0.8021842E-01
          2   -1    0    0  501    0  0.00000000000E+00  0.00000000000E+00  0.37074734887E+04  0.37074734887E+04  0.00000000000E+00 0. -1.
         -2   -1    0    0    0  501 -0.00000000000E+00 -0.00000000000E+00 -0.10337251848E+04  0.10337251848E+04  0.00000000000E+00 0.  1.
         23    2    1    2    0    0  0.10541007417E+04  0.14029159483E+04  0.56837974603E+03  0.18468340989E+04  0.91864690981E+02 0.  0.
        254    2    1    2    0    0 -0.10541007417E+04 -0.14029159483E+04  0.21053685578E+04  0.28943645746E+04  0.93030532353E+03 0.  0.
         23    2    4    4    0    0 -0.33281497710E+02 -0.11094232827E+03  0.73216174022E+03  0.74823620929E+03  0.10188597921E+03 0.  0.
         23    2    4    4    0    0 -0.10208192440E+04 -0.12919736200E+04  0.13732068175E+04  0.21461283653E+04  0.94351644665E+02 0.  0.
          4    1    3    3  502    0  0.13016170636E+03  0.14402355599E+03  0.87260495058E+02  0.21283620106E+03  0.00000000000E+00 0. -1.
         -4    1    3    3    0  502  0.92393903534E+03  0.12588923923E+04  0.48111925097E+03  0.16339978978E+04  0.00000000000E+00 0.  1.
         11    1    5    5    0    0 -0.33225332824E+02 -0.46080866251E+02  0.58067976123E+03  0.58345210093E+03  0.00000000000E+00 0.  1.
        -11    1    5    5    0    0 -0.56164885585E-01 -0.64861462022E+02  0.15148197900E+03  0.16478410837E+03  0.00000000000E+00 0. -1.
          3    1    6    6  503    0 -0.34556578796E+03 -0.43149278298E+03  0.40395918858E+03  0.68467858270E+03  0.00000000000E+00 0. -1.
         -3    1    6    6    0  503 -0.67525345604E+03 -0.86048083706E+03  0.96924762897E+03  0.14614497826E+04  0.00000000000E+00 0.  1.
<mgrwt>
<rscale>  0 0.39153588E+04</rscale>
<asrwt>0</asrwt>
<pdfrwt beam="1">  1        2 0.57038053E+00 0.39153588E+04</pdfrwt>
<pdfrwt beam="2">  1       -2 0.15903464E+00 0.39153588E+04</pdfrwt>
<totfact> 0.11693203E-01</totfact>
</mgrwt>
</event>
<event>
12    2  0.3561489E-008  0.3541124E+04  0.7818608E-02  0.8104113E-01
         -1   -1    0    0    0  501 -0.00000000000E+00  0.00000000000E+00  0.12039394032E+04  0.12039394032E+04  0.00000000000E+00 0.  1.
          1   -1    0    0  501    0  0.00000000000E+00 -0.00000000000E+00 -0.26038596662E+04  0.26038596662E+04  0.00000000000E+00 0. -1.
         23    2    1    2    0    0 -0.10390604281E+04  0.50391251788E+03 -0.19257136596E+04  0.22476274060E+04  0.99405524742E+02 0.  0.
        254    2    1    2    0    0  0.10390604281E+04 -0.50391251788E+03  0.52579339664E+03  0.15601716633E+04  0.90780092760E+03 0.  0.
         23    2    4    4    0    0  0.22953484420E+03  0.19615781732E+03  0.35074474703E+03  0.47188771340E+03  0.92152061809E+02 0.  0.
         23    2    4    4    0    0  0.80952558391E+03 -0.70007033520E+03  0.17504864962E+03  0.10882839499E+04  0.91048232845E+02 0.  0.
          2    1    3    3  502    0 -0.60243837412E+03  0.28792138987E+03 -0.10174013920E+04  0.12169372678E+04  0.00000000000E+00 0. -1.
         -2    1    3    3    0  502 -0.43662205400E+03  0.21599112801E+03 -0.90831226763E+03  0.10306901382E+04  0.00000000000E+00 0.  1.
         11    1    5    5    0    0  0.16734698173E+03  0.17539092733E+03  0.31412977151E+03  0.39679277089E+03  0.00000000000E+00 0.  1.
        -11    1    5    5    0    0  0.62187862470E+02  0.20766889988E+02  0.36614975517E+02  0.75094942510E+02  0.00000000000E+00 0. -1.
          1    1    6    6  503    0  0.39315710637E+01 -0.19146805796E+01 -0.55566742278E+01  0.70710594132E+01  0.00000000000E+00 0. -1.
         -1    1    6    6    0  503  0.80559401285E+03 -0.69815565462E+03  0.18060532385E+03  0.10812128905E+04  0.00000000000E+00 0.  1.
<mgrwt>
<rscale>  0 0.35411237E+04</rscale>
<asrwt>0</asrwt>
<pdfrwt beam="1">  1        1 0.40059379E+00 0.35411237E+04</pdfrwt>
<pdfrwt beam="2">  1       -1 0.18522145E+00 0.35411237E+04</pdfrwt>
<totfact> 0.17800719E-01</totfact>
</mgrwt>
</event>
<event>
12    2  0.3561489E-008  0.1283789E+04  0.7818608E-02  0.9042520E-01
         -2   -1    0    0    0  501 -0.00000000000E+00  0.00000000000E+00  0.19491223012E+03  0.19491223012E+03  0.00000000000E+00 0.  1.
          2   -1    0    0  501    0  0.00000000000E+00 -0.00000000000E+00 -0.21139188709E+04  0.21139188709E+04  0.00000000000E+00 0. -1.
         23    2    1    2    0    0 -0.58649523607E+02  0.37828631283E+00 -0.10234388157E+04  0.10296233070E+04  0.96214525872E+02 0.  0.
        254    2    1    2    0    0  0.58649523607E+02 -0.37828631283E+00 -0.89556782509E+03  0.12792077941E+04  0.91153219439E+03 0.  0.
         23    2    4    4    0    0  0.59850174394E+02 -0.33351964404E+02 -0.10717460662E+04  0.10779934542E+04  0.93465822885E+02 0.  0.
         23    2    4    4    0    0 -0.12006507869E+01  0.32973678091E+02  0.17617824112E+03  0.20121433984E+03  0.91431574985E+02 0.  0.
          4    1    3    3  502    0 -0.79453640945E+02 -0.17989820907E+02 -0.85949888491E+03  0.86335094132E+03  0.00000000000E+00 0. -1.
         -4    1    3    3    0  502  0.20804117338E+02  0.18368107219E+02 -0.16393993082E+03  0.16627236564E+03  0.00000000000E+00 0.  1.
         11    1    5    5    0    0  0.43547322172E+02 -0.47749959292E+02 -0.34978958263E+03  0.35570940386E+03  0.00000000000E+00 0. -1.
        -11    1    5    5    0    0  0.16302852222E+02  0.14397994888E+02 -0.72195648359E+03  0.72228405038E+03  0.00000000000E+00 0.  1.
          4    1    6    6  503    0  0.15015815264E+02 -0.72460186216E+01 -0.29324091421E+01  0.16928630107E+02  0.00000000000E+00 0. -1.
         -4    1    6    6    0  503 -0.16216466051E+02  0.40219696713E+02  0.17911065027E+03  0.18428570974E+03  0.00000000000E+00 0.  1.
<mgrwt>
<rscale>  0 0.12837891E+04</rscale>
<asrwt>0</asrwt>
<pdfrwt beam="1">  1        2 0.32521829E+00 0.12837891E+04</pdfrwt>
<pdfrwt beam="2">  1       -2 0.29986496E-01 0.12837891E+04</pdfrwt>
<totfact> 0.58217100E+01</totfact>
</mgrwt>
</event>
<event>
12    2  0.3561489E-008  0.2114064E+04  0.7818608E-02  0.8555073E-01
         -2   -1    0    0    0  501 -0.00000000000E+00  0.00000000000E+00  0.41476270320E+03  0.41476270320E+03  0.00000000000E+00 0.  1.
          2   -1    0    0  501    0  0.00000000000E+00 -0.00000000000E+00 -0.26938692978E+04  0.26938692978E+04  0.00000000000E+00 0. -1.
         23    2    1    2    0    0  0.30753953573E+02 -0.30747860169E+03 -0.21213553496E+04  0.21456343460E+04  0.90051824192E+02 0.  0.
        254    2    1    2    0    0 -0.30753953573E+02  0.30747860169E+03 -0.15775124497E+03  0.96299765503E+03  0.89832629492E+03 0.  0.
         23    2    4    4    0    0 -0.18613796645E+03 -0.75029345973E+02  0.27958820491E+03  0.35468953111E+03  0.85780847776E+02 0.  0.
         23    2    4    4    0    0  0.15538401288E+03  0.38250794766E+03 -0.43733944988E+03  0.60830812391E+03  0.91194614498E+02 0.  0.
          2    1    3    3  502    0  0.50600585772E+02 -0.28769255537E+03 -0.18626814979E+04  0.18854468405E+04  0.00000000000E+00 0. -1.
         -2    1    3    3    0  502 -0.19846632198E+02 -0.19786046322E+02 -0.25867385169E+03  0.26018750544E+03  0.00000000000E+00 0.  1.
         11    1    5    5    0    0 -0.13448075224E+03 -0.11097225933E+02  0.19084007089E+03  0.23372666472E+03  0.00000000000E+00 0. -1.
        -11    1    5    5    0    0 -0.51657214214E+02 -0.63932120040E+02  0.88748134019E+02  0.12096286639E+03  0.00000000000E+00 0.  1.
          3    1    6    6  503    0  0.53851787796E+02  0.65222117360E+02 -0.12977231857E+03  0.15490253164E+03  0.00000000000E+00 0. -1.
         -3    1    6    6    0  503  0.10153222508E+03  0.31728583030E+03 -0.30756713131E+03  0.45340559227E+03  0.00000000000E+00 0.  1.
<mgrwt>
<rscale>  0 0.21140639E+04</rscale>
<asrwt>0</asrwt>
<pdfrwt beam="1">  1        2 0.41444144E+00 0.21140639E+04</pdfrwt>
<pdfrwt beam="2">  1       -2 0.63809645E-01 0.21140639E+04</pdfrwt>
<totfact> 0.56034031E+00</totfact>
</mgrwt>
</event>
<event>
12    2  0.3561489E-008  0.1747395E+04  0.7818608E-02  0.8734786E-01
          2   -1    0    0  501    0  0.00000000000E+00  0.00000000000E+00  0.38008279545E+04  0.38008279545E+04  0.00000000000E+00 0.  1.
         -2   -1    0    0    0  501 -0.00000000000E+00 -0.00000000000E+00 -0.20083706449E+03  0.20083706449E+03  0.00000000000E+00 0. -1.
         23    2    1    2    0    0 -0.33332285483E+02  0.25852502424E+03 -0.30072686509E+01  0.27696554765E+03  0.93566241274E+02 0.  0.
        254    2    1    2    0    0  0.33332285483E+02 -0.25852502424E+03  0.36029981587E+04  0.37246994714E+04  0.90765863140E+03 0.  0.
         23    2    4    4    0    0 -0.10373917399E+03 -0.25671002142E+03  0.35354804053E+04  0.35472683411E+04  0.82638589512E+02 0.  0.
         23    2    4    4    0    0  0.13707145947E+03 -0.18150028198E+01  0.67517753401E+02  0.17743113025E+03  0.90173608784E+02 0.  0.
          3    1    3    3  502    0 -0.20346853041E+02  0.20383704741E+03 -0.41275015885E+02  0.20896689513E+03  0.00000000000E+00 0. -1.
         -3    1    3    3    0  502 -0.12985432442E+02  0.54687976825E+02  0.38267747235E+02  0.67998652511E+02  0.00000000000E+00 0.  1.
         11    1    5    5    0    0 -0.31360909928E+02 -0.10018611885E+03  0.18535523118E+04  0.18565228083E+04  0.00000000000E+00 0. -1.
        -11    1    5    5    0    0 -0.72378264059E+02 -0.15652390257E+03  0.16819280935E+04  0.16907455329E+04  0.00000000000E+00 0.  1.
          2    1    6    6  503    0  0.10219078480E+03  0.26983687844E+02  0.77558745354E+02  0.13109704378E+03  0.00000000000E+00 0.  1.
         -2    1    6    6    0  503  0.34880674672E+02 -0.28798690664E+02 -0.10040991953E+02  0.46334086469E+02  0.00000000000E+00 0. -1.
<mgrwt>
<rscale>  0 0.17473948E+04</rscale>
<asrwt>0</asrwt>
<pdfrwt beam="1">  1        2 0.58474271E+00 0.17473948E+04</pdfrwt>
<pdfrwt beam="2">  1       -2 0.30898013E-01 0.17473948E+04</pdfrwt>
<totfact> 0.45702713E+00</totfact>
</mgrwt>
</event>
<event>
12    2  0.3561489E-008  0.2092505E+04  0.7818608E-02  0.8564552E-01
          2   -1    0    0  501    0  0.00000000000E+00  0.00000000000E+00  0.19205819012E+04  0.19205819012E+04  0.00000000000E+00 0. -1.
         -2   -1    0    0    0  501 -0.00000000000E+00 -0.00000000000E+00 -0.56995425453E+03  0.56995425453E+03  0.00000000000E+00 0.  1.
         23    2    1    2    0    0  0.41466655540E+03  0.48543716870E+03  0.12168857950E+04  0.13770956667E+04  0.89352338371E+02 0.  0.
        254    2    1    2    0    0 -0.41466655540E+03 -0.48543716870E+03  0.13374185173E+03  0.11134404890E+04  0.90236646814E+03 0.  0.
         23    2    4    4    0    0 -0.11708838144E+03 -0.10189529595E+03  0.47834432948E+03  0.51121641578E+03  0.91850889033E+02 0.  0.
         23    2    4    4    0    0 -0.29757817397E+03 -0.38354187275E+03 -0.34460247775E+03  0.60222407326E+03  0.90916604474E+02 0.  0.
          2    1    3    3  502    0  0.42076898374E+02  0.53426957280E+02  0.19821922818E+03  0.20956089225E+03  0.00000000000E+00 0.  1.
         -2    1    3    3    0  502  0.37258965703E+03  0.43201021142E+03  0.10186665668E+04  0.11675347745E+04  0.00000000000E+00 0. -1.
         11    1    5    5    0    0 -0.61260042942E+02 -0.10493053272E+03  0.28189724425E+03  0.30696785805E+03  0.00000000000E+00 0. -1.
        -11    1    5    5    0    0 -0.55828338497E+02  0.30352367751E+01  0.19644708523E+03  0.20424855773E+03  0.00000000000E+00 0.  1.
          2    1    6    6  503    0 -0.18770483620E+03 -0.23686231119E+03 -0.26675885451E+03  0.40310934801E+03  0.00000000000E+00 0. -1.
         -2    1    6    6    0  503 -0.10987333777E+03 -0.14667956156E+03 -0.77843623240E+02  0.19911472525E+03  0.00000000000E+00 0.  1.
<mgrwt>
<rscale>  0 0.20925046E+04</rscale>
<asrwt>0</asrwt>
<pdfrwt beam="1">  1        2 0.29547414E+00 0.20925046E+04</pdfrwt>
<pdfrwt beam="2">  1       -2 0.87685270E-01 0.20925046E+04</pdfrwt>
<totfact> 0.76527072E+00</totfact>
</mgrwt>
</event>
<event>
12    2  0.3561489E-008  0.1457303E+04  0.7818608E-02  0.8913353E-01
         -1   -1    0    0    0  501 -0.00000000000E+00  0.00000000000E+00  0.73904987662E+03  0.73904987662E+03  0.00000000000E+00 0.  1.
          1   -1    0    0  501    0  0.00000000000E+00 -0.00000000000E+00 -0.71839900668E+03  0.71839900668E+03  0.00000000000E+00 0. -1.
         23    2    1    2    0    0  0.14884028823E+03 -0.37905667053E+03  0.18687588523E+03  0.45768102847E+03  0.93337754763E+02 0.  0.
        254    2    1    2    0    0 -0.14884028823E+03  0.37905667053E+03 -0.16622501530E+03  0.99976785483E+03  0.89781268479E+03 0.  0.
         23    2    4    4    0    0  0.32937628408E+03  0.34769911365E+03 -0.15675313394E+03  0.51175115613E+03  0.89074635279E+02 0.  0.
         23    2    4    4    0    0 -0.47821657231E+03  0.31357556881E+02 -0.94718813615E+01  0.48801669870E+03  0.91630755047E+02 0.  0.
          3    1    3    3  502    0 -0.12375469969E+02 -0.27191660242E+02  0.60413646198E+01  0.30480103841E+02  0.00000000000E+00 0. -1.
         -3    1    3    3    0  502  0.16121575820E+03 -0.35186501029E+03  0.18083452061E+03  0.42720092463E+03  0.00000000000E+00 0.  1.
         11    1    5    5    0    0  0.26710303420E+03  0.30285175444E+03 -0.16139476939E+03  0.43486950644E+03  0.00000000000E+00 0. -1.
        -11    1    5    5    0    0  0.62273249883E+02  0.44847359217E+02  0.46416354512E+01  0.76881649692E+02  0.00000000000E+00 0.  1.
          3    1    6    6  503    0 -0.41204487612E+03 -0.55699011319E+01 -0.51346022725E+01  0.41211450820E+03  0.00000000000E+00 0. -1.
         -3    1    6    6    0  503 -0.66171696194E+02  0.36927458013E+02 -0.43372790890E+01  0.75902190498E+02  0.00000000000E+00 0.  1.
<mgrwt>
<rscale>  0 0.14573026E+04</rscale>
<asrwt>0</asrwt>
<pdfrwt beam="1">  1        1 0.11052292E+00 0.14573026E+04</pdfrwt>
<pdfrwt beam="2">  1       -1 0.11369998E+00 0.14573026E+04</pdfrwt>
<totfact> 0.17934014E+01</totfact>
</mgrwt>
</event>
<event>
12    2  0.3561489E-008  0.1861908E+04  0.7818608E-02  0.8674053E-01
          1   -1    0    0  501    0  0.00000000000E+00  0.00000000000E+00  0.67590014857E+03  0.67590014857E+03  0.00000000000E+00 0. -1.
         -1   -1    0    0    0  501 -0.00000000000E+00 -0.00000000000E+00 -0.12822531900E+04  0.12822531900E+04  0.00000000000E+00 0.  1.
         23    2    1    2    0    0 -0.61521907985E+03  0.25797989604E+03 -0.66720808646E+03  0.94790974810E+03  0.91203711206E+02 0.  0.
        254    2    1    2    0    0  0.61521907985E+03 -0.25797989604E+03  0.60855045065E+02  0.10102435904E+04  0.75620144970E+03 0.  0.
         23    2    4    4    0    0  0.49438196340E+03 -0.12507074873E+02  0.34112769054E+03  0.60868845088E+03  0.97793539237E+02 0.  0.
         23    2    4    4    0    0  0.12083711645E+03 -0.24547282117E+03 -0.28027264548E+03  0.40155513956E+03  0.88517002092E+02 0.  0.
          4    1    3    3  502    0 -0.50520748266E+03  0.20434844046E+03 -0.49210966960E+03  0.73427842987E+03  0.00000000000E+00 0. -1.
         -4    1    3    3    0  502 -0.11001159719E+03  0.53631455577E+02 -0.17509841686E+03  0.21363131824E+03  0.00000000000E+00 0.  1.
         11    1    5    5    0    0 -0.11372011424E+01 -0.60614378134E+01  0.12864708699E+02  0.14266568779E+02  0.00000000000E+00 0.  1.
        -11    1    5    5    0    0  0.49551916454E+03 -0.64456370595E+01  0.32826298184E+03  0.59442188210E+03  0.00000000000E+00 0. -1.
          3    1    6    6  503    0  0.75970751300E+02 -0.22630586099E+03 -0.22961701582E+03  0.33122480542E+03  0.00000000000E+00 0. -1.
         -3    1    6    6    0  503  0.44866365146E+02 -0.19166960176E+02 -0.50655629654E+02  0.70330334135E+02  0.00000000000E+00 0.  1.
<mgrwt>
<rscale>  0 0.18619078E+04</rscale>
<asrwt>0</asrwt>
<pdfrwt beam="1">  1        1 0.10398464E+00 0.18619078E+04</pdfrwt>
<pdfrwt beam="2">  1       -1 0.19726972E+00 0.18619078E+04</pdfrwt>
<totfact> 0.42383211E+00</totfact>
</mgrwt>
</event>
<event>
12    2  0.3561489E-008  0.1638305E+04  0.7818608E-02  0.8797355E-01
          2   -1    0    0  501    0  0.00000000000E+00  0.00000000000E+00  0.67066301998E+03  0.67066301998E+03  0.00000000000E+00 0. -1.
         -2   -1    0    0    0  501 -0.00000000000E+00 -0.00000000000E+00 -0.10005186831E+04  0.10005186831E+04  0.00000000000E+00 0.  1.
         23    2    1    2    0    0  0.41951609206E+03  0.16340354894E+03 -0.44306926300E+03  0.63820596739E+03  0.91115386692E+02 0.  0.
        254    2    1    2    0    0 -0.41951609206E+03 -0.16340354894E+03  0.11321359987E+03  0.10329757357E+04  0.92278224953E+03 0.  0.
         23    2    4    4    0    0 -0.63921798302E+03 -0.21228207398E+03 -0.12670879056E+03  0.69129735700E+03  0.90408016448E+02 0.  0.
         23    2    4    4    0    0  0.21970189096E+03  0.48878525043E+02  0.23992239042E+03  0.34167837870E+03  0.92321882244E+02 0.  0.
          4    1    3    3  502    0  0.16185568274E+03  0.47230577784E+02 -0.10972019813E+03  0.20116289765E+03  0.00000000000E+00 0. -1.
         -4    1    3    3    0  502  0.25766040932E+03  0.11617297115E+03 -0.33334906486E+03  0.43704306973E+03  0.00000000000E+00 0.  1.
         11    1    5    5    0    0 -0.24695263675E+03 -0.45770055976E+02 -0.74455723871E+02  0.26196213016E+03  0.00000000000E+00 0.  1.
        -11    1    5    5    0    0 -0.39226534628E+03 -0.16651201800E+03 -0.52253066686E+02  0.42933522684E+03  0.00000000000E+00 0. -1.
          1    1    6    6  503    0  0.10595225734E+03  0.59032650768E+02  0.80495807068E+02  0.14556891718E+03  0.00000000000E+00 0. -1.
         -1    1    6    6    0  503  0.11374963362E+03 -0.10154125725E+02  0.15942658335E+03  0.19610946152E+03  0.00000000000E+00 0.  1.
<mgrwt>
<rscale>  0 0.16383051E+04</rscale>
<asrwt>0</asrwt>
<pdfrwt beam="1">  1        2 0.10317893E+00 0.16383051E+04</pdfrwt>
<pdfrwt beam="2">  1       -2 0.15392595E+00 0.16383051E+04</pdfrwt>
<totfact> 0.11556413E+01</totfact>
</mgrwt>
</event>
<event>
12    2  0.3561489E-008  0.2108687E+04  0.7818608E-02  0.8557426E-01
         -2   -1    0    0    0  501 -0.00000000000E+00  0.00000000000E+00  0.86281133408E+03  0.86281133408E+03  0.00000000000E+00 0.  1.
          2   -1    0    0  501    0  0.00000000000E+00 -0.00000000000E+00 -0.12883930785E+04  0.12883930785E+04  0.00000000000E+00 0. -1.
         23    2    1    2    0    0  0.23808644559E+03  0.77227999760E+03  0.14002195678E+03  0.82529735345E+03  0.91695272344E+02 0.  0.
        254    2    1    2    0    0 -0.23808644559E+03 -0.77227999760E+03 -0.56560370116E+03  0.13259070591E+04  0.88601378788E+03 0.  0.
         23    2    4    4    0    0 -0.21146361310E+03  0.12019580415E+03  0.95007741771E+01  0.25989760275E+03  0.91063758996E+02 0.  0.
         23    2    4    4    0    0 -0.26622832486E+02 -0.89247580174E+03 -0.57510447534E+03  0.10660094563E+04  0.91701535158E+02 0.  0.
          1    1    3    3  502    0  0.47271783701E+02  0.11596794187E+03 -0.96835646880E+01  0.12560635534E+03  0.00000000000E+00 0. -1.
         -1    1    3    3    0  502  0.19081466189E+03  0.65631205572E+03  0.14970552147E+03  0.69969099811E+03  0.00000000000E+00 0.  1.
         11    1    5    5    0    0 -0.94258202545E+02  0.91056864220E+02 -0.26836032218E+02  0.13377643251E+03  0.00000000000E+00 0.  1.
        -11    1    5    5    0    0 -0.11720541056E+03  0.29138939927E+02  0.36336806395E+02  0.12612117024E+03  0.00000000000E+00 0. -1.
          4    1    6    6  503    0  0.19041144843E+02 -0.16761145342E+03 -0.77787218334E+02  0.18576064128E+03  0.00000000000E+00 0. -1.
         -4    1    6    6    0  503 -0.45663977330E+02 -0.72486434833E+03 -0.49731725701E+03  0.88024881506E+03  0.00000000000E+00 0.  1.
<mgrwt>
<rscale>  0 0.21086869E+04</rscale>
<asrwt>0</asrwt>
<pdfrwt beam="1">  1        2 0.19821432E+00 0.21086869E+04</pdfrwt>
<pdfrwt beam="2">  1       -2 0.13274021E+00 0.21086869E+04</pdfrwt>
<totfact> 0.63701889E+00</totfact>
</mgrwt>
</event>
<event>
12    2  0.3561489E-008  0.2115698E+04  0.7818608E-02  0.8554359E-01
         -2   -1    0    0    0  501 -0.00000000000E+00  0.00000000000E+00  0.64152074106E+03  0.64152074106E+03  0.00000000000E+00 0.  1.
          2   -1    0    0  501    0  0.00000000000E+00 -0.00000000000E+00 -0.17443627771E+04  0.17443627771E+04  0.00000000000E+00 0. -1.
         23    2    1    2    0    0 -0.49782751653E+03  0.20637527845E+03 -0.12047606177E+04  0.13229074698E+04  0.90625802350E+02 0.  0.
        254    2    1    2    0    0  0.49782751653E+03 -0.20637527845E+03  0.10191858163E+03  0.10629760483E+04  0.91055350765E+03 0.  0.
         23    2    4    4    0    0  0.31046346193E+03  0.29564540979E+03 -0.15155501862E+03  0.46296602627E+03  0.87033604325E+02 0.  0.
         23    2    4    4    0    0  0.18736405460E+03 -0.50202068824E+03  0.25347360025E+03  0.60001002208E+03  0.92914477843E+02 0.  0.
          4    1    3    3  502    0 -0.17087827174E+03  0.43420348271E+02 -0.31331751557E+03  0.35951714279E+03  0.00000000000E+00 0. -1.
         -4    1    3    3    0  502 -0.32694924479E+03  0.16295493018E+03 -0.89144310209E+03  0.96339032702E+03  0.00000000000E+00 0.  1.
         11    1    5    5    0    0  0.18025385613E+03  0.13765020040E+03 -0.11744936119E+03  0.25540826683E+03  0.00000000000E+00 0.  1.
        -11    1    5    5    0    0  0.13020960580E+03  0.15799520939E+03 -0.34105657426E+02  0.20755775944E+03  0.00000000000E+00 0. -1.
          4    1    6    6  503    0  0.18594374811E+03 -0.39301231589E+03  0.19961279596E+03  0.47841302889E+03  0.00000000000E+00 0. -1.
         -4    1    6    6    0  503  0.14203064878E+01 -0.10900837235E+03  0.53860804286E+02  0.12159699319E+03  0.00000000000E+00 0.  1.
<mgrwt>
<rscale>  0 0.21156984E+04</rscale>
<asrwt>0</asrwt>
<pdfrwt beam="1">  1        2 0.26836350E+00 0.21156984E+04</pdfrwt>
<pdfrwt beam="2">  1       -2 0.98695499E-01 0.21156984E+04</pdfrwt>
<totfact> 0.72660919E+00</totfact>
</mgrwt>
</event>
<event>
12    2  0.3561489E-008  0.1228334E+04  0.7818608E-02  0.9088411E-01
          2   -1    0    0  501    0  0.00000000000E+00  0.00000000000E+00  0.75495244142E+03  0.75495244142E+03  0.00000000000E+00 0. -1.
         -2   -1    0    0    0  501 -0.00000000000E+00 -0.00000000000E+00 -0.49963595210E+03  0.49963595210E+03  0.00000000000E+00 0.  1.
         23    2    1    2    0    0 -0.12362290349E+03  0.17679680907E+03 -0.12590804037E+03  0.26589845486E+03  0.91156018446E+02 0.  0.
        254    2    1    2    0    0  0.12362290349E+03 -0.17679680907E+03  0.38122452969E+03  0.98868993866E+03  0.88636105442E+03 0.  0.
         23    2    4    4    0    0  0.28277159057E+03  0.17156653800E+03  0.47377077684E+03  0.58440091476E+03  0.87583279216E+02 0.  0.
         23    2    4    4    0    0 -0.15914868707E+03 -0.34836334708E+03 -0.92546247147E+02  0.40428902389E+03  0.90550984513E+02 0.  0.
          4    1    3    3  502    0 -0.60671684719E+02  0.86552420641E+02 -0.11361947533E+03  0.15518298882E+03  0.00000000000E+00 0. -1.
         -4    1    3    3    0  502 -0.62951218775E+02  0.90244388432E+02 -0.12288565039E+02  0.11071546604E+03  0.00000000000E+00 0.  1.
         11    1    5    5    0    0  0.22772299525E+03  0.16550104555E+03  0.35275103989E+03  0.45131103995E+03  0.00000000000E+00 0. -1.
        -11    1    5    5    0    0  0.55048595318E+02  0.60654924507E+01  0.12101973695E+03  0.13308987481E+03  0.00000000000E+00 0.  1.
          3    1    6    6  503    0 -0.72627420802E+02 -0.13626384769E+03 -0.82342547597E+02  0.17499392442E+03  0.00000000000E+00 0. -1.
         -3    1    6    6    0  503 -0.86521266270E+02 -0.21209949939E+03 -0.10203699549E+02  0.22929509947E+03  0.00000000000E+00 0.  1.
<mgrwt>
<rscale>  0 0.12283345E+04</rscale>
<asrwt>0</asrwt>
<pdfrwt beam="1">  1        2 0.11614653E+00 0.12283345E+04</pdfrwt>
<pdfrwt beam="2">  1       -2 0.76867070E-01 0.12283345E+04</pdfrwt>
<totfact> 0.55386930E+01</totfact>
</mgrwt>
</event>
<event>
12    2  0.3561489E-008  0.1974832E+04  0.7818608E-02  0.8618479E-01
          1   -1    0    0  501    0  0.00000000000E+00  0.00000000000E+00  0.13032214890E+04  0.13032214890E+04  0.00000000000E+00 0. -1.
         -1   -1    0    0    0  501 -0.00000000000E+00 -0.00000000000E+00 -0.74813863409E+03  0.74813863409E+03  0.00000000000E+00 0.  1.
         23    2    1    2    0    0  0.81904759733E+02 -0.14529033086E+03 -0.56701991534E+03  0.59845924695E+03  0.93937298015E+02 0.  0.
        254    2    1    2    0    0 -0.81904759733E+02  0.14529033086E+03  0.11221027702E+04  0.14529008761E+04  0.90773821059E+03 0.  0.
         23    2    4    4    0    0 -0.35059297878E+02 -0.28555627073E+03  0.91613574511E+03  0.96451638947E+03  0.90640079256E+02 0.  0.
         23    2    4    4    0    0 -0.46845461855E+02  0.43084660159E+03  0.20596702512E+03  0.48838448665E+03  0.90959881079E+02 0.  0.
          2    1    3    3  502    0  0.47475208964E+02 -0.41250175124E+02 -0.95337896382E+02  0.11421377719E+03  0.00000000000E+00 0. -1.
         -2    1    3    3    0  502  0.34429550769E+02 -0.10404015573E+03 -0.47168201896E+03  0.48424546976E+03  0.00000000000E+00 0.  1.
         11    1    5    5    0    0 -0.48752152115E+01 -0.24620246849E+03  0.82229522076E+03  0.85837570638E+03  0.00000000000E+00 0.  1.
        -11    1    5    5    0    0 -0.30184082667E+02 -0.39353802238E+02  0.93840524348E+02  0.10614068309E+03  0.00000000000E+00 0. -1.
          1    1    6    6  503    0  0.24090979174E+02  0.17550677896E+03  0.95700826716E+02  0.20134957903E+03  0.00000000000E+00 0. -1.
         -1    1    6    6    0  503 -0.70936441028E+02  0.25533982263E+03  0.11026619841E+03  0.28703490763E+03  0.00000000000E+00 0.  1.
<mgrwt>
<rscale>  0 0.19748320E+04</rscale>
<asrwt>0</asrwt>
<pdfrwt beam="1">  1        1 0.20049561E+00 0.19748320E+04</pdfrwt>
<pdfrwt beam="2">  1       -1 0.11509825E+00 0.19748320E+04</pdfrwt>
<totfact> 0.57301924E+00</totfact>
</mgrwt>
</event>
<event>
12    2  0.3561489E-008  0.4662589E+04  0.7818608E-02  0.7882774E-01
          2   -1    0    0  501    0  0.00000000000E+00  0.00000000000E+00  0.14286712911E+04  0.14286712911E+04  0.00000000000E+00 0. -1.
         -2   -1    0    0    0  501 -0.00000000000E+00 -0.00000000000E+00 -0.38041886373E+04  0.38041886373E+04  0.00000000000E+00 0.  1.
         23    2    1    2    0    0  0.14071129257E+04 -0.77474989546E+03 -0.28796011841E+04  0.32986330614E+04  0.93128450815E+02 0.  0.
        254    2    1    2    0    0 -0.14071129257E+04  0.77474989546E+03  0.50408383784E+03  0.19342268669E+04  0.95232813200E+03 0.  0.
         23    2    4    4    0    0 -0.57406407682E+03  0.26830733111E+03  0.68613527214E+03  0.93833247405E+03  0.90265341918E+02 0.  0.
         23    2    4    4    0    0 -0.83304884888E+03  0.50644256435E+03 -0.18205143430E+03  0.99589439288E+03  0.90600559836E+02 0.  0.
          1    1    3    3  502    0  0.14790854325E+03 -0.93084212801E+02 -0.37230528872E+03  0.41128194204E+03  0.00000000000E+00 0. -1.
         -1    1    3    3    0  502  0.12592043825E+04 -0.68166568266E+03 -0.25072958954E+04  0.28873511194E+04  0.00000000000E+00 0.  1.
         11    1    5    5    0    0 -0.85861180090E+02  0.35408119041E+02  0.58458009600E+02  0.10974158750E+03  0.00000000000E+00 0. -1.
        -11    1    5    5    0    0 -0.48820289673E+03  0.23289921207E+03  0.62767726254E+03  0.82859088655E+03  0.00000000000E+00 0.  1.
          2    1    6    6  503    0 -0.30756261600E+03  0.21842860179E+03 -0.10602908950E+03  0.39185199331E+03  0.00000000000E+00 0. -1.
         -2    1    6    6    0  503 -0.52548623287E+03  0.28801396256E+03 -0.76022344801E+02  0.60404239957E+03  0.00000000000E+00 0.  1.
<mgrwt>
<rscale>  0 0.46625894E+04</rscale>
<asrwt>0</asrwt>
<pdfrwt beam="1">  1        2 0.21979558E+00 0.46625894E+04</pdfrwt>
<pdfrwt beam="2">  1       -2 0.58525979E+00 0.46625894E+04</pdfrwt>
<totfact> 0.61198549E-03</totfact>
</mgrwt>
</event>
<event>
12    2  0.3561489E-008  0.1407251E+04  0.7818608E-02  0.8948587E-01
         -2   -1    0    0    0  501 -0.00000000000E+00  0.00000000000E+00  0.26342299761E+03  0.26342299761E+03  0.00000000000E+00 0.  1.
          2   -1    0    0  501    0  0.00000000000E+00 -0.00000000000E+00 -0.18794445330E+04  0.18794445330E+04  0.00000000000E+00 0. -1.
         23    2    1    2    0    0 -0.21246791079E+03 -0.46869845987E+02 -0.10431394945E+04  0.10696200137E+04  0.92777008089E+02 0.  0.
        254    2    1    2    0    0  0.21246791079E+03  0.46869845987E+02 -0.57288204090E+03  0.10732475169E+04  0.88109420843E+03 0.  0.
         23    2    4    4    0    0  0.29943248089E+03  0.39526800849E+03 -0.46885051751E+03  0.68848828347E+03  0.91097198383E+02 0.  0.
         23    2    4    4    0    0 -0.86964570100E+02 -0.34839816250E+03 -0.10403152339E+03  0.38475923341E+03  0.90955998980E+02 0.  0.
          3    1    3    3  502    0 -0.14214154353E+03 -0.54310411497E+01 -0.81493355645E+03  0.82725474675E+03  0.00000000000E+00 0. -1.
         -3    1    3    3    0  502 -0.70326367262E+02 -0.41438804837E+02 -0.22820593805E+03  0.24236526699E+03  0.00000000000E+00 0.  1.
         11    1    5    5    0    0  0.32901225314E+02  0.24763181420E+02 -0.75334135544E+02  0.85854165650E+02  0.00000000000E+00 0. -1.
        -11    1    5    5    0    0  0.26653125558E+03  0.37050482707E+03 -0.39351638197E+03  0.60263411782E+03  0.00000000000E+00 0.  1.
          1    1    6    6  503    0 -0.81046193126E+02 -0.15908497765E+03 -0.72726352634E+02  0.19278391505E+03  0.00000000000E+00 0. -1.
         -1    1    6    6    0  503 -0.59183769742E+01 -0.18931318485E+03 -0.31305170754E+02  0.19197531837E+03  0.00000000000E+00 0.  1.
<mgrwt>
<rscale>  0 0.14072511E+04</rscale>
<asrwt>0</asrwt>
<pdfrwt beam="1">  1        2 0.28914531E+00 0.14072511E+04</pdfrwt>
<pdfrwt beam="2">  1       -2 0.40526615E-01 0.14072511E+04</pdfrwt>
<totfact> 0.43723785E+01</totfact>
</mgrwt>
</event>
<event>
12    2  0.3561489E-008  0.1389556E+04  0.7818608E-02  0.8961413E-01
         -2   -1    0    0    0  501 -0.00000000000E+00  0.00000000000E+00  0.78153301462E+03  0.78153301462E+03  0.00000000000E+00 0.  1.
          2   -1    0    0  501    0  0.00000000000E+00 -0.00000000000E+00 -0.61765348597E+03  0.61765348597E+03  0.00000000000E+00 0. -1.
         23    2    1    2    0    0  0.34135104580E+03 -0.15305107791E+02  0.24296168375E+03  0.43006463429E+03  0.95762346998E+02 0.  0.
        254    2    1    2    0    0 -0.34135104580E+03  0.15305107791E+02 -0.79082155096E+02  0.96912186630E+03  0.90343147039E+03 0.  0.
         23    2    4    4    0    0 -0.53107604133E+03  0.24018571071E+03  0.12047604975E+03  0.60241269873E+03  0.93035712061E+02 0.  0.
         23    2    4    4    0    0  0.18972499554E+03 -0.22488060292E+03 -0.19955820484E+03  0.36670916757E+03  0.89918168125E+02 0.  0.
          1    1    3    3  502    0  0.72248013018E+02  0.14118629353E+02  0.12759223066E+02  0.74712173393E+02  0.00000000000E+00 0. -1.
         -1    1    3    3    0  502  0.26910303278E+03 -0.29423737144E+02  0.23020246069E+03  0.35535246090E+03  0.00000000000E+00 0.  1.
         11    1    5    5    0    0 -0.54186517105E+02 -0.41985157526E+01  0.12931513100E+02  0.55866181197E+02  0.00000000000E+00 0.  1.
        -11    1    5    5    0    0 -0.47688952423E+03  0.24438422647E+03  0.10754453665E+03  0.54654651753E+03  0.00000000000E+00 0. -1.
          1    1    6    6  503    0  0.11798313876E+03 -0.19255765299E+03 -0.16996124073E+03  0.28263986645E+03  0.00000000000E+00 0. -1.
         -1    1    6    6    0  503  0.71741856781E+02 -0.32322949938E+02 -0.29596964109E+02  0.84069301124E+02  0.00000000000E+00 0.  1.
<mgrwt>
<rscale>  0 0.13895562E+04</rscale>
<asrwt>0</asrwt>
<pdfrwt beam="1">  1        2 0.95023613E-01 0.13895562E+04</pdfrwt>
<pdfrwt beam="2">  1       -2 0.12023585E+00 0.13895562E+04</pdfrwt>
<totfact> 0.24636966E+01</totfact>
</mgrwt>
</event>
<event>
12    2  0.3561489E-008  0.1334755E+04  0.7818608E-02  0.9002449E-01
         -2   -1    0    0    0  501 -0.00000000000E+00  0.00000000000E+00  0.36477676114E+03  0.36477676114E+03  0.00000000000E+00 0. -1.
          2   -1    0    0  501    0  0.00000000000E+00 -0.00000000000E+00 -0.12210004846E+04  0.12210004846E+04  0.00000000000E+00 0.  1.
         23    2    1    2    0    0  0.27220198277E+03 -0.14351855713E+03 -0.40281342607E+03  0.51495743489E+03  0.90724902115E+02 0.  0.
        254    2    1    2    0    0 -0.27220198277E+03  0.14351855713E+03 -0.45341029740E+03  0.10708198108E+04  0.91999058357E+03 0.  0.
         23    2    4    4    0    0 -0.52356591418E+03  0.31395867595E+03 -0.15803244483E+03  0.63727705475E+03  0.91959089755E+02 0.  0.
         23    2    4    4    0    0  0.25136393141E+03 -0.17044011882E+03 -0.29537785257E+03  0.43354275610E+03  0.92073804439E+02 0.  0.
          3    1    3    3  502    0  0.29014288214E+02 -0.30020868727E+02 -0.17211664713E+02  0.45158862717E+02  0.00000000000E+00 0. -1.
         -3    1    3    3    0  502  0.24318769456E+03 -0.11349768840E+03 -0.38560176136E+03  0.46979857218E+03  0.00000000000E+00 0.  1.
         11    1    5    5    0    0 -0.49357338895E+03  0.26601618687E+03 -0.14723062166E+03  0.57970350863E+03  0.00000000000E+00 0.  1.
        -11    1    5    5    0    0 -0.29992525229E+02  0.47942489082E+02 -0.10801823166E+02  0.57573546119E+02  0.00000000000E+00 0. -1.
          4    1    6    6  503    0  0.76675540918E+02 -0.23516126932E+02 -0.12577791186E+03  0.14917181340E+03  0.00000000000E+00 0. -1.
         -4    1    6    6    0  503  0.17468839050E+03 -0.14692399189E+03 -0.16959994070E+03  0.28437094270E+03  0.00000000000E+00 0.  1.
<mgrwt>
<rscale>  0 0.13347548E+04</rscale>
<asrwt>0</asrwt>
<pdfrwt beam="1">  1        2 0.18784622E+00 0.13347548E+04</pdfrwt>
<pdfrwt beam="2">  1       -2 0.56119503E-01 0.13347548E+04</pdfrwt>
<totfact> 0.53634836E+01</totfact>
</mgrwt>
</event>
<event>
12    2  0.3561489E-008  0.1471609E+04  0.7818608E-02  0.8903555E-01
         -2   -1    0    0    0  501 -0.00000000000E+00  0.00000000000E+00  0.86324906741E+03  0.86324906741E+03  0.00000000000E+00 0.  1.
          2   -1    0    0  501    0  0.00000000000E+00 -0.00000000000E+00 -0.62717483573E+03  0.62717483573E+03  0.00000000000E+00 0. -1.
         23    2    1    2    0    0  0.40780187469E+03  0.23699003649E+01  0.25456165220E+03  0.48929557240E+03  0.91107282755E+02 0.  0.
        254    2    1    2    0    0 -0.40780187469E+03 -0.23699003649E+01 -0.18487420511E+02  0.10011283307E+04  0.91411605634E+03 0.  0.
         23    2    4    4    0    0 -0.49847303610E+03 -0.82011762656E+02 -0.36068730459E+03  0.62722622710E+03  0.90089462905E+02 0.  0.
         23    2    4    4    0    0  0.90671161410E+02  0.79641862291E+02  0.34219988408E+03  0.37390210365E+03  0.90210513271E+02 0.  0.
          4    1    3    3  502    0  0.17864574867E+03  0.93402367737E+01  0.60242495164E+02  0.18876096462E+03  0.00000000000E+00 0.  1.
         -4    1    3    3    0  502  0.22915612602E+03 -0.69703364087E+01  0.19431915703E+03  0.30053460778E+03  0.00000000000E+00 0. -1.
         11    1    5    5    0    0 -0.80239927095E+01 -0.14858889405E+02 -0.20592937106E+02  0.26631562328E+02  0.00000000000E+00 0. -1.
        -11    1    5    5    0    0 -0.49044904339E+03 -0.67152873250E+02 -0.34009436749E+03  0.60059466477E+03  0.00000000000E+00 0.  1.
          2    1    6    6  503    0 -0.11502816191E+01  0.68534386052E+01 -0.42693127484E+01  0.81559671322E+01  0.00000000000E+00 0. -1.
         -2    1    6    6    0  503  0.91821443029E+02  0.72788423685E+02  0.34646919683E+03  0.36574613651E+03  0.00000000000E+00 0.  1.
<mgrwt>
<rscale>  0 0.14716088E+04</rscale>
<asrwt>0</asrwt>
<pdfrwt beam="1">  1        2 0.96488436E-01 0.14716088E+04</pdfrwt>
<pdfrwt beam="2">  1       -2 0.13280755E+00 0.14716088E+04</pdfrwt>
<totfact> 0.18706813E+01</totfact>
</mgrwt>
</event>
<event>
12    2  0.3561489E-008  0.2076716E+04  0.7818608E-02  0.8571570E-01
          2   -1    0    0  501    0  0.00000000000E+00  0.00000000000E+00  0.97424282241E+03  0.97424282241E+03  0.00000000000E+00 0.  1.
         -2   -1    0    0    0  501 -0.00000000000E+00 -0.00000000000E+00 -0.11066927622E+04  0.11066927622E+04  0.00000000000E+00 0. -1.
         23    2    1    2    0    0  0.36788304950E+03  0.39957985103E+03 -0.69814562012E+03  0.88895644554E+03  0.88511353521E+02 0.  0.
        254    2    1    2    0    0 -0.36788304950E+03 -0.39957985103E+03  0.56569568037E+03  0.11919791390E+04  0.89766400711E+03 0.  0.
         23    2    4    4    0    0 -0.28020591051E+03 -0.49848060210E+03  0.75104287105E+03  0.94840941240E+03  0.91742882094E+02 0.  0.
         23    2    4    4    0    0 -0.87677138991E+02  0.98900751063E+02 -0.18534719068E+03  0.24356972664E+03  0.86625581552E+02 0.  0.
          4    1    3    3  502    0  0.20579512321E+03  0.28204216907E+03 -0.41830007335E+03  0.54486178912E+03  0.00000000000E+00 0. -1.
         -4    1    3    3    0  502  0.16208792629E+03  0.11753768196E+03 -0.27984554677E+03  0.34409465642E+03  0.00000000000E+00 0.  1.
         11    1    5    5    0    0 -0.26109592131E+03 -0.47197082802E+03  0.73587513878E+03  0.91238136900E+03  0.00000000000E+00 0. -1.
        -11    1    5    5    0    0 -0.19109989203E+02 -0.26509774071E+02  0.15167732276E+02  0.36028043397E+02  0.00000000000E+00 0.  1.
          2    1    6    6  503    0 -0.95228588205E+02  0.94082646809E+02 -0.19080482607E+03  0.23308047987E+03  0.00000000000E+00 0. -1.
         -2    1    6    6    0  503  0.75514492139E+01  0.48181042532E+01  0.54576353901E+01  0.10489246774E+02  0.00000000000E+00 0.  1.
<mgrwt>
<rscale>  0 0.20767161E+04</rscale>
<asrwt>0</asrwt>
<pdfrwt beam="1">  1        2 0.14988351E+00 0.20767161E+04</pdfrwt>
<pdfrwt beam="2">  1       -2 0.17026042E+00 0.20767161E+04</pdfrwt>
<totfact> 0.51277065E+00</totfact>
</mgrwt>
</event>
<event>
12    2  0.3561489E-008  0.1229738E+04  0.7818608E-02  0.9087218E-01
          2   -1    0    0  501    0  0.00000000000E+00  0.00000000000E+00  0.14788998727E+04  0.14788998727E+04  0.00000000000E+00 0.  1.
         -2   -1    0    0    0  501 -0.00000000000E+00 -0.00000000000E+00 -0.25563857719E+03  0.25563857719E+03  0.00000000000E+00 0. -1.
         23    2    1    2    0    0  0.10320925073E+03  0.64877217063E+02 -0.49767115202E+02  0.16005340592E+03  0.90989693160E+02 0.  0.
        254    2    1    2    0    0 -0.10320925073E+03 -0.64877217063E+02  0.12730284107E+04  0.15744850440E+04  0.91844467252E+03 0.  0.
         23    2    4    4    0    0  0.28189598917E+03  0.94216193808E+02  0.10456497691E+04  0.10910253668E+04  0.92794781726E+02 0.  0.
         23    2    4    4    0    0 -0.38510523990E+03 -0.15909341087E+03  0.22737864159E+03  0.48345967714E+03  0.91735781402E+02 0.  0.
          4    1    3    3  502    0  0.38464891939E+02  0.29580443542E+02  0.25387447668E+02  0.54763793250E+02  0.00000000000E+00 0.  1.
         -4    1    3    3    0  502  0.64744358789E+02  0.35296773522E+02 -0.75154562870E+02  0.10528961267E+03  0.00000000000E+00 0. -1.
         11    1    5    5    0    0  0.24204957992E+03  0.11195972062E+03  0.86464531295E+03  0.90483948598E+03  0.00000000000E+00 0. -1.
        -11    1    5    5    0    0  0.39846409250E+02 -0.17743526813E+02  0.18100445618E+03  0.18618588086E+03  0.00000000000E+00 0.  1.
          1    1    6    6  503    0 -0.31326528343E+03 -0.12081092562E+03  0.13923982510E+03  0.36348059982E+03  0.00000000000E+00 0. -1.
         -1    1    6    6    0  503 -0.71839956473E+02 -0.38282485253E+02  0.88138816494E+02  0.11997907733E+03  0.00000000000E+00 0.  1.
<mgrwt>
<rscale>  0 0.12297380E+04</rscale>
<asrwt>0</asrwt>
<pdfrwt beam="1">  1        2 0.22752305E+00 0.12297380E+04</pdfrwt>
<pdfrwt beam="2">  1       -2 0.39329012E-01 0.12297380E+04</pdfrwt>
<totfact> 0.78514732E+01</totfact>
</mgrwt>
</event>
<event>
12    2  0.3561489E-008  0.2319781E+04  0.7818608E-02  0.8470163E-01
         -2   -1    0    0    0  501 -0.00000000000E+00  0.00000000000E+00  0.14690580888E+04  0.14690580888E+04  0.00000000000E+00 0.  1.
          2   -1    0    0  501    0  0.00000000000E+00 -0.00000000000E+00 -0.91578783963E+03  0.91578783963E+03  0.00000000000E+00 0. -1.
         23    2    1    2    0    0  0.14776223747E+03  0.90568976078E+03  0.59448631147E+03  0.10971277610E+04  0.90375482242E+02 0.  0.
        254    2    1    2    0    0 -0.14776223747E+03 -0.90568976078E+03 -0.41216062290E+02  0.12877181675E+04  0.90244761255E+03 0.  0.
         23    2    4    4    0    0 -0.38773752119E+03 -0.23779246988E+03  0.23559708732E+03  0.52045246236E+03  0.92082212992E+02 0.  0.
         23    2    4    4    0    0  0.23997528372E+03 -0.66789729090E+03 -0.27681314961E+03  0.76726570509E+03  0.91630859567E+02 0.  0.
          1    1    3    3  502    0  0.80098102472E+01  0.25167923398E+02  0.37607041210E+02  0.45955097399E+02  0.00000000000E+00 0. -1.
         -1    1    3    3    0  502  0.13975242722E+03  0.88052183738E+03  0.55687927026E+03  0.10511726636E+04  0.00000000000E+00 0.  1.
         11    1    5    5    0    0 -0.37698029876E+03 -0.24531838172E+03  0.23461740209E+03  0.50728747217E+03  0.00000000000E+00 0. -1.
        -11    1    5    5    0    0 -0.10757222436E+02  0.75259118371E+01  0.97968523422E+00  0.13164990189E+02  0.00000000000E+00 0.  1.
          2    1    6    6  503    0  0.16015916264E+03 -0.34018372982E+03 -0.11519221949E+03  0.39324950711E+03  0.00000000000E+00 0. -1.
         -2    1    6    6    0  503  0.79816121087E+02 -0.32771356107E+03 -0.16162093012E+03  0.37401619798E+03  0.00000000000E+00 0.  1.
<mgrwt>
<rscale>  0 0.23197806E+04</rscale>
<asrwt>0</asrwt>
<pdfrwt beam="1">  1        2 0.14089044E+00 0.23197806E+04</pdfrwt>
<pdfrwt beam="2">  1       -2 0.22600894E+00 0.23197806E+04</pdfrwt>
<totfact> 0.23449448E+00</totfact>
</mgrwt>
</event>
<event>
12    2  0.3561489E-008  0.1400325E+04  0.7818608E-02  0.8953583E-01
          2   -1    0    0  501    0  0.00000000000E+00  0.00000000000E+00  0.47992790979E+03  0.47992790979E+03  0.00000000000E+00 0. -1.
         -2   -1    0    0    0  501 -0.00000000000E+00 -0.00000000000E+00 -0.10214607430E+04  0.10214607430E+04  0.00000000000E+00 0.  1.
         23    2    1    2    0    0  0.36406777541E+03  0.30702049936E+02 -0.37665547928E+03  0.53250063076E+03  0.90551701971E+02 0.  0.
        254    2    1    2    0    0 -0.36406777541E+03 -0.30702049936E+02 -0.16487735395E+03  0.96888802205E+03  0.88208361081E+03 0.  0.
         23    2    4    4    0    0 -0.16041820988E+03  0.10113801381E+03  0.34114085069E+03  0.40026510897E+03  0.88725292645E+02 0.  0.
         23    2    4    4    0    0 -0.20364956553E+03 -0.13184006374E+03 -0.50601820464E+03  0.56862291307E+03  0.91774974266E+02 0.  0.
          3    1    3    3  502    0 -0.95641891399E+00 -0.49387647686E+01  0.19368543098E+01  0.53905045401E+01  0.00000000000E+00 0. -1.
         -3    1    3    3    0  502  0.36502419433E+03  0.35640814704E+02 -0.37859233359E+03  0.52711012622E+03  0.00000000000E+00 0.  1.
         11    1    5    5    0    0 -0.56113989815E+02  0.38472988095E+01  0.46741666765E+02  0.73132516524E+02  0.00000000000E+00 0.  1.
        -11    1    5    5    0    0 -0.10430422007E+03  0.97290714997E+02  0.29439918392E+03  0.32713259245E+03  0.00000000000E+00 0. -1.
          3    1    6    6  503    0 -0.13999488820E+03 -0.62090675872E+02 -0.22508789585E+03  0.27224691295E+03  0.00000000000E+00 0. -1.
         -3    1    6    6    0  503 -0.63654677326E+02 -0.69749387870E+02 -0.28093030879E+03  0.29637600012E+03  0.00000000000E+00 0.  1.
<mgrwt>
<rscale>  0 0.14003250E+04</rscale>
<asrwt>0</asrwt>
<pdfrwt beam="1">  1        2 0.73835063E-01 0.14003250E+04</pdfrwt>
<pdfrwt beam="2">  1       -2 0.15714781E+00 0.14003250E+04</pdfrwt>
<totfact> 0.16608625E+01</totfact>
</mgrwt>
</event>
<event>
12    2  0.3561489E-008  0.1831703E+04  0.7818608E-02  0.8689619E-01
         -2   -1    0    0    0  501 -0.00000000000E+00  0.00000000000E+00  0.28038016193E+03  0.28038016193E+03  0.00000000000E+00 0.  1.
          2   -1    0    0  501    0  0.00000000000E+00 -0.00000000000E+00 -0.29915967231E+04  0.29915967231E+04  0.00000000000E+00 0. -1.
         23    2    1    2    0    0 -0.40511993486E+03  0.50455358050E+03 -0.59437526714E+03  0.88310255803E+03  0.88835199047E+02 0.  0.
        254    2    1    2    0    0  0.40511993486E+03 -0.50455358050E+03 -0.21168412940E+04  0.23888743270E+04  0.89833568830E+03 0.  0.
         23    2    4    4    0    0  0.14587804324E+03 -0.61546620294E+02 -0.17300002061E+04  0.17396377404E+04  0.91489697089E+02 0.  0.
         23    2    4    4    0    0  0.25924189162E+03 -0.44300696021E+03 -0.38684108789E+03  0.64923658659E+03  0.91654748469E+02 0.  0.
          1    1    3    3  502    0  0.13442027305E+01  0.19591421294E+02 -0.11335457846E+02  0.22674286623E+02  0.00000000000E+00 0. -1.
         -1    1    3    3    0  502 -0.40646413759E+03  0.48496215921E+03 -0.58303980930E+03  0.86042827141E+03  0.00000000000E+00 0.  1.
         11    1    5    5    0    0  0.49393883949E+02  0.19603566674E+02 -0.36837601570E+03  0.37218939337E+03  0.00000000000E+00 0. -1.
        -11    1    5    5    0    0  0.96484159290E+02 -0.81150186969E+02 -0.13616241904E+04  0.13674483470E+04  0.00000000000E+00 0.  1.
          4    1    6    6  503    0  0.72024997777E+01 -0.14527879893E+02  0.42068114566E+01  0.16752091209E+02  0.00000000000E+00 0. -1.
         -4    1    6    6    0  503  0.25203939184E+03 -0.42847908031E+03 -0.39104789935E+03  0.63248449538E+03  0.00000000000E+00 0.  1.
<mgrwt>
<rscale>  0 0.18317034E+04</rscale>
<asrwt>0</asrwt>
<pdfrwt beam="1">  1        2 0.46024563E+00 0.18317034E+04</pdfrwt>
<pdfrwt beam="2">  1       -2 0.43135411E-01 0.18317034E+04</pdfrwt>
<totfact> 0.84868103E+00</totfact>
</mgrwt>
</event>
<event>
12    2  0.3561489E-008  0.1516592E+04  0.7818608E-02  0.8873494E-01
         -2   -1    0    0    0  501 -0.00000000000E+00  0.00000000000E+00  0.11240870810E+04  0.11240870810E+04  0.00000000000E+00 0.  1.
          2   -1    0    0  501    0  0.00000000000E+00 -0.00000000000E+00 -0.51153770057E+03  0.51153770057E+03  0.00000000000E+00 0. -1.
         23    2    1    2    0    0 -0.48589987944E+03  0.80482387848E+02  0.33470606706E+03  0.60207890207E+03  0.88852379770E+02 0.  0.
        254    2    1    2    0    0  0.48589987944E+03 -0.80482387848E+02  0.27784331336E+03  0.10335458795E+04  0.86512662117E+03 0.  0.
         23    2    4    4    0    0  0.46609227908E+03 -0.81880086246E+02  0.55851963134E+03  0.73763586959E+03  0.90642905820E+02 0.  0.
         23    2    4    4    0    0  0.19807600368E+02  0.13976983988E+01 -0.28067631799E+03  0.29591000991E+03  0.91592815719E+02 0.  0.
          1    1    3    3  502    0 -0.21735819162E+03  0.33687634986E+02  0.96952820035E+02  0.24037322964E+03  0.00000000000E+00 0. -1.
         -1    1    3    3    0  502 -0.26854168782E+03  0.46794752862E+02  0.23775324702E+03  0.36170567242E+03  0.00000000000E+00 0.  1.
         11    1    5    5    0    0  0.20704123538E+02 -0.16302815452E+02  0.62233681630E+02  0.67583087029E+02  0.00000000000E+00 0. -1.
        -11    1    5    5    0    0  0.44538815554E+03 -0.65577270795E+02  0.49628594971E+03  0.67005278256E+03  0.00000000000E+00 0.  1.
          1    1    6    6  503    0  0.16457538075E+02  0.30730355973E+02 -0.38485189489E+02  0.51926054613E+02  0.00000000000E+00 0. -1.
         -1    1    6    6    0  503  0.33500622931E+01 -0.29332657574E+02 -0.24219112850E+03  0.24398395529E+03  0.00000000000E+00 0.  1.
<mgrwt>
<rscale>  0 0.15165921E+04</rscale>
<asrwt>0</asrwt>
<pdfrwt beam="1">  1        2 0.78698108E-01 0.15165921E+04</pdfrwt>
<pdfrwt beam="2">  1       -2 0.17293647E+00 0.15165921E+04</pdfrwt>
<totfact> 0.11743121E+01</totfact>
</mgrwt>
</event>
<event>
12    2  0.3561489E-008  0.1763410E+04  0.7818608E-02  0.8726003E-01
         -1   -1    0    0    0  501 -0.00000000000E+00  0.00000000000E+00  0.62129613773E+03  0.62129613773E+03  0.00000000000E+00 0.  1.
          1   -1    0    0  501    0  0.00000000000E+00 -0.00000000000E+00 -0.12512610614E+04  0.12512610614E+04  0.00000000000E+00 0. -1.
         23    2    1    2    0    0 -0.20619459076E+03 -0.57378764437E+03  0.29393844608E+02  0.61708309048E+03  0.90438224048E+02 0.  0.
        254    2    1    2    0    0  0.20619459076E+03  0.57378764437E+03 -0.65935876828E+03  0.12554741087E+04  0.87733276589E+03 0.  0.
         23    2    4    4    0    0 -0.23016096854E+03  0.31806218579E+02 -0.46447543270E+03  0.52714096095E+03  0.90302038447E+02 0.  0.
         23    2    4    4    0    0  0.43635555931E+03  0.54198142579E+03 -0.19488333558E+03  0.72833314771E+03  0.91321517318E+02 0.  0.
          1    1    3    3  502    0 -0.65570383803E+02 -0.17703010559E+03 -0.32674928886E+02  0.19159014718E+03  0.00000000000E+00 0. -1.
         -1    1    3    3    0  502 -0.14062420696E+03 -0.39675753877E+03  0.62068773494E+02  0.42549294330E+03  0.00000000000E+00 0.  1.
         11    1    5    5    0    0 -0.19512415746E+03  0.60151320000E+02 -0.38345730517E+03  0.43443195441E+03  0.00000000000E+00 0.  1.
        -11    1    5    5    0    0 -0.35036811082E+02 -0.28345101421E+02 -0.81018127522E+02  0.92709006534E+02  0.00000000000E+00 0. -1.
          2    1    6    6  503    0  0.38783610143E+03  0.43910577727E+03 -0.14160101488E+03  0.60272844019E+03  0.00000000000E+00 0.  1.
         -2    1    6    6    0  503  0.48519457882E+02  0.10287564852E+03 -0.53282320697E+02  0.12560470752E+03  0.00000000000E+00 0. -1.
<mgrwt>
<rscale>  0 0.17634100E+04</rscale>
<asrwt>0</asrwt>
<pdfrwt beam="1">  1        1 0.19250170E+00 0.17634100E+04</pdfrwt>
<pdfrwt beam="2">  1       -1 0.95584021E-01 0.17634100E+04</pdfrwt>
<totfact> 0.98033760E+00</totfact>
</mgrwt>
</event>
<event>
12    2  0.3561489E-008  0.2746594E+04  0.7818608E-02  0.8320043E-01
         -1   -1    0    0    0  501 -0.00000000000E+00  0.00000000000E+00  0.12843393788E+04  0.12843393788E+04  0.00000000000E+00 0.  1.
          1   -1    0    0  501    0  0.00000000000E+00 -0.00000000000E+00 -0.14684164968E+04  0.14684164968E+04  0.00000000000E+00 0. -1.
         23    2    1    2    0    0  0.14688856533E+03  0.87687528705E+03 -0.92736304135E+03  0.12875507609E+04  0.85429688802E+02 0.  0.
        254    2    1    2    0    0 -0.14688856533E+03 -0.87687528705E+03  0.74328592338E+03  0.14652051147E+04  0.89658549212E+03 0.  0.
         23    2    4    4    0    0 -0.51032915678E+03 -0.61680490796E+03  0.49958159899E+03  0.94815034340E+03  0.92320944998E+02 0.  0.
         23    2    4    4    0    0  0.36344059145E+03 -0.26007037909E+03  0.24370432439E+03  0.51705477134E+03  0.90709278714E+02 0.  0.
          2    1    3    3  502    0  0.13435730089E+03  0.86467907406E+03 -0.91539474520E+03  0.12663606615E+04  0.00000000000E+00 0. -1.
         -2    1    3    3    0  502  0.12531264439E+02  0.12196212992E+02 -0.11968296142E+02  0.21190099394E+02  0.00000000000E+00 0.  1.
         11    1    5    5    0    0 -0.44669844856E+03 -0.57159632170E+03  0.47147679377E+03  0.86518912730E+03  0.00000000000E+00 0. -1.
        -11    1    5    5    0    0 -0.63630708218E+02 -0.45208586262E+02  0.28104805222E+02  0.82961216099E+02  0.00000000000E+00 0.  1.
          2    1    6    6  503    0  0.26122786299E+03 -0.16417027877E+03  0.20902371649E+03  0.37266981483E+03  0.00000000000E+00 0. -1.
         -2    1    6    6    0  503  0.10221272846E+03 -0.95900100325E+02  0.34680607905E+02  0.14438495651E+03  0.00000000000E+00 0.  1.
<mgrwt>
<rscale>  0 0.27465944E+04</rscale>
<asrwt>0</asrwt>
<pdfrwt beam="1">  1        1 0.22591023E+00 0.27465944E+04</pdfrwt>
<pdfrwt beam="2">  1       -1 0.19759067E+00 0.27465944E+04</pdfrwt>
<totfact> 0.93594889E-01</totfact>
</mgrwt>
</event>
<event>
12    2  0.3561489E-008  0.3220666E+04  0.7818608E-02  0.8183381E-01
          1   -1    0    0  501    0  0.00000000000E+00  0.00000000000E+00  0.25123604401E+04  0.25123604401E+04  0.00000000000E+00 0. -1.
         -1   -1    0    0    0  501 -0.00000000000E+00 -0.00000000000E+00 -0.10321655680E+04  0.10321655680E+04  0.00000000000E+00 0.  1.
         23    2    1    2    0    0  0.58615958966E+03 -0.79822866854E+03 -0.53111466505E+03  0.11274899000E+04  0.91643960165E+02 0.  0.
        254    2    1    2    0    0 -0.58615958966E+03  0.79822866854E+03  0.20113095372E+04  0.24170361081E+04  0.90329697293E+03 0.  0.
         23    2    4    4    0    0 -0.48693695246E+03  0.76511862269E+03  0.84648236730E+03  0.12439849237E+04  0.91934704334E+02 0.  0.
         23    2    4    4    0    0 -0.99222637197E+02  0.33110045846E+02  0.11648271699E+04  0.11730511843E+04  0.91023834146E+02 0.  0.
          2    1    3    3  502    0  0.25327100036E+03 -0.38153863632E+03 -0.19990351954E+03  0.49967924487E+03  0.00000000000E+00 0. -1.
         -2    1    3    3    0  502  0.33288858929E+03 -0.41669003222E+03 -0.33121114551E+03  0.62781065517E+03  0.00000000000E+00 0.  1.
         11    1    5    5    0    0 -0.33345123596E+02  0.81812984922E+02  0.54187563551E+02  0.10364146763E+03  0.00000000000E+00 0. -1.
        -11    1    5    5    0    0 -0.45359182886E+03  0.68330563777E+03  0.79229480375E+03  0.11403434561E+04  0.00000000000E+00 0.  1.
          1    1    6    6  503    0 -0.10758515342E+03  0.39889958072E+02  0.81276088670E+03  0.82082034145E+03  0.00000000000E+00 0. -1.
         -1    1    6    6    0  503  0.83625162232E+01 -0.67799122260E+01  0.35206628324E+03  0.35223084289E+03  0.00000000000E+00 0.  1.
<mgrwt>
<rscale>  0 0.32206657E+04</rscale>
<asrwt>0</asrwt>
<pdfrwt beam="1">  1        1 0.38651699E+00 0.32206657E+04</pdfrwt>
<pdfrwt beam="2">  1       -1 0.15879470E+00 0.32206657E+04</pdfrwt>
<totfact> 0.33098288E-01</totfact>
</mgrwt>
</event>
<event>
12    2  0.3561489E-008  0.2895931E+04  0.7818608E-02  0.8274089E-01
          2   -1    0    0  501    0  0.00000000000E+00  0.00000000000E+00  0.27044355627E+04  0.27044355627E+04  0.00000000000E+00 0. -1.
         -2   -1    0    0    0  501 -0.00000000000E+00 -0.00000000000E+00 -0.77524642345E+03  0.77524642345E+03  0.00000000000E+00 0.  1.
         23    2    1    2    0    0  0.68446591196E+03  0.83799911931E+03 -0.10156284655E+02  0.10859499473E+04  0.91913161800E+02 0.  0.
        254    2    1    2    0    0 -0.68446591196E+03 -0.83799911931E+03  0.19393454239E+04  0.23937320388E+04  0.89339593238E+03 0.  0.
         23    2    4    4    0    0 -0.33201533744E+03  0.56160923266E+02  0.94665206124E+03  0.10089720631E+04  0.92120928022E+02 0.  0.
         23    2    4    4    0    0 -0.35245057452E+03 -0.89416004257E+03  0.99269336262E+03  0.13847599758E+04  0.91523161311E+02 0.  0.
          2    1    3    3  502    0  0.35360351623E+03  0.36151142155E+03 -0.12569209865E+02  0.50584972041E+03  0.00000000000E+00 0. -1.
         -2    1    3    3    0  502  0.33086239573E+03  0.47648769776E+03  0.24129252107E+01  0.58010022688E+03  0.00000000000E+00 0.  1.
         11    1    5    5    0    0 -0.26101741532E+03  0.60284915446E+02  0.83190198625E+03  0.87397098170E+03  0.00000000000E+00 0. -1.
        -11    1    5    5    0    0 -0.70997922114E+02 -0.41239921798E+01  0.11475007499E+03  0.13500108135E+03  0.00000000000E+00 0.  1.
          4    1    6    6  503    0 -0.23020074338E+03 -0.50861486524E+03  0.52396408915E+03  0.76564993967E+03  0.00000000000E+00 0. -1.
         -4    1    6    6    0  503 -0.12224983114E+03 -0.38554517734E+03  0.46872927347E+03  0.61911003609E+03  0.00000000000E+00 0.  1.
<mgrwt>
<rscale>  0 0.28959309E+04</rscale>
<asrwt>0</asrwt>
<pdfrwt beam="1">  1        2 0.41606700E+00 0.28959309E+04</pdfrwt>
<pdfrwt beam="2">  1       -2 0.11926868E+00 0.28959309E+04</pdfrwt>
<totfact> 0.12280984E+00</totfact>
</mgrwt>
</event>
<event>
12    2  0.3561489E-008  0.2709829E+04  0.7818608E-02  0.8331823E-01
          2   -1    0    0  501    0  0.00000000000E+00  0.00000000000E+00  0.25113047388E+04  0.25113047388E+04  0.00000000000E+00 0.  1.
         -2   -1    0    0    0  501 -0.00000000000E+00 -0.00000000000E+00 -0.73101170864E+03  0.73101170864E+03  0.00000000000E+00 0. -1.
         23    2    1    2    0    0 -0.47895902163E+03  0.85510990999E+03 -0.53859036700E+02  0.98639522785E+03  0.97262773643E+02 0.  0.
        254    2    1    2    0    0  0.47895902163E+03 -0.85510990999E+03  0.18341520669E+04  0.22559212196E+04  0.87432948142E+03 0.  0.
         23    2    4    4    0    0  0.28350619303E+03 -0.98870224621E+03  0.16331060356E+04  0.19320435209E+04  0.88594299253E+02 0.  0.
         23    2    4    4    0    0  0.19545282860E+03  0.13359233622E+03  0.20104603127E+03  0.32387769873E+03  0.91807061487E+02 0.  0.
          1    1    3    3  502    0 -0.76493538186E+02  0.12544167732E+03 -0.42750855771E+02  0.15301801025E+03  0.00000000000E+00 0. -1.
         -1    1    3    3    0  502 -0.40246548344E+03  0.72966823267E+03 -0.11108180929E+02  0.83337721760E+03  0.00000000000E+00 0.  1.
         11    1    5    5    0    0  0.13729065759E+03 -0.56749138446E+03  0.85719036269E+03  0.10371453678E+04  0.00000000000E+00 0.  1.
        -11    1    5    5    0    0  0.14621553543E+03 -0.42121086175E+03  0.77591567294E+03  0.89489815307E+03  0.00000000000E+00 0. -1.
          3    1    6    6  503    0  0.15798593743E+03  0.10171288146E+03  0.20035799055E+03  0.27467870514E+03  0.00000000000E+00 0. -1.
         -3    1    6    6    0  503  0.37466891171E+02  0.31879454765E+02  0.68804071981E+00  0.49198993589E+02  0.00000000000E+00 0.  1.
<mgrwt>
<rscale>  0 0.27098289E+04</rscale>
<asrwt>0</asrwt>
<pdfrwt beam="1">  1        2 0.38635457E+00 0.27098289E+04</pdfrwt>
<pdfrwt beam="2">  1       -2 0.11246334E+00 0.27098289E+04</pdfrwt>
<totfact> 0.18709610E+00</totfact>
</mgrwt>
</event>
<event>
12    2  0.3561489E-008  0.1528626E+04  0.7818608E-02  0.8865637E-01
         -1   -1    0    0    0  501 -0.00000000000E+00  0.00000000000E+00  0.22700371694E+03  0.22700371694E+03  0.00000000000E+00 0.  1.
          1   -1    0    0  501    0  0.00000000000E+00 -0.00000000000E+00 -0.25734146133E+04  0.25734146133E+04  0.00000000000E+00 0. -1.
         23    2    1    2    0    0  0.70188949081E+02 -0.43634076268E+03 -0.35777069898E+03  0.57564335297E+03  0.89697530731E+02 0.  0.
        254    2    1    2    0    0 -0.70188949081E+02  0.43634076268E+03 -0.19886401974E+04  0.22247749773E+04  0.89421144877E+03 0.  0.
         23    2    4    4    0    0 -0.45115953078E+03  0.28607663498E+03 -0.82207516236E+03  0.98510225712E+03  0.96094334476E+02 0.  0.
         23    2    4    4    0    0  0.38097058170E+03  0.15026412770E+03 -0.11665650350E+04  0.12396727201E+04  0.90534965415E+02 0.  0.
          1    1    3    3  502    0  0.21021759935E+02 -0.46301964735E+02 -0.78070225396E+02  0.93170523356E+02  0.00000000000E+00 0. -1.
         -1    1    3    3    0  502  0.49167189146E+02 -0.39003879795E+03 -0.27970047358E+03  0.48247282961E+03  0.00000000000E+00 0.  1.
         11    1    5    5    0    0 -0.41211187680E+02  0.23121597849E+02 -0.32331738237E+02  0.57256541762E+02  0.00000000000E+00 0.  1.
        -11    1    5    5    0    0 -0.40994834310E+03  0.26295503713E+03 -0.78974342412E+03  0.92784571536E+03  0.00000000000E+00 0. -1.
          1    1    6    6  503    0  0.36994414115E+03  0.13260475718E+03 -0.10473421187E+04  0.11186457003E+04  0.00000000000E+00 0. -1.
         -1    1    6    6    0  503  0.11026440550E+02  0.17659370529E+02 -0.11922291630E+03  0.12102701983E+03  0.00000000000E+00 0.  1.
<mgrwt>
<rscale>  0 0.15286264E+04</rscale>
<asrwt>0</asrwt>
<pdfrwt beam="1">  1        1 0.39590995E+00 0.15286264E+04</pdfrwt>
<pdfrwt beam="2">  1       -1 0.34923648E-01 0.15286264E+04</pdfrwt>
<totfact> 0.90801422E+00</totfact>
</mgrwt>
</event>
<event>
12    2  0.3561489E-008  0.3051639E+04  0.7818608E-02  0.8229137E-01
         -2   -1    0    0    0  501 -0.00000000000E+00  0.00000000000E+00  0.19039008911E+04  0.19039008911E+04  0.00000000000E+00 0.  1.
          2   -1    0    0  501    0  0.00000000000E+00 -0.00000000000E+00 -0.12228184949E+04  0.12228184949E+04  0.00000000000E+00 0. -1.
         23    2    1    2    0    0  0.86492981117E+03 -0.10501340268E+04 -0.14324204150E+02  0.13635744992E+04  0.90802970363E+02 0.  0.
        254    2    1    2    0    0 -0.86492981117E+03  0.10501340268E+04  0.69540660034E+03  0.17631448868E+04  0.87988891313E+03 0.  0.
         23    2    4    4    0    0 -0.17132995186E+03  0.85037072578E+03  0.51732199212E+03  0.10139558438E+04  0.89443200132E+02 0.  0.
         23    2    4    4    0    0 -0.69359985931E+03  0.19976330105E+03  0.17808460822E+03  0.74918904294E+03  0.92649625513E+02 0.  0.
          1    1    3    3  502    0  0.58210656069E+03 -0.77013488835E+03 -0.12537562211E+01  0.96537938975E+03  0.00000000000E+00 0. -1.
         -1    1    3    3    0  502  0.28282325048E+03 -0.27999913847E+03 -0.13070447929E+02  0.39819510942E+03  0.00000000000E+00 0.  1.
         11    1    5    5    0    0 -0.71721548763E+01  0.23049120042E+03  0.14663934049E+03  0.27327775149E+03  0.00000000000E+00 0.  1.
        -11    1    5    5    0    0 -0.16415779698E+03  0.61987952535E+03  0.37068265163E+03  0.74067809235E+03  0.00000000000E+00 0. -1.
          3    1    6    6  503    0 -0.12382930786E+03 -0.16201462096E+00  0.26761616056E+02  0.12668823082E+03  0.00000000000E+00 0. -1.
         -3    1    6    6    0  503 -0.56977055144E+03  0.19992531567E+03  0.15132299217E+03  0.62250081212E+03  0.00000000000E+00 0.  1.
<mgrwt>
<rscale>  0 0.30516390E+04</rscale>
<asrwt>0</asrwt>
<pdfrwt beam="1">  1        2 0.18812592E+00 0.30516390E+04</pdfrwt>
<pdfrwt beam="2">  1       -2 0.29290783E+00 0.30516390E+04</pdfrwt>
<totfact> 0.54952251E-01</totfact>
</mgrwt>
</event>
<event>
12    2  0.3561489E-008  0.3453518E+04  0.7818608E-02  0.8124895E-01
         -1   -1    0    0    0  501 -0.00000000000E+00  0.00000000000E+00  0.19388162389E+04  0.19388162389E+04  0.00000000000E+00 0.  1.
          1   -1    0    0  501    0  0.00000000000E+00 -0.00000000000E+00 -0.15378955907E+04  0.15378955907E+04  0.00000000000E+00 0. -1.
         23    2    1    2    0    0  0.13072675913E+04  0.77111887459E+03 -0.36134029260E+03  0.15627761302E+04  0.90164029408E+02 0.  0.
        254    2    1    2    0    0 -0.13072675913E+04 -0.77111887459E+03  0.76226094086E+03  0.19139356994E+04  0.88234644296E+03 0.  0.
         23    2    4    4    0    0 -0.13628097470E+04 -0.48609170388E+03  0.60136733731E+03  0.15695237306E+04  0.90700140627E+02 0.  0.
         23    2    4    4    0    0  0.55542155755E+02 -0.28502717072E+03  0.16089360355E+03  0.34441196872E+03  0.91692057580E+02 0.  0.
          4    1    3    3  502    0  0.89114852438E+03  0.52030963187E+03 -0.20245982871E+03  0.10515977310E+04  0.00000000000E+00 0. -1.
         -4    1    3    3    0  502  0.41611906687E+03  0.25080924272E+03 -0.15888046390E+03  0.51117839925E+03  0.00000000000E+00 0.  1.
         11    1    5    5    0    0 -0.12377311848E+04 -0.43034739089E+03  0.51718114680E+03  0.14087773781E+04  0.00000000000E+00 0.  1.
        -11    1    5    5    0    0 -0.12507856225E+03 -0.55744312983E+02  0.84186190507E+02  0.16074635248E+03  0.00000000000E+00 0. -1.
          3    1    6    6  503    0  0.42990356765E+02 -0.39964916219E+02  0.23889444792E+02  0.63372477272E+02  0.00000000000E+00 0. -1.
         -3    1    6    6    0  503  0.12551798990E+02 -0.24506225450E+03  0.13700415876E+03  0.28103949145E+03  0.00000000000E+00 0.  1.
<mgrwt>
<rscale>  0 0.34535182E+04</rscale>
<asrwt>0</asrwt>
<pdfrwt beam="1">  1        1 0.23659932E+00 0.34535182E+04</pdfrwt>
<pdfrwt beam="2">  1       -1 0.29827942E+00 0.34535182E+04</pdfrwt>
<totfact> 0.17087667E-01</totfact>
</mgrwt>
</event>
<event>
12    2  0.3561489E-008  0.1724758E+04  0.7818608E-02  0.8747368E-01
          2   -1    0    0  501    0  0.00000000000E+00  0.00000000000E+00  0.72563028855E+03  0.72563028855E+03  0.00000000000E+00 0. -1.
         -2   -1    0    0    0  501 -0.00000000000E+00 -0.00000000000E+00 -0.10248992340E+04  0.10248992340E+04  0.00000000000E+00 0.  1.
         23    2    1    2    0    0  0.31835597607E+03  0.43665817363E+03  0.20136603734E+03  0.58301338588E+03  0.85647177577E+02 0.  0.
        254    2    1    2    0    0 -0.31835597607E+03 -0.43665817363E+03 -0.50063498277E+03  0.11675161366E+04  0.90578013627E+03 0.  0.
         23    2    4    4    0    0 -0.10591661529E+03  0.16383726171E+03  0.14299309812E+03  0.25742025051E+03  0.88074863280E+02 0.  0.
         23    2    4    4    0    0 -0.21243936077E+03 -0.60049543534E+03 -0.64362808089E+03  0.91009588614E+03  0.91061328721E+02 0.  0.
          4    1    3    3  502    0  0.27718529777E+03  0.34016264724E+03  0.13593331744E+03  0.45936933144E+03  0.00000000000E+00 0.  1.
         -4    1    3    3    0  502  0.41170678297E+02  0.96495526387E+02  0.65432719909E+02  0.12364405444E+03  0.00000000000E+00 0. -1.
         11    1    5    5    0    0 -0.82530049355E+02  0.78980870359E+02  0.12159429584E+03  0.16683632611E+03  0.00000000000E+00 0.  1.
        -11    1    5    5    0    0 -0.23386565939E+02  0.84856391353E+02  0.21398802271E+02  0.90583924393E+02  0.00000000000E+00 0. -1.
          4    1    6    6  503    0  0.67873440759E+01 -0.56755749322E+02 -0.58708915771E+02  0.81939123206E+02  0.00000000000E+00 0. -1.
         -4    1    6    6    0  503 -0.21922670485E+03 -0.54373968602E+03 -0.58491916512E+03  0.82815676293E+03  0.00000000000E+00 0.  1.
<mgrwt>
<rscale>  0 0.17247584E+04</rscale>
<asrwt>0</asrwt>
<pdfrwt beam="1">  1        2 0.11163543E+00 0.17247584E+04</pdfrwt>
<pdfrwt beam="2">  1       -2 0.15767680E+00 0.17247584E+04</pdfrwt>
<totfact> 0.97360943E+00</totfact>
</mgrwt>
</event>
<event>
12    2  0.3561489E-008  0.1454555E+04  0.7818608E-02  0.8915249E-01
          2   -1    0    0  501    0  0.00000000000E+00  0.00000000000E+00  0.91105778783E+03  0.91105778783E+03  0.00000000000E+00 0. -1.
         -2   -1    0    0    0  501 -0.00000000000E+00 -0.00000000000E+00 -0.58056971967E+03  0.58056971967E+03  0.00000000000E+00 0.  1.
         23    2    1    2    0    0  0.91039924055E+02 -0.10700145283E+03  0.53965562956E+03  0.56525349869E+03  0.92443174872E+02 0.  0.
        254    2    1    2    0    0 -0.91039924055E+02  0.10700145283E+03 -0.20916756140E+03  0.92637400881E+03  0.89144834779E+03 0.  0.
         23    2    4    4    0    0  0.24652435648E+03 -0.18840974937E+03  0.13758575889E+03  0.35149515143E+03  0.91359227416E+02 0.  0.
         23    2    4    4    0    0 -0.33756428054E+03  0.29541120220E+03 -0.34675332029E+03  0.57487885738E+03  0.95028488638E+02 0.  0.
          1    1    3    3  502    0  0.35884188458E+01 -0.65248116706E+02  0.29399267976E+03  0.30116754346E+03  0.00000000000E+00 0. -1.
         -1    1    3    3    0  502  0.87451505210E+02 -0.41753336125E+02  0.24566294980E+03  0.26408595523E+03  0.00000000000E+00 0.  1.
         11    1    5    5    0    0  0.15458584895E+03 -0.11712618591E+03  0.13280994765E+03  0.23506129055E+03  0.00000000000E+00 0.  1.
        -11    1    5    5    0    0  0.91938507526E+02 -0.71283563463E+02  0.47758112439E+01  0.11643386088E+03  0.00000000000E+00 0. -1.
          2    1    6    6  503    0 -0.74759700920E+02  0.76998442427E+02 -0.36580351618E+02  0.11338383986E+03  0.00000000000E+00 0. -1.
         -2    1    6    6    0  503 -0.26280457962E+03  0.21841275977E+03 -0.31017296867E+03  0.46149501752E+03  0.00000000000E+00 0.  1.
<mgrwt>
<rscale>  0 0.14545550E+04</rscale>
<asrwt>0</asrwt>
<pdfrwt beam="1">  1        2 0.14016274E+00 0.14545550E+04</pdfrwt>
<pdfrwt beam="2">  1       -2 0.89318418E-01 0.14545550E+04</pdfrwt>
<totfact> 0.30059468E+01</totfact>
</mgrwt>
</event>
<event>
12    2  0.3561489E-008  0.1585583E+04  0.7818608E-02  0.8829454E-01
          1   -1    0    0  501    0  0.00000000000E+00  0.00000000000E+00  0.75863859941E+03  0.75863859941E+03  0.00000000000E+00 0. -1.
         -1   -1    0    0    0  501 -0.00000000000E+00 -0.00000000000E+00 -0.82848176895E+03  0.82848176895E+03  0.00000000000E+00 0.  1.
         23    2    1    2    0    0 -0.32551362578E+03 -0.26797678792E+03 -0.32985584481E+03  0.54329955941E+03  0.92730003082E+02 0.  0.
        254    2    1    2    0    0  0.32551362578E+03  0.26797678792E+03  0.26001267526E+03  0.10438208089E+04  0.91879519506E+03 0.  0.
         23    2    4    4    0    0  0.25644935816E+03 -0.15785231659E+03  0.46231944795E+03  0.55879706843E+03  0.88494432490E+02 0.  0.
         23    2    4    4    0    0  0.69064267622E+02  0.42582910450E+03 -0.20230677269E+03  0.48502374052E+03  0.90662557244E+02 0.  0.
          2    1    3    3  502    0  0.23518550659E+01  0.23549503240E+00 -0.15813628503E+02  0.15989294124E+02  0.00000000000E+00 0. -1.
         -2    1    3    3    0  502 -0.32786548085E+03 -0.26821228295E+03 -0.31404221630E+03  0.52731026529E+03  0.00000000000E+00 0.  1.
         11    1    5    5    0    0  0.22508635116E+03 -0.97976527977E+02  0.37819156881E+03  0.45087928344E+03  0.00000000000E+00 0.  1.
        -11    1    5    5    0    0  0.31363007002E+02 -0.59875788608E+02  0.84127879137E+02  0.10791778499E+03  0.00000000000E+00 0. -1.
          4    1    6    6  503    0 -0.19666587730E+02  0.12419702752E+03 -0.69920351489E+02  0.14387679406E+03  0.00000000000E+00 0. -1.
         -4    1    6    6    0  503  0.88730855352E+02  0.30163207698E+03 -0.13238642120E+03  0.34114694645E+03  0.00000000000E+00 0.  1.
<mgrwt>
<rscale>  0 0.15855829E+04</rscale>
<asrwt>0</asrwt>
<pdfrwt beam="1">  1        1 0.11671363E+00 0.15855829E+04</pdfrwt>
<pdfrwt beam="2">  1       -1 0.12745873E+00 0.15855829E+04</pdfrwt>
<totfact> 0.12321169E+01</totfact>
</mgrwt>
</event>
<event>
12    2  0.3561489E-008  0.3785986E+04  0.7818608E-02  0.8049169E-01
          2   -1    0    0  501    0  0.00000000000E+00  0.00000000000E+00  0.14215001277E+04  0.14215001277E+04  0.00000000000E+00 0. -1.
         -2   -1    0    0    0  501 -0.00000000000E+00 -0.00000000000E+00 -0.25208734273E+04  0.25208734273E+04  0.00000000000E+00 0.  1.
         23    2    1    2    0    0 -0.10202619506E+04  0.79345736742E+03 -0.17973071177E+04  0.22156827299E+04  0.91804373059E+02 0.  0.
        254    2    1    2    0    0  0.10202619506E+04 -0.79345736742E+03  0.69793381813E+03  0.17266908251E+04  0.90765662515E+03 0.  0.
         23    2    4    4    0    0  0.57672561582E+03 -0.93466271152E+03  0.53926859069E+03  0.12269263082E+04  0.91272846442E+02 0.  0.
         23    2    4    4    0    0  0.44353633473E+03  0.14120534410E+03  0.15866522744E+03  0.49976451690E+03  0.89030829036E+02 0.  0.
          4    1    3    3  502    0 -0.87121310200E+03  0.64647580741E+03 -0.15449345511E+04  0.18877939522E+04  0.00000000000E+00 0.  1.
         -4    1    3    3    0  502 -0.14904884856E+03  0.14698156001E+03 -0.25237256658E+03  0.32788877779E+03  0.00000000000E+00 0. -1.
         11    1    5    5    0    0  0.23870203755E+03 -0.33327385838E+03  0.23914287890E+03  0.47459397799E+03  0.00000000000E+00 0. -1.
        -11    1    5    5    0    0  0.33802357827E+03 -0.60138885314E+03  0.30012571178E+03  0.75233233017E+03  0.00000000000E+00 0.  1.
          1    1    6    6  503    0  0.21188877788E+03  0.69018545260E+02  0.29202060577E+02  0.22475136067E+03  0.00000000000E+00 0. -1.
         -1    1    6    6    0  503  0.23164755685E+03  0.72186798842E+02  0.12946316686E+03  0.27501315623E+03  0.00000000000E+00 0.  1.
<mgrwt>
<rscale>  0 0.37859857E+04</rscale>
<asrwt>0</asrwt>
<pdfrwt beam="1">  1        2 0.21869233E+00 0.37859857E+04</pdfrwt>
<pdfrwt beam="2">  1       -2 0.38782668E+00 0.37859857E+04</pdfrwt>
<totfact> 0.10054464E-01</totfact>
</mgrwt>
</event>
<event>
12    2  0.3561489E-008  0.2176399E+04  0.7818608E-02  0.8528316E-01
          1   -1    0    0  501    0  0.00000000000E+00  0.00000000000E+00  0.56578156106E+03  0.56578156106E+03  0.00000000000E+00 0. -1.
         -1   -1    0    0    0  501 -0.00000000000E+00 -0.00000000000E+00 -0.20929954520E+04  0.20929954520E+04  0.00000000000E+00 0.  1.
         23    2    1    2    0    0  0.43090263376E+03  0.21324435886E+03 -0.15689878470E+04  0.16436464586E+04  0.93276902543E+02 0.  0.
        254    2    1    2    0    0 -0.43090263376E+03 -0.21324435886E+03  0.41773956086E+02  0.10151305544E+04  0.89308159913E+03 0.  0.
         23    2    4    4    0    0 -0.55860134883E+03 -0.31785437445E+03  0.28409641880E+03  0.70855229871E+03  0.90932472507E+02 0.  0.
         23    2    4    4    0    0  0.12769871507E+03  0.10461001559E+03 -0.24232246272E+03  0.30657825570E+03  0.89553524419E+02 0.  0.
          3    1    3    3  502    0  0.19106684943E+02  0.19960445899E+02 -0.41473425794E+02  0.49835026408E+02  0.00000000000E+00 0. -1.
         -3    1    3    3    0  502  0.41179594882E+03  0.19328391297E+03 -0.15275144212E+04  0.15938114322E+04  0.00000000000E+00 0.  1.
         11    1    5    5    0    0 -0.30581392681E+03 -0.12179999328E+03  0.14112986141E+03  0.35815504181E+03  0.00000000000E+00 0.  1.
        -11    1    5    5    0    0 -0.25278742202E+03 -0.19605438117E+03  0.14296655740E+03  0.35039725690E+03  0.00000000000E+00 0. -1.
          3    1    6    6  503    0  0.12888278523E+03  0.11752505113E+03 -0.21990733279E+03  0.28068157223E+03  0.00000000000E+00 0. -1.
         -3    1    6    6    0  503 -0.11840701569E+01 -0.12915035542E+02 -0.22415129925E+02  0.25896683470E+02  0.00000000000E+00 0.  1.
<mgrwt>
<rscale>  0 0.21763991E+04</rscale>
<asrwt>0</asrwt>
<pdfrwt beam="1">  1        1 0.87043319E-01 0.21763991E+04</pdfrwt>
<pdfrwt beam="2">  1       -1 0.32199929E+00 0.21763991E+04</pdfrwt>
<totfact> 0.80908681E-01</totfact>
</mgrwt>
</event>
<event>
12    2  0.3561489E-008  0.1386844E+04  0.7818608E-02  0.8963397E-01
          2   -1    0    0  501    0  0.00000000000E+00  0.00000000000E+00  0.99961237314E+03  0.99961237314E+03  0.00000000000E+00 0. -1.
         -2   -1    0    0    0  501 -0.00000000000E+00 -0.00000000000E+00 -0.48102056793E+03  0.48102056793E+03  0.00000000000E+00 0.  1.
         23    2    1    2    0    0 -0.16535959369E+03 -0.16326010474E+03  0.50893803538E+03  0.56668615850E+03  0.90097843210E+02 0.  0.
        254    2    1    2    0    0  0.16535959369E+03  0.16326010474E+03  0.96537698266E+01  0.91394678257E+03  0.88385964331E+03 0.  0.
         23    2    4    4    0    0  0.38765621351E+03  0.30190402260E+03 -0.22726608750E+03  0.54914705396E+03  0.92137037151E+02 0.  0.
         23    2    4    4    0    0 -0.22229661982E+03 -0.13864391785E+03  0.23691985732E+03  0.36479972862E+03  0.91158653262E+02 0.  0.
          1    1    3    3  502    0 -0.14761487703E+03 -0.14149571946E+03  0.49450368027E+03  0.53511221286E+03  0.00000000000E+00 0. -1.
         -1    1    3    3    0  502 -0.17744716656E+02 -0.21764385280E+02  0.14434355107E+02  0.31573945639E+02  0.00000000000E+00 0.  1.
         11    1    5    5    0    0  0.34211830076E+03  0.23880871752E+03 -0.21812341631E+03  0.47079970265E+03  0.00000000000E+00 0. -1.
        -11    1    5    5    0    0  0.45537912751E+02  0.63095305077E+02 -0.91426711919E+01  0.78347351308E+02  0.00000000000E+00 0.  1.
          1    1    6    6  503    0 -0.17595497862E+03 -0.10715843029E+03  0.12863212572E+03  0.24287714477E+03  0.00000000000E+00 0. -1.
         -1    1    6    6    0  503 -0.46341641194E+02 -0.31485487561E+02  0.10828773161E+03  0.12192258385E+03  0.00000000000E+00 0.  1.
<mgrwt>
<rscale>  0 0.13868441E+04</rscale>
<asrwt>0</asrwt>
<pdfrwt beam="1">  1        2 0.15378652E+00 0.13868441E+04</pdfrwt>
<pdfrwt beam="2">  1       -2 0.74003165E-01 0.13868441E+04</pdfrwt>
<totfact> 0.40397269E+01</totfact>
</mgrwt>
</event>
<event>
12    2  0.3561489E-008  0.3036982E+04  0.7818608E-02  0.8233249E-01
          2   -1    0    0  501    0  0.00000000000E+00  0.00000000000E+00  0.28524793690E+04  0.28524793690E+04  0.00000000000E+00 0.  1.
         -2   -1    0    0    0  501 -0.00000000000E+00 -0.00000000000E+00 -0.80835440704E+03  0.80835440704E+03  0.00000000000E+00 0. -1.
         23    2    1    2    0    0  0.13245902231E+03 -0.12039701416E+04  0.12901669073E+03  0.12214645412E+04  0.90778987394E+02 0.  0.
        254    2    1    2    0    0 -0.13245902231E+03  0.12039701416E+04  0.19151082712E+04  0.24393692348E+04  0.90321264310E+03 0.  0.
         23    2    4    4    0    0 -0.63574064579E+02  0.35397054039E+03  0.13784742717E+04  0.14276352694E+04  0.92813466759E+02 0.  0.
         23    2    4    4    0    0 -0.68884957734E+02  0.84999960122E+03  0.53663399954E+03  0.10117339654E+04  0.91570234130E+02 0.  0.
          3    1    3    3  502    0  0.13611715011E+03 -0.11497744988E+04  0.10659602150E+03  0.11627003004E+04  0.00000000000E+00 0. -1.
         -3    1    3    3    0  502 -0.36581277917E+01 -0.54195642806E+02  0.22420669238E+02  0.58764240889E+02  0.00000000000E+00 0.  1.
         11    1    5    5    0    0 -0.78319477617E+01  0.15121218834E+03  0.74305760575E+03  0.75832781221E+03  0.00000000000E+00 0. -1.
        -11    1    5    5    0    0 -0.55742116818E+02  0.20275835205E+03  0.63541666591E+03  0.66930745718E+03  0.00000000000E+00 0.  1.
          3    1    6    6  503    0 -0.74991107034E+02  0.53445702172E+03  0.37468598096E+03  0.65700651331E+03  0.00000000000E+00 0. -1.
         -3    1    6    6    0  503  0.61061493003E+01  0.31554257950E+03  0.16194801858E+03  0.35472745208E+03  0.00000000000E+00 0.  1.
<mgrwt>
<rscale>  0 0.30369816E+04</rscale>
<asrwt>0</asrwt>
<pdfrwt beam="1">  1        2 0.43884297E+00 0.30369816E+04</pdfrwt>
<pdfrwt beam="2">  1       -2 0.12436222E+00 0.30369816E+04</pdfrwt>
<totfact> 0.89010184E-01</totfact>
</mgrwt>
</event>
<event>
12    2  0.3561489E-008  0.2411519E+04  0.7818608E-02  0.8435204E-01
          2   -1    0    0  501    0  0.00000000000E+00  0.00000000000E+00  0.94162488935E+03  0.94162488935E+03  0.00000000000E+00 0. -1.
         -2   -1    0    0    0  501 -0.00000000000E+00 -0.00000000000E+00 -0.15439862389E+04  0.15439862389E+04  0.00000000000E+00 0.  1.
         23    2    1    2    0    0  0.60581608265E+03  0.83766000129E+03 -0.45671971651E+03  0.11337144871E+04  0.89600418409E+02 0.  0.
        254    2    1    2    0    0 -0.60581608265E+03 -0.83766000129E+03 -0.14564163305E+03  0.13518966412E+04  0.85890956417E+03 0.  0.
         23    2    4    4    0    0 -0.28206953008E+03 -0.41935435875E+03  0.34992224069E+03  0.62133546178E+03  0.90503500105E+02 0.  0.
         23    2    4    4    0    0 -0.32374655257E+03 -0.41830564254E+03 -0.49556387375E+03  0.73056117941E+03  0.91349017613E+02 0.  0.
          2    1    3    3  502    0  0.54092864675E+03  0.78714586919E+03 -0.41272909785E+03  0.10404555389E+04  0.00000000000E+00 0. -1.
         -2    1    3    3    0  502  0.64887435894E+02  0.50514132097E+02 -0.43990618663E+02  0.93258948143E+02  0.00000000000E+00 0.  1.
         11    1    5    5    0    0 -0.21687473720E+03 -0.29523332356E+03  0.29655843504E+03  0.47132183523E+03  0.00000000000E+00 0.  1.
        -11    1    5    5    0    0 -0.65194792875E+02 -0.12412103520E+03  0.53363805657E+02  0.15001362655E+03  0.00000000000E+00 0. -1.
          1    1    6    6  503    0 -0.19454185723E+03 -0.17741312284E+03 -0.23487800370E+03  0.35283087590E+03  0.00000000000E+00 0. -1.
         -1    1    6    6    0  503 -0.12920469534E+03 -0.24089251970E+03 -0.26068587005E+03  0.37773030351E+03  0.00000000000E+00 0.  1.
<mgrwt>
<rscale>  0 0.24115189E+04</rscale>
<asrwt>0</asrwt>
<pdfrwt beam="1">  1        2 0.14486537E+00 0.24115189E+04</pdfrwt>
<pdfrwt beam="2">  1       -2 0.23753634E+00 0.24115189E+04</pdfrwt>
<totfact> 0.18951358E+00</totfact>
</mgrwt>
</event>
<event>
12    2  0.3561489E-008  0.1549960E+04  0.7818608E-02  0.8851893E-01
          1   -1    0    0  501    0  0.00000000000E+00  0.00000000000E+00  0.72487137569E+03  0.72487137569E+03  0.00000000000E+00 0. -1.
         -1   -1    0    0    0  501 -0.00000000000E+00 -0.00000000000E+00 -0.82855290512E+03  0.82855290512E+03  0.00000000000E+00 0.  1.
         23    2    1    2    0    0  0.31675801228E+03  0.15499981467E+03  0.29416208877E+03  0.46841616827E+03  0.92313549052E+02 0.  0.
        254    2    1    2    0    0 -0.31675801228E+03 -0.15499981467E+03 -0.39784361819E+03  0.10850081125E+04  0.94583427663E+03 0.  0.
         23    2    4    4    0    0  0.59950068945E+02  0.30557445988E+03 -0.35680391542E+03  0.48180898851E+03  0.88662878671E+02 0.  0.
         23    2    4    4    0    0 -0.37670808123E+03 -0.46057427455E+03 -0.41039702770E+02  0.60319912403E+03  0.90151456928E+02 0.  0.
          2    1    3    3  502    0  0.11456320668E+03  0.96376813413E+02  0.15819147777E+03  0.21780211690E+03  0.00000000000E+00 0. -1.
         -2    1    3    3    0  502  0.20219480560E+03  0.58623001260E+02  0.13597061100E+03  0.25061405137E+03  0.00000000000E+00 0.  1.
         11    1    5    5    0    0 -0.18512493270E+02  0.10972122506E+03 -0.10154560958E+03  0.15064186158E+03  0.00000000000E+00 0.  1.
        -11    1    5    5    0    0  0.78462562215E+02  0.19585323482E+03 -0.25525830585E+03  0.33116712693E+03  0.00000000000E+00 0. -1.
          4    1    6    6  503    0 -0.12789006624E+03 -0.17858829780E+03  0.26040447900E+02  0.22119618912E+03  0.00000000000E+00 0.  1.
         -4    1    6    6    0  503 -0.24881801499E+03 -0.28198597675E+03 -0.67080150670E+02  0.38200293491E+03  0.00000000000E+00 0. -1.
<mgrwt>
<rscale>  0 0.15499604E+04</rscale>
<asrwt>0</asrwt>
<pdfrwt beam="1">  1        1 0.11151867E+00 0.15499604E+04</pdfrwt>
<pdfrwt beam="2">  1       -1 0.12746968E+00 0.15499604E+04</pdfrwt>
<totfact> 0.13261967E+01</totfact>
</mgrwt>
</event>
<event>
12    2  0.3561489E-008  0.1241220E+04  0.7818608E-02  0.9077523E-01
          1   -1    0    0  501    0  0.00000000000E+00  0.00000000000E+00  0.13963987358E+04  0.13963987358E+04  0.00000000000E+00 0. -1.
         -1   -1    0    0    0  501 -0.00000000000E+00 -0.00000000000E+00 -0.27582137455E+03  0.27582137455E+03  0.00000000000E+00 0.  1.
         23    2    1    2    0    0  0.81377012921E+00 -0.11940184004E+03 -0.79609738221E+02  0.16967991226E+03  0.90532317872E+02 0.  0.
        254    2    1    2    0    0 -0.81377012921E+00  0.11940184004E+03  0.12001870995E+04  0.15025401981E+04  0.89605831927E+03 0.  0.
         23    2    4    4    0    0  0.34932922173E+03 -0.14883696641E+03  0.28950506684E+03  0.48660876741E+03  0.93763324748E+02 0.  0.
         23    2    4    4    0    0 -0.35014299186E+03  0.26823880644E+03  0.91068203265E+03  0.10159314307E+04  0.90679298969E+02 0.  0.
          3    1    3    3  502    0 -0.91278347323E+01 -0.51257792450E+02  0.13579874311E+02  0.53806055794E+02  0.00000000000E+00 0. -1.
         -3    1    3    3    0  502  0.99416048615E+01 -0.68144047586E+02 -0.93189612532E+02  0.11587385647E+03  0.00000000000E+00 0.  1.
         11    1    5    5    0    0  0.11827582295E+03 -0.53154648223E+01  0.74394323092E+02  0.13982825097E+03  0.00000000000E+00 0. -1.
        -11    1    5    5    0    0  0.23105339878E+03 -0.14352150158E+03  0.21511074375E+03  0.34678051644E+03  0.00000000000E+00 0.  1.
          2    1    6    6  503    0 -0.17135580485E+03  0.11804441341E+03  0.52947368462E+03  0.56889338026E+03  0.00000000000E+00 0. -1.
         -2    1    6    6    0  503 -0.17878718701E+03  0.15019439303E+03  0.38120834802E+03  0.44703805044E+03  0.00000000000E+00 0.  1.
<mgrwt>
<rscale>  0 0.12412198E+04</rscale>
<asrwt>0</asrwt>
<pdfrwt beam="1">  1        1 0.21483057E+00 0.12412198E+04</pdfrwt>
<pdfrwt beam="2">  1       -1 0.42434059E-01 0.12412198E+04</pdfrwt>
<totfact> 0.41645224E+01</totfact>
</mgrwt>
</event>
<event>
12    2  0.3561489E-008  0.1852111E+04  0.7818608E-02  0.8679068E-01
          2   -1    0    0  501    0  0.00000000000E+00  0.00000000000E+00  0.39744868708E+04  0.39744868708E+04  0.00000000000E+00 0. -1.
         -2   -1    0    0    0  501 -0.00000000000E+00 -0.00000000000E+00 -0.21577093354E+03  0.21577093354E+03  0.00000000000E+00 0.  1.
         23    2    1    2    0    0  0.21224018055E+02  0.88179202648E+02 -0.13791922073E+03  0.18847689995E+03  0.90971422136E+02 0.  0.
        254    2    1    2    0    0 -0.21224018055E+02 -0.88179202648E+02  0.38966351580E+04  0.40017809044E+04  0.90678488164E+03 0.  0.
         23    2    4    4    0    0  0.42778915245E+03 -0.11584062708E+03  0.19678458006E+04  0.20191836917E+04  0.90901463948E+02 0.  0.
         23    2    4    4    0    0 -0.44901317050E+03  0.27661424430E+02  0.19287893574E+04  0.19825972127E+04  0.89918523236E+02 0.  0.
          1    1    3    3  502    0 -0.19118228764E+02 -0.18480576904E+01 -0.59286453047E+02  0.62320185360E+02  0.00000000000E+00 0. -1.
         -1    1    3    3    0  502  0.40342246819E+02  0.90027260338E+02 -0.78632767679E+02  0.12615671459E+03  0.00000000000E+00 0.  1.
         11    1    5    5    0    0  0.37505670854E+03 -0.68312592661E+02  0.16804126158E+04  0.17231136655E+04  0.00000000000E+00 0. -1.
        -11    1    5    5    0    0  0.52732443912E+02 -0.47528034417E+02  0.28743318477E+03  0.29607002618E+03  0.00000000000E+00 0.  1.
          3    1    6    6  503    0 -0.38689094276E+03  0.25956448182E+01  0.17330555403E+04  0.17757175577E+04  0.00000000000E+00 0. -1.
         -3    1    6    6    0  503 -0.62122227745E+02  0.25065779612E+02  0.19573381705E+03  0.20687965493E+03  0.00000000000E+00 0.  1.
<mgrwt>
<rscale>  0 0.18521109E+04</rscale>
<asrwt>0</asrwt>
<pdfrwt beam="1">  1        2 0.61145946E+00 0.18521109E+04</pdfrwt>
<pdfrwt beam="2">  1       -2 0.33195531E-01 0.18521109E+04</pdfrwt>
<totfact> 0.28957672E+00</totfact>
</mgrwt>
</event>
<event>
12    2  0.3561489E-008  0.2364846E+04  0.7818608E-02  0.8452783E-01
         -2   -1    0    0    0  501 -0.00000000000E+00  0.00000000000E+00  0.14828909831E+04  0.14828909831E+04  0.00000000000E+00 0.  1.
          2   -1    0    0  501    0  0.00000000000E+00 -0.00000000000E+00 -0.94283712375E+03  0.94283712375E+03  0.00000000000E+00 0. -1.
         23    2    1    2    0    0 -0.70726044003E+03  0.43822588595E+03  0.80923704781E+03  0.11642605025E+04  0.91535025419E+02 0.  0.
        254    2    1    2    0    0  0.70726044003E+03 -0.43822588595E+03 -0.26918318851E+03  0.12614676044E+04  0.90916537039E+03 0.  0.
         23    2    4    4    0    0  0.35169148299E+03  0.41131420889E+02  0.26815798194E+03  0.45330513518E+03  0.90543632058E+02 0.  0.
         23    2    4    4    0    0  0.35556895703E+03 -0.47935730684E+03 -0.53734117045E+03  0.80816246918E+03  0.90434132371E+02 0.  0.
          3    1    3    3  502    0 -0.76140799366E+01  0.18671353672E+02  0.29675144672E+02  0.35877679308E+02  0.00000000000E+00 0. -1.
         -3    1    3    3    0  502 -0.69964636009E+03  0.41955453228E+03  0.77956190314E+03  0.11283828231E+04  0.00000000000E+00 0.  1.
         11    1    5    5    0    0  0.11036014383E+03 -0.22282891688E+02  0.55832952646E+02  0.12567102773E+03  0.00000000000E+00 0.  1.
        -11    1    5    5    0    0  0.24133133916E+03  0.63414312576E+02  0.21232502929E+03  0.32763410745E+03  0.00000000000E+00 0. -1.
          2    1    6    6  503    0  0.22330128589E+03 -0.24162925804E+03 -0.25668611266E+03  0.41729596578E+03  0.00000000000E+00 0. -1.
         -2    1    6    6    0  503  0.13226767114E+03 -0.23772804880E+03 -0.28065505779E+03  0.39086650340E+03  0.00000000000E+00 0.  1.
<mgrwt>
<rscale>  0 0.23648464E+04</rscale>
<asrwt>0</asrwt>
<pdfrwt beam="1">  1        2 0.14505187E+00 0.23648464E+04</pdfrwt>
<pdfrwt beam="2">  1       -2 0.22813707E+00 0.23648464E+04</pdfrwt>
<totfact> 0.21735002E+00</totfact>
</mgrwt>
</event>
<event>
12    2  0.3561489E-008  0.1456536E+04  0.7818608E-02  0.8913882E-01
          2   -1    0    0  501    0  0.00000000000E+00  0.00000000000E+00  0.28104853508E+04  0.28104853508E+04  0.00000000000E+00 0.  1.
         -2   -1    0    0    0  501 -0.00000000000E+00 -0.00000000000E+00 -0.18871268633E+03  0.18871268633E+03  0.00000000000E+00 0. -1.
         23    2    1    2    0    0  0.11645056079E+03  0.37292287985E+03  0.11774416034E+04  0.12438778222E+04  0.90725409366E+02 0.  0.
        254    2    1    2    0    0 -0.11645056079E+03 -0.37292287985E+03  0.14443310611E+04  0.17553202149E+04  0.91783693284E+03 0.  0.
         23    2    4    4    0    0 -0.47453558998E+03 -0.19608777253E+03  0.11079860634E+04  0.12247503814E+04  0.93519727817E+02 0.  0.
         23    2    4    4    0    0  0.35808502919E+03 -0.17683510732E+03  0.33634499772E+03  0.53056983345E+03  0.94238247876E+02 0.  0.
          2    1    3    3  502    0 -0.10221141846E+02  0.49675791223E+02  0.20965667014E+03  0.21570367477E+03  0.00000000000E+00 0. -1.
         -2    1    3    3    0  502  0.12667170263E+03  0.32324708862E+03  0.96778493321E+03  0.10281741475E+04  0.00000000000E+00 0.  1.
         11    1    5    5    0    0 -0.30662960888E+03 -0.15396343934E+03  0.64731214086E+03  0.73262505103E+03  0.00000000000E+00 0. -1.
        -11    1    5    5    0    0 -0.16790598109E+03 -0.42124333188E+02  0.46067392250E+03  0.49212533038E+03  0.00000000000E+00 0.  1.
          3    1    6    6  503    0  0.23654994984E+02 -0.11652740931E+02  0.62512220147E+02  0.67846317709E+02  0.00000000000E+00 0. -1.
         -3    1    6    6    0  503  0.33443003420E+03 -0.16518236639E+03  0.27383277757E+03  0.46272351574E+03  0.00000000000E+00 0.  1.
<mgrwt>
<rscale>  0 0.14565359E+04</rscale>
<asrwt>0</asrwt>
<pdfrwt beam="1">  1        2 0.43238233E+00 0.14565359E+04</pdfrwt>
<pdfrwt beam="2">  1       -2 0.29032723E-01 0.14565359E+04</pdfrwt>
<totfact> 0.24221013E+01</totfact>
</mgrwt>
</event>
<event>
12    2  0.3561489E-008  0.2036392E+04  0.7818608E-02  0.8589793E-01
         -2   -1    0    0    0  501 -0.00000000000E+00  0.00000000000E+00  0.46516631924E+03  0.46516631924E+03  0.00000000000E+00 0.  1.
          2   -1    0    0  501    0  0.00000000000E+00 -0.00000000000E+00 -0.22287138737E+04  0.22287138737E+04  0.00000000000E+00 0. -1.
         23    2    1    2    0    0 -0.12373887929E+02 -0.31980320249E+03  0.28187055764E+03  0.43644137216E+03  0.92751596436E+02 0.  0.
        254    2    1    2    0    0  0.12373887929E+02  0.31980320249E+03 -0.20454181121E+04  0.22574388208E+04  0.89992642746E+03 0.  0.
         23    2    4    4    0    0 -0.13402584620E+03  0.89634556583E+02  0.56367723707E+01  0.18631083353E+03  0.93180858037E+02 0.  0.
         23    2    4    4    0    0  0.14639973413E+03  0.23016864591E+03 -0.20510548845E+04  0.20711279872E+04  0.91293552611E+02 0.  0.
          3    1    3    3  502    0  0.41690045359E+01 -0.46418980687E+01 -0.64495026512E+01  0.89735110714E+01  0.00000000000E+00 0. -1.
         -3    1    3    3    0  502 -0.16542892465E+02 -0.31516130442E+03  0.28832006029E+03  0.42746786109E+03  0.00000000000E+00 0.  1.
         11    1    5    5    0    0 -0.24395614657E+02 -0.10280163006E+02  0.25378740054E+02  0.36672990233E+02  0.00000000000E+00 0. -1.
        -11    1    5    5    0    0 -0.10963023154E+03  0.99914719588E+02 -0.19741967683E+02  0.14963784330E+03  0.00000000000E+00 0.  1.
          3    1    6    6  503    0  0.79453288058E+02  0.19161279478E+03 -0.16171195495E+04  0.16303692605E+04  0.00000000000E+00 0. -1.
         -3    1    6    6    0  503  0.66946446073E+02  0.38555851132E+02 -0.43393533495E+03  0.44075872676E+03  0.00000000000E+00 0.  1.
<mgrwt>
<rscale>  0 0.20363915E+04</rscale>
<asrwt>0</asrwt>
<pdfrwt beam="1">  1        2 0.34287906E+00 0.20363915E+04</pdfrwt>
<pdfrwt beam="2">  1       -2 0.71564048E-01 0.20363915E+04</pdfrwt>
<totfact> 0.81618256E+00</totfact>
</mgrwt>
</event>
<event>
12    2  0.3561489E-008  0.2074578E+04  0.7818608E-02  0.8572525E-01
         -1   -1    0    0    0  501 -0.00000000000E+00  0.00000000000E+00  0.42300191908E+03  0.42300191908E+03  0.00000000000E+00 0.  1.
          1   -1    0    0  501    0  0.00000000000E+00 -0.00000000000E+00 -0.25436496484E+04  0.25436496484E+04  0.00000000000E+00 0. -1.
         23    2    1    2    0    0 -0.35455035666E+03  0.19940024414E+02  0.22299909453E+03  0.42889242586E+03  0.90091935386E+02 0.  0.
        254    2    1    2    0    0  0.35455035666E+03 -0.19940024414E+02 -0.23436468238E+04  0.25377591416E+04  0.90633187406E+03 0.  0.
         23    2    4    4    0    0  0.19610205595E+03 -0.24366648179E+03 -0.21841378492E+04  0.22080253698E+04  0.84193343508E+02 0.  0.
         23    2    4    4    0    0  0.15844830071E+03  0.22372645738E+03 -0.15950897468E+03  0.32973377176E+03  0.90121337680E+02 0.  0.
          2    1    3    3  502    0  0.52976831610E+01 -0.47442153092E+00  0.55123096297E+00  0.53473711520E+01  0.00000000000E+00 0. -1.
         -2    1    3    3    0  502 -0.35984803982E+03  0.20414445945E+02  0.22244786357E+03  0.42354505471E+03  0.00000000000E+00 0.  1.
         11    1    5    5    0    0  0.13401695342E+03 -0.17522726588E+03 -0.17705953072E+04  0.17842849773E+04  0.00000000000E+00 0.  1.
        -11    1    5    5    0    0  0.62085102530E+02 -0.68439215912E+02 -0.41354254197E+03  0.42374039252E+03  0.00000000000E+00 0. -1.
          3    1    6    6  503    0  0.10370813394E+02  0.12017930201E+02 -0.43918318529E+02  0.46699069789E+02  0.00000000000E+00 0. -1.
         -3    1    6    6    0  503  0.14807748732E+03  0.21170852717E+03 -0.11559065615E+03  0.28303470197E+03  0.00000000000E+00 0.  1.
<mgrwt>
<rscale>  0 0.20745782E+04</rscale>
<asrwt>0</asrwt>
<pdfrwt beam="1">  1        1 0.39133072E+00 0.20745782E+04</pdfrwt>
<pdfrwt beam="2">  1       -1 0.65077218E-01 0.20745782E+04</pdfrwt>
<totfact> 0.27884518E+00</totfact>
</mgrwt>
</event>
<event>
12    2  0.3561489E-008  0.2068718E+04  0.7818608E-02  0.8575150E-01
         -1   -1    0    0    0  501 -0.00000000000E+00  0.00000000000E+00  0.67082996934E+03  0.67082996934E+03  0.00000000000E+00 0.  1.
          1   -1    0    0  501    0  0.00000000000E+00 -0.00000000000E+00 -0.15948872561E+04  0.15948872561E+04  0.00000000000E+00 0. -1.
         23    2    1    2    0    0 -0.24193712948E+03  0.22238948964E+03 -0.12184467564E+04  0.12655778651E+04  0.95310936858E+02 0.  0.
        254    2    1    2    0    0  0.24193712948E+03 -0.22238948964E+03  0.29438946968E+03  0.10001393603E+04  0.89756499513E+03 0.  0.
         23    2    4    4    0    0  0.87879336947E+02 -0.55783308851E+03  0.14486789772E+03  0.59132689022E+03  0.98895150571E+02 0.  0.
         23    2    4    4    0    0  0.15405779253E+03  0.33544359887E+03  0.14952157196E+03  0.40881247011E+03  0.92275260857E+02 0.  0.
          1    1    3    3  502    0 -0.24206558742E+03  0.19243198225E+03 -0.10540967328E+04  0.10985197943E+04  0.00000000000E+00 0. -1.
         -1    1    3    3    0  502  0.12845794050E+00  0.29957507390E+02 -0.16435002368E+03  0.16705807084E+03  0.00000000000E+00 0.  1.
         11    1    5    5    0    0  0.72651568872E+02 -0.16715851023E+03  0.41719353734E+02  0.18697786628E+03  0.00000000000E+00 0. -1.
        -11    1    5    5    0    0  0.15227768074E+02 -0.39067457828E+03  0.10314854399E+03  0.40434902394E+03  0.00000000000E+00 0.  1.
          4    1    6    6  503    0  0.50659642161E+02  0.21462121669E+03  0.10100516236E+03  0.24255042532E+03  0.00000000000E+00 0. -1.
         -4    1    6    6    0  503  0.10339815037E+03  0.12082238218E+03  0.48516409604E+02  0.16626204479E+03  0.00000000000E+00 0.  1.
<mgrwt>
<rscale>  0 0.20687176E+04</rscale>
<asrwt>0</asrwt>
<pdfrwt beam="1">  1        1 0.24536727E+00 0.20687176E+04</pdfrwt>
<pdfrwt beam="2">  1       -1 0.10320461E+00 0.20687176E+04</pdfrwt>
<totfact> 0.45970522E+00</totfact>
</mgrwt>
</event>
<event>
12    2  0.3561489E-008  0.1821255E+04  0.7818608E-02  0.8695077E-01
         -1   -1    0    0    0  501 -0.00000000000E+00  0.00000000000E+00  0.75712291649E+03  0.75712291649E+03  0.00000000000E+00 0.  1.
          1   -1    0    0  501    0  0.00000000000E+00 -0.00000000000E+00 -0.10952549454E+04  0.10952549454E+04  0.00000000000E+00 0. -1.
         23    2    1    2    0    0  0.34340829343E+03 -0.58163138730E+03 -0.18999137776E+02  0.68148058930E+03  0.88490110529E+02 0.  0.
        254    2    1    2    0    0 -0.34340829343E+03  0.58163138730E+03 -0.31913289113E+03  0.11708972726E+04  0.90162647148E+03 0.  0.
         23    2    4    4    0    0 -0.49170289727E+03  0.47011198221E+03  0.10890266492E+03  0.69528211967E+03  0.93703898020E+02 0.  0.
         23    2    4    4    0    0  0.14829460384E+03  0.11151940510E+03 -0.42803555605E+03  0.47561515292E+03  0.92560624484E+02 0.  0.
          1    1    3    3  502    0  0.35673268275E+02 -0.47446862176E+02  0.22777692329E+02  0.63581523005E+02  0.00000000000E+00 0. -1.
         -1    1    3    3    0  502  0.30773502515E+03 -0.53418452513E+03 -0.41776830105E+02  0.61789906629E+03  0.00000000000E+00 0.  1.
         11    1    5    5    0    0 -0.18925163447E+03  0.22330671020E+03  0.11489941561E+02  0.29294041498E+03  0.00000000000E+00 0.  1.
        -11    1    5    5    0    0 -0.30245126280E+03  0.24680527200E+03  0.97412723364E+02  0.40234170469E+03  0.00000000000E+00 0. -1.
          4    1    6    6  503    0  0.57381280180E+02  0.80028194409E+02 -0.29804562925E+03  0.31389221132E+03  0.00000000000E+00 0. -1.
         -4    1    6    6    0  503  0.90913323658E+02  0.31491210686E+02 -0.12998992680E+03  0.16172294160E+03  0.00000000000E+00 0.  1.
<mgrwt>
<rscale>  0 0.18212552E+04</rscale>
<asrwt>0</asrwt>
<pdfrwt beam="1">  1        1 0.16850076E+00 0.18212552E+04</pdfrwt>
<pdfrwt beam="2">  1       -1 0.11648045E+00 0.18212552E+04</pdfrwt>
<totfact> 0.80154432E+00</totfact>
</mgrwt>
</event>
<event>
12    2  0.3561489E-008  0.2011493E+04  0.7818608E-02  0.8601266E-01
          1   -1    0    0  501    0  0.00000000000E+00  0.00000000000E+00  0.73630234025E+03  0.73630234025E+03  0.00000000000E+00 0. -1.
         -1   -1    0    0    0  501 -0.00000000000E+00 -0.00000000000E+00 -0.13737912243E+04  0.13737912243E+04  0.00000000000E+00 0.  1.
         23    2    1    2    0    0  0.43931174654E+03  0.14546886244E+03  0.43003614146E+03  0.63705516535E+03  0.82171772230E+02 0.  0.
        254    2    1    2    0    0 -0.43931174654E+03 -0.14546886244E+03 -0.10675250255E+04  0.14730383992E+04  0.90336949519E+03 0.  0.
         23    2    4    4    0    0 -0.52679530007E+03 -0.11094197073E+03 -0.17868011574E+03  0.57475039963E+03  0.92682409678E+02 0.  0.
         23    2    4    4    0    0  0.87483553533E+02 -0.34526891710E+02 -0.88884490976E+03  0.89828799956E+03  0.89613493243E+02 0.  0.
          4    1    3    3  502    0  0.26332833828E+03  0.12669737070E+03  0.28570721002E+03  0.40868404341E+03  0.00000000000E+00 0. -1.
         -4    1    3    3    0  502  0.17598340826E+03  0.18771491747E+02  0.14432893144E+03  0.22837112194E+03  0.00000000000E+00 0.  1.
         11    1    5    5    0    0 -0.25123790274E+03 -0.90053288045E+02 -0.11803724820E+03  0.29182678154E+03  0.00000000000E+00 0.  1.
        -11    1    5    5    0    0 -0.27555739733E+03 -0.20888682689E+02 -0.60642867539E+02  0.28292361809E+03  0.00000000000E+00 0. -1.
          2    1    6    6  503    0  0.80171982515E+02 -0.62061490737E+02 -0.70209733945E+03  0.70937990490E+03  0.00000000000E+00 0. -1.
         -2    1    6    6    0  503  0.73115710183E+01  0.27534599027E+02 -0.18674757030E+03  0.18890809466E+03  0.00000000000E+00 0.  1.
<mgrwt>
<rscale>  0 0.20114927E+04</rscale>
<asrwt>0</asrwt>
<pdfrwt beam="1">  1        1 0.11327728E+00 0.20114927E+04</pdfrwt>
<pdfrwt beam="2">  1       -1 0.21135249E+00 0.20114927E+04</pdfrwt>
<totfact> 0.29398250E+00</totfact>
</mgrwt>
</event>
<event>
12    2  0.3561489E-008  0.1430490E+04  0.7818608E-02  0.8932039E-01
          2   -1    0    0  501    0  0.00000000000E+00  0.00000000000E+00  0.11860351096E+04  0.11860351096E+04  0.00000000000E+00 0. -1.
         -2   -1    0    0    0  501 -0.00000000000E+00 -0.00000000000E+00 -0.43133242039E+03  0.43133242039E+03  0.00000000000E+00 0.  1.
         23    2    1    2    0    0 -0.10468965444E+03 -0.35687424614E+03  0.46186465526E+03  0.59984409417E+03  0.90414745643E+02 0.  0.
        254    2    1    2    0    0  0.10468965444E+03  0.35687424614E+03  0.29283803390E+03  0.10175234358E+04  0.90071120618E+03 0.  0.
         23    2    4    4    0    0  0.22683586408E+03  0.62209748145E+03  0.21009545191E+03  0.70062733737E+03  0.90987808467E+02 0.  0.
         23    2    4    4    0    0 -0.12214620964E+03 -0.26522323531E+03  0.82742581985E+02  0.31689609840E+03  0.91179719387E+02 0.  0.
          1    1    3    3  502    0 -0.11198698610E+03 -0.34077740009E+03  0.40854728572E+03  0.54367380490E+03  0.00000000000E+00 0. -1.
         -1    1    3    3    0  502  0.72973316531E+01 -0.16096846048E+02  0.53317369541E+02  0.56170289270E+02  0.00000000000E+00 0.  1.
         11    1    5    5    0    0  0.52656500427E+02  0.18675335915E+03  0.21488793675E+02  0.19522113728E+03  0.00000000000E+00 0. -1.
        -11    1    5    5    0    0  0.17417936365E+03  0.43534412231E+03  0.18860665824E+03  0.50540620008E+03  0.00000000000E+00 0.  1.
          1    1    6    6  503    0 -0.25635138593E+02 -0.33977112595E+01  0.66339176099E-01  0.25859411698E+02  0.00000000000E+00 0. -1.
         -1    1    6    6    0  503 -0.96511071045E+02 -0.26182552405E+03  0.82676242809E+02  0.29103668670E+03  0.00000000000E+00 0.  1.
<mgrwt>
<rscale>  0 0.14304900E+04</rscale>
<asrwt>0</asrwt>
<pdfrwt beam="1">  1        2 0.18246694E+00 0.14304900E+04</pdfrwt>
<pdfrwt beam="2">  1       -2 0.66358834E-01 0.14304900E+04</pdfrwt>
<totfact> 0.39155858E+01</totfact>
</mgrwt>
</event>
<event>
12    2  0.3561489E-008  0.1305020E+04  0.7818608E-02  0.9025594E-01
         -2   -1    0    0    0  501 -0.00000000000E+00  0.00000000000E+00  0.10688392399E+04  0.10688392399E+04  0.00000000000E+00 0.  1.
          2   -1    0    0  501    0  0.00000000000E+00 -0.00000000000E+00 -0.39834712120E+03  0.39834712120E+03  0.00000000000E+00 0. -1.
         23    2    1    2    0    0 -0.26984534728E+03  0.37504164239E+02  0.40445488704E+03  0.49647056568E+03  0.93146084981E+02 0.  0.
        254    2    1    2    0    0  0.26984534728E+03 -0.37504164239E+02  0.26603723165E+03  0.97071579541E+03  0.89291112270E+03 0.  0.
         23    2    4    4    0    0  0.56628974456E+03 -0.11884070715E+03  0.57441035998E+02  0.58860581645E+03  0.91379133680E+02 0.  0.
         23    2    4    4    0    0 -0.29644439728E+03  0.81336542914E+02  0.20859619565E+03  0.38210997896E+03  0.89446907635E+02 0.  0.
          2    1    3    3  502    0 -0.25657778082E+02 -0.19351677301E+02  0.21228305741E+02  0.38515580680E+02  0.00000000000E+00 0. -1.
         -2    1    3    3    0  502 -0.24418756920E+03  0.56855841540E+02  0.38322658130E+03  0.45795498500E+03  0.00000000000E+00 0.  1.
         11    1    5    5    0    0  0.36741374760E+03 -0.12107946803E+03  0.34029654953E+02  0.38834407028E+03  0.00000000000E+00 0. -1.
        -11    1    5    5    0    0  0.19887599696E+03  0.22387608805E+01  0.23411381045E+02  0.20026174617E+03  0.00000000000E+00 0.  1.
          3    1    6    6  503    0 -0.29550537428E+03  0.82260657290E+02  0.21563329707E+03  0.37495061111E+03  0.00000000000E+00 0. -1.
         -3    1    6    6    0  503 -0.93902300676E+00 -0.92411437641E+00 -0.70371014218E+01  0.71593678498E+01  0.00000000000E+00 0.  1.
<mgrwt>
<rscale>  0 0.13050196E+04</rscale>
<asrwt>0</asrwt>
<pdfrwt beam="1">  1        2 0.61284173E-01 0.13050196E+04</pdfrwt>
<pdfrwt beam="2">  1       -2 0.16443681E+00 0.13050196E+04</pdfrwt>
<totfact> 0.18273569E+01</totfact>
</mgrwt>
</event>
<event>
12    2  0.3561489E-008  0.2793086E+04  0.7818608E-02  0.8305418E-01
         -1   -1    0    0    0  501 -0.00000000000E+00  0.00000000000E+00  0.19903254887E+04  0.19903254887E+04  0.00000000000E+00 0.  1.
          1   -1    0    0  501    0  0.00000000000E+00 -0.00000000000E+00 -0.97990650918E+03  0.97990650918E+03  0.00000000000E+00 0. -1.
         23    2    1    2    0    0 -0.96624117228E+03  0.55535358645E+03 -0.14744689519E+03  0.11279689570E+04  0.92378417451E+02 0.  0.
        254    2    1    2    0    0  0.96624117228E+03 -0.55535358645E+03  0.11578658747E+04  0.18422630409E+04  0.90068869155E+03 0.  0.
         23    2    4    4    0    0  0.12948481121E+03  0.22463486685E+03  0.31707802863E+03  0.41978823638E+03  0.91959487946E+02 0.  0.
         23    2    4    4    0    0  0.83675636108E+03 -0.77998845330E+03  0.84078784610E+03  0.14224748045E+04  0.89259018197E+02 0.  0.
          3    1    3    3  502    0 -0.77085610835E+03  0.42195777469E+03 -0.82586187509E+02  0.88265960697E+03  0.00000000000E+00 0. -1.
         -3    1    3    3    0  502 -0.19538506393E+03  0.13339581176E+03 -0.64860707678E+02  0.24530935001E+03  0.00000000000E+00 0.  1.
         11    1    5    5    0    0  0.39303067604E+01  0.43621179928E+02  0.15798602542E+02  0.46560181398E+02  0.00000000000E+00 0.  1.
        -11    1    5    5    0    0  0.12555450445E+03  0.18101368692E+03  0.30127942609E+03  0.37322805498E+03  0.00000000000E+00 0. -1.
          3    1    6    6  503    0  0.59396368675E+03 -0.49813274509E+03  0.58012759454E+03  0.96823402071E+03  0.00000000000E+00 0. -1.
         -3    1    6    6    0  503  0.24279267433E+03 -0.28185570821E+03  0.26066025157E+03  0.45424078384E+03  0.00000000000E+00 0.  1.
<mgrwt>
<rscale>  0 0.27930864E+04</rscale>
<asrwt>0</asrwt>
<pdfrwt beam="1">  1        1 0.15075485E+00 0.27930864E+04</pdfrwt>
<pdfrwt beam="2">  1       -1 0.30620392E+00 0.27930864E+04</pdfrwt>
<totfact> 0.40910656E-01</totfact>
</mgrwt>
</event>
<event>
12    2  0.3561489E-008  0.1490809E+04  0.7818608E-02  0.8890588E-01
          2   -1    0    0  501    0  0.00000000000E+00  0.00000000000E+00  0.19310299185E+04  0.19310299185E+04  0.00000000000E+00 0. -1.
         -2   -1    0    0    0  501 -0.00000000000E+00 -0.00000000000E+00 -0.28773647959E+03  0.28773647959E+03  0.00000000000E+00 0.  1.
         23    2    1    2    0    0  0.25824469185E+03  0.16860528541E+03  0.49604281145E+01  0.32182617325E+03  0.91811855489E+02 0.  0.
        254    2    1    2    0    0 -0.25824469185E+03 -0.16860528541E+03  0.16383330108E+04  0.18969402248E+04  0.90505751156E+03 0.  0.
         23    2    4    4    0    0 -0.74954233445E+02  0.22850124785E+02  0.16101509463E+04  0.16147024418E+04  0.92399352908E+02 0.  0.
         23    2    4    4    0    0 -0.18329045840E+03 -0.19145541020E+03  0.28182064517E+02  0.28223778305E+03  0.92808249562E+02 0.  0.
          4    1    3    3  502    0  0.23116473648E+01  0.29116197181E+02 -0.72471953705E+01  0.30093495851E+02  0.00000000000E+00 0. -1.
         -4    1    3    3    0  502  0.25593304448E+03  0.13948908823E+03  0.12207623485E+02  0.29173267740E+03  0.00000000000E+00 0.  1.
         11    1    5    5    0    0 -0.60859967242E+02 -0.43686348909E+01  0.14687783761E+04  0.14700452165E+04  0.00000000000E+00 0. -1.
        -11    1    5    5    0    0 -0.14094266203E+02  0.27218759676E+02  0.14137257017E+03  0.14465722525E+03  0.00000000000E+00 0.  1.
          3    1    6    6  503    0 -0.18581044891E+03 -0.19670980921E+03  0.35469111860E+02  0.27290718177E+03  0.00000000000E+00 0. -1.
         -3    1    6    6    0  503  0.25199905140E+01  0.52543990182E+01 -0.72870473427E+01  0.93306012780E+01  0.00000000000E+00 0.  1.
<mgrwt>
<rscale>  0 0.14908088E+04</rscale>
<asrwt>0</asrwt>
<pdfrwt beam="1">  1        2 0.29708152E+00 0.14908088E+04</pdfrwt>
<pdfrwt beam="2">  1       -2 0.44267152E-01 0.14908088E+04</pdfrwt>
<totfact> 0.34155849E+01</totfact>
</mgrwt>
</event>
<event>
12    2  0.3561489E-008  0.2418393E+04  0.7818608E-02  0.8432650E-01
          2   -1    0    0  501    0  0.00000000000E+00  0.00000000000E+00  0.25717146248E+04  0.25717146248E+04  0.00000000000E+00 0. -1.
         -2   -1    0    0    0  501 -0.00000000000E+00 -0.00000000000E+00 -0.56855293753E+03  0.56855293753E+03  0.00000000000E+00 0.  1.
         23    2    1    2    0    0  0.14497191587E+03 -0.47637241628E+03  0.20511903710E+04  0.21126738383E+04  0.89784594621E+02 0.  0.
        254    2    1    2    0    0 -0.14497191587E+03  0.47637241628E+03 -0.48028683740E+02  0.10275937240E+04  0.89760490855E+03 0.  0.
         23    2    4    4    0    0 -0.18526918990E+03  0.64309187229E+02 -0.41324773685E+03  0.46780308263E+03  0.98008610964E+02 0.  0.
         23    2    4    4    0    0  0.40297274032E+02  0.41206322905E+03  0.36521905311E+03  0.55979064141E+03  0.92523674945E+02 0.  0.
          4    1    3    3  502    0  0.91726891695E+02 -0.28774224195E+03  0.14196192011E+04  0.14513883342E+04  0.00000000000E+00 0. -1.
         -4    1    3    3    0  502  0.53245024173E+02 -0.18863017433E+03  0.63157116993E+03  0.66128550411E+03  0.00000000000E+00 0.  1.
         11    1    5    5    0    0 -0.62062167619E+01 -0.20272739811E+02 -0.40778893747E+02  0.45961062664E+02  0.00000000000E+00 0.  1.
        -11    1    5    5    0    0 -0.17906297314E+03  0.84581927041E+02 -0.37246884310E+03  0.42184201997E+03  0.00000000000E+00 0. -1.
          3    1    6    6  503    0  0.59699743418E+02  0.37420459573E+03  0.30703028817E+03  0.48770968484E+03  0.00000000000E+00 0. -1.
         -3    1    6    6    0  503 -0.19402469386E+02  0.37858633320E+02  0.58188764942E+02  0.72080956574E+02  0.00000000000E+00 0.  1.
<mgrwt>
<rscale>  0 0.24183928E+04</rscale>
<asrwt>0</asrwt>
<pdfrwt beam="1">  1        2 0.39564840E+00 0.24183928E+04</pdfrwt>
<pdfrwt beam="2">  1       -2 0.87469684E-01 0.24183928E+04</pdfrwt>
<totfact> 0.32033905E+00</totfact>
</mgrwt>
</event>
<event>
12    2  0.3561489E-008  0.1829680E+04  0.7818608E-02  0.8690673E-01
         -1   -1    0    0    0  501 -0.00000000000E+00  0.00000000000E+00  0.65602667551E+03  0.65602667551E+03  0.00000000000E+00 0.  1.
          1   -1    0    0  501    0  0.00000000000E+00 -0.00000000000E+00 -0.12757598881E+04  0.12757598881E+04  0.00000000000E+00 0. -1.
         23    2    1    2    0    0 -0.44289005076E+03 -0.52532551881E+03 -0.24474917960E+03  0.73497079919E+03  0.90340561112E+02 0.  0.
        254    2    1    2    0    0  0.44289005076E+03  0.52532551881E+03 -0.37498403296E+03  0.11968157644E+04  0.90533775528E+03 0.  0.
         23    2    4    4    0    0  0.54953145262E+03  0.57995250291E+03 -0.54356271516E+03  0.97076205811E+03  0.92675914356E+02 0.  0.
         23    2    4    4    0    0 -0.10664140187E+03 -0.54626984101E+02  0.16857868220E+03  0.22605370627E+03  0.91241492990E+02 0.  0.
          2    1    3    3  502    0 -0.41253209969E+03 -0.46446022371E+03 -0.19639749969E+03  0.65151976990E+03  0.00000000000E+00 0.  1.
         -2    1    3    3    0  502 -0.30357951061E+02 -0.60865295097E+02 -0.48351679906E+02  0.83451029290E+02  0.00000000000E+00 0. -1.
         11    1    5    5    0    0  0.13079684506E+03  0.16930476156E+03 -0.18870026604E+03  0.28527128732E+03  0.00000000000E+00 0. -1.
        -11    1    5    5    0    0  0.41873460756E+03  0.41064774135E+03 -0.35486244912E+03  0.68549077080E+03  0.00000000000E+00 0.  1.
          2    1    6    6  503    0  0.91146283738E+00  0.19291340675E+02  0.30160879581E+02  0.35814316224E+02  0.00000000000E+00 0. -1.
         -2    1    6    6    0  503 -0.10755286471E+03 -0.73918324776E+02  0.13841780262E+03  0.19023939005E+03  0.00000000000E+00 0.  1.
<mgrwt>
<rscale>  0 0.18296803E+04</rscale>
<asrwt>0</asrwt>
<pdfrwt beam="1">  1        1 0.19627075E+00 0.18296803E+04</pdfrwt>
<pdfrwt beam="2">  1       -1 0.10092718E+00 0.18296803E+04</pdfrwt>
<totfact> 0.82696809E+00</totfact>
</mgrwt>
</event>
<event>
12    2  0.3561489E-008  0.1183594E+04  0.7818608E-02  0.9127339E-01
         -2   -1    0    0    0  501 -0.00000000000E+00  0.00000000000E+00  0.17770541038E+03  0.17770541038E+03  0.00000000000E+00 0.  1.
          2   -1    0    0  501    0  0.00000000000E+00 -0.00000000000E+00 -0.19708094711E+04  0.19708094711E+04  0.00000000000E+00 0. -1.
         23    2    1    2    0    0  0.16653702152E+03  0.12721185705E+02 -0.67208616098E+03  0.69841172407E+03  0.90458390618E+02 0.  0.
        254    2    1    2    0    0 -0.16653702152E+03 -0.12721185705E+02 -0.11210178997E+04  0.14501031574E+04  0.90455603888E+03 0.  0.
         23    2    4    4    0    0 -0.23572592208E+03  0.78543201928E+02 -0.12363369929E+04  0.12643493411E+04  0.91183065713E+02 0.  0.
         23    2    4    4    0    0  0.69188900568E+02 -0.91264387633E+02  0.11531909314E+03  0.18575381631E+03  0.89942729660E+02 0.  0.
          2    1    3    3  502    0  0.15753253202E+03  0.17428977326E+02 -0.66939208172E+03  0.68789972159E+03  0.00000000000E+00 0. -1.
         -2    1    3    3    0  502  0.90044894976E+01 -0.47077916214E+01 -0.26940792627E+01  0.10512002480E+02  0.00000000000E+00 0.  1.
         11    1    5    5    0    0 -0.12296164509E+03  0.14615236296E+02 -0.42314769070E+03  0.44089356929E+03  0.00000000000E+00 0. -1.
        -11    1    5    5    0    0 -0.11276427700E+03  0.63927965632E+02 -0.81318930216E+03  0.82345577179E+03  0.00000000000E+00 0.  1.
          1    1    6    6  503    0  0.18105663842E+01  0.16466424883E+02  0.24474002206E+02  0.29553309173E+02  0.00000000000E+00 0. -1.
         -1    1    6    6    0  503  0.67378334184E+02 -0.10773081252E+03  0.90845090930E+02  0.15620050713E+03  0.00000000000E+00 0.  1.
<mgrwt>
<rscale>  0 0.11835937E+04</rscale>
<asrwt>0</asrwt>
<pdfrwt beam="1">  1        2 0.30320146E+00 0.11835937E+04</pdfrwt>
<pdfrwt beam="2">  1       -2 0.27339293E-01 0.11835937E+04</pdfrwt>
<totfact> 0.83564997E+01</totfact>
</mgrwt>
</event>
<event>
12    2  0.3561489E-008  0.1311806E+04  0.7818608E-02  0.9020255E-01
         -2   -1    0    0    0  501 -0.00000000000E+00  0.00000000000E+00  0.32518325996E+03  0.32518325996E+03  0.00000000000E+00 0. -1.
          2   -1    0    0  501    0  0.00000000000E+00 -0.00000000000E+00 -0.13229741723E+04  0.13229741723E+04  0.00000000000E+00 0.  1.
         23    2    1    2    0    0  0.89326486495E+02  0.85474578288E+02  0.12096623312E+03  0.19573707649E+03  0.91624499100E+02 0.  0.
        254    2    1    2    0    0 -0.89326486495E+02 -0.85474578288E+02 -0.11187571455E+04  0.14524203558E+04  0.91794455967E+03 0.  0.
         23    2    4    4    0    0  0.40080667951E+03 -0.85678580469E+02 -0.61574506569E+03  0.74422658115E+03  0.82124324491E+02 0.  0.
         23    2    4    4    0    0 -0.49013316600E+03  0.20400218153E+00 -0.50301207981E+03  0.70819377466E+03  0.91031357221E+02 0.  0.
          3    1    3    3  502    0  0.74929219265E+02  0.10532165287E+03  0.98924375191E+02  0.16276692068E+03  0.00000000000E+00 0. -1.
         -3    1    3    3    0  502  0.14397267231E+02 -0.19847074578E+02  0.22041857932E+02  0.32970155810E+02  0.00000000000E+00 0.  1.
         11    1    5    5    0    0  0.28325489571E+02  0.12590549871E+02 -0.29851404151E+02  0.43034423841E+02  0.00000000000E+00 0. -1.
        -11    1    5    5    0    0  0.37248118994E+03 -0.98269130341E+02 -0.58589366154E+03  0.70119215731E+03  0.00000000000E+00 0.  1.
          4    1    6    6  503    0 -0.20175119763E+03  0.38051765406E+02 -0.17470517949E+03  0.26958001101E+03  0.00000000000E+00 0. -1.
         -4    1    6    6    0  503 -0.28838196837E+03 -0.37847763225E+02 -0.32830690032E+03  0.43861376365E+03  0.00000000000E+00 0.  1.
<mgrwt>
<rscale>  0 0.13118065E+04</rscale>
<asrwt>0</asrwt>
<pdfrwt beam="1">  1        2 0.20353448E+00 0.13118065E+04</pdfrwt>
<pdfrwt beam="2">  1       -2 0.50028195E-01 0.13118065E+04</pdfrwt>
<totfact> 0.59325547E+01</totfact>
</mgrwt>
</event>
<event>
12    2  0.3561489E-008  0.1736938E+04  0.7818608E-02  0.8740573E-01
         -2   -1    0    0    0  501 -0.00000000000E+00  0.00000000000E+00  0.21296484470E+03  0.21296484470E+03  0.00000000000E+00 0.  1.
          2   -1    0    0  501    0  0.00000000000E+00 -0.00000000000E+00 -0.35416101427E+04  0.35416101427E+04  0.00000000000E+00 0. -1.
         23    2    1    2    0    0  0.33156884459E+03 -0.45776519605E+03 -0.60883167312E+03  0.83543261818E+03  0.88231399714E+02 0.  0.
        254    2    1    2    0    0 -0.33156884459E+03  0.45776519605E+03 -0.27198136248E+04  0.29191423692E+04  0.89694991182E+03 0.  0.
         23    2    4    4    0    0 -0.18019508882E+03  0.70548051655E+03 -0.21668583939E+04  0.22876958839E+04  0.90022934411E+02 0.  0.
         23    2    4    4    0    0 -0.15137375577E+03 -0.24771532050E+03 -0.55295523090E+03  0.63144648525E+03  0.93210956535E+02 0.  0.
          3    1    3    3  502    0  0.31533187510E+03 -0.43057181880E+03 -0.59901293962E+03  0.80227350974E+03  0.00000000000E+00 0. -1.
         -3    1    3    3    0  502  0.16236969490E+02 -0.27193377254E+02 -0.98187335021E+01  0.33159108436E+02  0.00000000000E+00 0.  1.
         11    1    5    5    0    0 -0.75719352180E+02  0.15105302594E+03 -0.46395195529E+03  0.49376295301E+03  0.00000000000E+00 0. -1.
        -11    1    5    5    0    0 -0.10447573664E+03  0.55442749061E+03 -0.17029064387E+04  0.17939329309E+04  0.00000000000E+00 0.  1.
          1    1    6    6  503    0  0.80033368306E+01 -0.50622927089E+02 -0.85072101768E+02  0.99317655262E+02  0.00000000000E+00 0. -1.
         -1    1    6    6    0  503 -0.15937709260E+03 -0.19709239341E+03 -0.46788312913E+03  0.53212882999E+03  0.00000000000E+00 0.  1.
<mgrwt>
<rscale>  0 0.17369381E+04</rscale>
<asrwt>0</asrwt>
<pdfrwt beam="1">  1        2 0.54486305E+00 0.17369381E+04</pdfrwt>
<pdfrwt beam="2">  1       -2 0.32763825E-01 0.17369381E+04</pdfrwt>
<totfact> 0.63255744E+00</totfact>
</mgrwt>
</event>
<event>
12    2  0.3561489E-008  0.1903919E+04  0.7818608E-02  0.8652908E-01
         -3   -1    0    0    0  501 -0.00000000000E+00  0.00000000000E+00  0.14690927038E+04  0.14690927038E+04  0.00000000000E+00 0.  1.
          3   -1    0    0  501    0  0.00000000000E+00 -0.00000000000E+00 -0.61686184347E+03  0.61686184347E+03  0.00000000000E+00 0. -1.
         23    2    1    2    0    0 -0.50479542335E+03  0.41169819245E+03 -0.41761939615E+02  0.65922597375E+03  0.92309283254E+02 0.  0.
        254    2    1    2    0    0  0.50479542335E+03 -0.41169819245E+03  0.89399279997E+03  0.14267285735E+04  0.90112012244E+03 0.  0.
         23    2    4    4    0    0 -0.17064964185E+03  0.48711148658E+02 -0.17671614268E+02  0.19943136947E+03  0.89255301865E+02 0.  0.
         23    2    4    4    0    0  0.67544506520E+03 -0.46040934110E+03  0.91166441423E+03  0.12272972041E+04  0.83208325589E+02 0.  0.
          1    1    3    3  502    0 -0.27253797884E+03  0.22214083887E+03  0.23594744026E+02  0.35239213123E+03  0.00000000000E+00 0. -1.
         -1    1    3    3    0  502 -0.23225744451E+03  0.18955735357E+03 -0.65356683640E+02  0.30683384252E+03  0.00000000000E+00 0.  1.
         11    1    5    5    0    0 -0.68916027533E+02  0.49831435240E+02 -0.41959873426E+02  0.94832598651E+02  0.00000000000E+00 0.  1.
        -11    1    5    5    0    0 -0.10173361432E+03 -0.11202865820E+01  0.24288259158E+02  0.10459877082E+03  0.00000000000E+00 0. -1.
          3    1    6    6  503    0  0.32677978607E+02 -0.48087370310E+01  0.26963018408E+02  0.42637760252E+02  0.00000000000E+00 0. -1.
         -3    1    6    6    0  503  0.64276708659E+03 -0.45560060407E+03  0.88470139583E+03  0.11846594438E+04  0.00000000000E+00 0.  1.
<mgrwt>
<rscale>  0 0.19039194E+04</rscale>
<asrwt>0</asrwt>
<pdfrwt beam="1">  1        3 0.94901822E-01 0.19039194E+04</pdfrwt>
<pdfrwt beam="2">  1       -3 0.22601426E+00 0.19039194E+04</pdfrwt>
<totfact> 0.24489573E-01</totfact>
</mgrwt>
</event>
<event>
12    2  0.3561489E-008  0.1376694E+04  0.7818608E-02  0.8970864E-01
          1   -1    0    0  501    0  0.00000000000E+00  0.00000000000E+00  0.63788517305E+03  0.63788517305E+03  0.00000000000E+00 0. -1.
         -1   -1    0    0    0  501 -0.00000000000E+00 -0.00000000000E+00 -0.74280074303E+03  0.74280074303E+03  0.00000000000E+00 0.  1.
         23    2    1    2    0    0 -0.16892503821E+03  0.51686269033E+02  0.33076204056E+03  0.38578431029E+03  0.90657970687E+02 0.  0.
        254    2    1    2    0    0  0.16892503821E+03 -0.51686269033E+02 -0.43567761054E+03  0.99490160579E+03  0.87681644939E+03 0.  0.
         23    2    4    4    0    0  0.50637528081E+03  0.44290925125E+02 -0.34497974884E+03  0.62105911330E+03  0.91245734399E+02 0.  0.
         23    2    4    4    0    0 -0.33745024260E+03 -0.95977194157E+02 -0.90697861705E+02  0.37384249249E+03  0.91912017949E+02 0.  0.
          3    1    3    3  502    0 -0.13673218819E+03  0.86274043007E+01  0.28057192763E+03  0.31223505564E+03  0.00000000000E+00 0. -1.
         -3    1    3    3    0  502 -0.32192850017E+02  0.43058864732E+02  0.50190112926E+02  0.73549254652E+02  0.00000000000E+00 0.  1.
         11    1    5    5    0    0  0.34354771118E+02 -0.18592180754E+02 -0.15652222438E+02  0.42082199931E+02  0.00000000000E+00 0. -1.
        -11    1    5    5    0    0  0.47202050969E+03  0.62883105879E+02 -0.32932752640E+03  0.57897691337E+03  0.00000000000E+00 0.  1.
          1    1    6    6  503    0 -0.18642724443E+03 -0.10509171085E+02 -0.25443765552E+02  0.18844878707E+03  0.00000000000E+00 0. -1.
         -1    1    6    6    0  503 -0.15102299817E+03 -0.85468023073E+02 -0.65254096153E+02  0.18539370542E+03  0.00000000000E+00 0.  1.
<mgrwt>
<rscale>  0 0.13766940E+04</rscale>
<asrwt>0</asrwt>
<pdfrwt beam="1">  1        1 0.98136181E-01 0.13766940E+04</pdfrwt>
<pdfrwt beam="2">  1       -1 0.11427704E+00 0.13766940E+04</pdfrwt>
<totfact> 0.21326585E+01</totfact>
</mgrwt>
</event>
<event>
12    2  0.3561489E-008  0.1087751E+04  0.7818608E-02  0.9217213E-01
         -2   -1    0    0    0  501 -0.00000000000E+00  0.00000000000E+00  0.18099864177E+03  0.18099864177E+03  0.00000000000E+00 0.  1.
          2   -1    0    0  501    0  0.00000000000E+00 -0.00000000000E+00 -0.16342701696E+04  0.16342701696E+04  0.00000000000E+00 0. -1.
         23    2    1    2    0    0  0.11104133653E+03 -0.41011558027E+02 -0.46512942779E+02  0.15773640917E+03  0.93301632478E+02 0.  0.
        254    2    1    2    0    0 -0.11104133653E+03  0.41011558027E+02 -0.14067585850E+04  0.16575324022E+04  0.86858034827E+03 0.  0.
         23    2    4    4    0    0  0.12230673416E+03 -0.13021977124E+03 -0.13293953896E+04  0.13444545884E+04  0.91377855496E+02 0.  0.
         23    2    4    4    0    0 -0.23334807069E+03  0.17123132927E+03 -0.77363195444E+02  0.31307781374E+03  0.90890941406E+02 0.  0.
          3    1    3    3  502    0  0.58044955738E+02 -0.69165134329E+02 -0.33667524468E+02  0.96366669015E+02  0.00000000000E+00 0. -1.
         -3    1    3    3    0  502  0.52996380790E+02  0.28153576301E+02 -0.12845418311E+02  0.61369740157E+02  0.00000000000E+00 0.  1.
         11    1    5    5    0    0  0.11928814746E+03 -0.14374474550E+03 -0.12411953044E+04  0.12551724972E+04  0.00000000000E+00 0.  1.
        -11    1    5    5    0    0  0.30185867044E+01  0.13524974264E+02 -0.88200085122E+02  0.89282091205E+02  0.00000000000E+00 0. -1.
          1    1    6    6  503    0 -0.42380591304E+02  0.46280706698E+02  0.18685033247E+02  0.65476322432E+02  0.00000000000E+00 0. -1.
         -1    1    6    6    0  503 -0.19096747939E+03  0.12495062257E+03 -0.96048228691E+02  0.24760149131E+03  0.00000000000E+00 0.  1.
<mgrwt>
<rscale>  0 0.10877512E+04</rscale>
<asrwt>0</asrwt>
<pdfrwt beam="1">  1        2 0.25142619E+00 0.10877512E+04</pdfrwt>
<pdfrwt beam="2">  1       -2 0.27845944E-01 0.10877512E+04</pdfrwt>
<totfact> 0.12481263E+02</totfact>
</mgrwt>
</event>
<event>
12    2  0.3561489E-008  0.2412141E+04  0.7818608E-02  0.8434972E-01
         -1   -1    0    0    0  501 -0.00000000000E+00  0.00000000000E+00  0.91935237431E+03  0.91935237431E+03  0.00000000000E+00 0.  1.
          1   -1    0    0  501    0  0.00000000000E+00 -0.00000000000E+00 -0.15822076878E+04  0.15822076878E+04  0.00000000000E+00 0. -1.
         23    2    1    2    0    0 -0.60778087363E+03 -0.72049120738E+03  0.90434510063E+02  0.95129102031E+03  0.90945227781E+02 0.  0.
        254    2    1    2    0    0  0.60778087363E+03  0.72049120738E+03 -0.75328982353E+03  0.15502690418E+04  0.97333620781E+03 0.  0.
         23    2    4    4    0    0 -0.23434815347E+02  0.39448657161E+03  0.11857718845E+03  0.42193337191E+03  0.88308408207E+02 0.  0.
         23    2    4    4    0    0  0.63121568897E+03  0.32600463577E+03 -0.87186701198E+03  0.11283356699E+04  0.90978177542E+02 0.  0.
          2    1    3    3  502    0 -0.58876465723E+03 -0.66669432990E+03  0.77786325505E+02  0.89284705497E+03  0.00000000000E+00 0. -1.
         -2    1    3    3    0  502 -0.19016216392E+02 -0.53796877478E+02  0.12648184559E+02  0.58443965342E+02  0.00000000000E+00 0.  1.
         11    1    5    5    0    0  0.46787625951E+01  0.68706060274E+01  0.19009314395E+02  0.20747290917E+02  0.00000000000E+00 0. -1.
        -11    1    5    5    0    0 -0.28113577942E+02  0.38761596558E+03  0.99567874051E+02  0.40118608099E+03  0.00000000000E+00 0.  1.
          3    1    6    6  503    0  0.97656798266E+02  0.79938797060E+02 -0.19185971363E+03  0.22964583871E+03  0.00000000000E+00 0. -1.
         -3    1    6    6    0  503  0.53355889071E+03  0.24606583871E+03 -0.68000729835E+03  0.89868983116E+03  0.00000000000E+00 0.  1.
<mgrwt>
<rscale>  0 0.24121413E+04</rscale>
<asrwt>0</asrwt>
<pdfrwt beam="1">  1        1 0.24341657E+00 0.24121413E+04</pdfrwt>
<pdfrwt beam="2">  1       -1 0.14143883E+00 0.24121413E+04</pdfrwt>
<totfact> 0.20966155E+00</totfact>
</mgrwt>
</event>
<event>
12    2  0.3561489E-008  0.1395597E+04  0.7818608E-02  0.8957012E-01
          2   -1    0    0  501    0  0.00000000000E+00  0.00000000000E+00  0.23251733975E+04  0.23251733975E+04  0.00000000000E+00 0. -1.
         -2   -1    0    0    0  501 -0.00000000000E+00 -0.00000000000E+00 -0.20941358098E+03  0.20941358098E+03  0.00000000000E+00 0.  1.
         23    2    1    2    0    0 -0.33866592807E+03 -0.20638855757E+03  0.76263869648E+03  0.86494544060E+03  0.96031173675E+02 0.  0.
        254    2    1    2    0    0  0.33866592807E+03  0.20638855757E+03  0.13531211200E+04  0.16696415378E+04  0.89413379980E+03 0.  0.
         23    2    4    4    0    0  0.86813694103E+02  0.16275299153E+02 -0.11183567975E+03  0.16897893289E+03  0.90802850433E+02 0.  0.
         23    2    4    4    0    0  0.25185223397E+03  0.19011325842E+03  0.14649567997E+04  0.15006626049E+04  0.79481003871E+02 0.  0.
          2    1    3    3  502    0 -0.14339307384E+03 -0.41255991383E+02  0.33402131649E+03  0.36583311813E+03  0.00000000000E+00 0. -1.
         -2    1    3    3    0  502 -0.19527285423E+03 -0.16513256619E+03  0.42861737999E+03  0.49911232247E+03  0.00000000000E+00 0.  1.
         11    1    5    5    0    0  0.59819574750E+01  0.34210581885E+02 -0.70646820583E+01  0.35440900958E+02  0.00000000000E+00 0.  1.
        -11    1    5    5    0    0  0.80831736628E+02 -0.17935282731E+02 -0.10477099770E+03  0.13353803193E+03  0.00000000000E+00 0. -1.
          1    1    6    6  503    0  0.23822253532E+03  0.18298271464E+03  0.14424880941E+04  0.14734329139E+04  0.00000000000E+00 0. -1.
         -1    1    6    6    0  503  0.13629698650E+02  0.71305437785E+01  0.22468705615E+02  0.27229690999E+02  0.00000000000E+00 0.  1.
<mgrwt>
<rscale>  0 0.13955972E+04</rscale>
<asrwt>0</asrwt>
<pdfrwt beam="1">  1        2 0.35771897E+00 0.13955972E+04</pdfrwt>
<pdfrwt beam="2">  1       -2 0.32217476E-01 0.13955972E+04</pdfrwt>
<totfact> 0.38394522E+01</totfact>
</mgrwt>
</event>
<event>
12    2  0.3561489E-008  0.1716953E+04  0.7818608E-02  0.8751754E-01
          2   -1    0    0  501    0  0.00000000000E+00  0.00000000000E+00  0.15498450465E+04  0.15498450465E+04  0.00000000000E+00 0. -1.
         -2   -1    0    0    0  501 -0.00000000000E+00 -0.00000000000E+00 -0.47551961282E+03  0.47551961282E+03  0.00000000000E+00 0.  1.
         23    2    1    2    0    0 -0.30411089753E+03  0.51656416855E+03  0.19106826303E+03  0.63552492693E+03  0.89793504151E+02 0.  0.
        254    2    1    2    0    0  0.30411089753E+03 -0.51656416855E+03  0.88325717070E+03  0.13898397324E+04  0.89005015253E+03 0.  0.
         23    2    4    4    0    0  0.46072770373E+03 -0.16861798460E+03  0.91415935122E+02  0.50705904253E+03  0.89721556536E+02 0.  0.
         23    2    4    4    0    0 -0.15661680620E+03 -0.34794618395E+03  0.79184123558E+03  0.88278068989E+03  0.81815849196E+02 0.  0.
          4    1    3    3  502    0 -0.71726550889E+02  0.61370394240E+02  0.19297328984E+02  0.96350455617E+02  0.00000000000E+00 0. -1.
         -4    1    3    3    0  502 -0.23238434664E+03  0.45519377431E+03  0.17177093404E+03  0.53917447131E+03  0.00000000000E+00 0.  1.
         11    1    5    5    0    0  0.28988283156E+02 -0.33730794950E+02  0.21384664629E+02  0.49349680541E+02  0.00000000000E+00 0.  1.
        -11    1    5    5    0    0  0.43173942057E+03 -0.13488718965E+03  0.70031270493E+02  0.45770936199E+03  0.00000000000E+00 0. -1.
          1    1    6    6  503    0 -0.88474457501E+02 -0.21002055444E+03  0.37942324787E+03  0.44260407131E+03  0.00000000000E+00 0. -1.
         -1    1    6    6    0  503 -0.68142348700E+02 -0.13792562951E+03  0.41241798771E+03  0.44017661858E+03  0.00000000000E+00 0.  1.
<mgrwt>
<rscale>  0 0.17169528E+04</rscale>
<asrwt>0</asrwt>
<pdfrwt beam="1">  1        2 0.23843770E+00 0.17169528E+04</pdfrwt>
<pdfrwt beam="2">  1       -2 0.73156864E-01 0.17169528E+04</pdfrwt>
<totfact> 0.19076181E+01</totfact>
</mgrwt>
</event>
<event>
12    2  0.3561489E-008  0.1870552E+04  0.7818608E-02  0.8669655E-01
          2   -1    0    0  501    0  0.00000000000E+00  0.00000000000E+00  0.23373816785E+04  0.23373816785E+04  0.00000000000E+00 0. -1.
         -2   -1    0    0    0  501 -0.00000000000E+00 -0.00000000000E+00 -0.37423975847E+03  0.37423975847E+03  0.00000000000E+00 0.  1.
         23    2    1    2    0    0 -0.10418475864E+03  0.29919540627E+03 -0.17270456253E+03  0.37149995878E+03  0.88391166893E+02 0.  0.
        254    2    1    2    0    0  0.10418475864E+03 -0.29919540627E+03  0.21358464825E+04  0.23401214782E+04  0.90219509005E+03 0.  0.
         23    2    4    4    0    0 -0.33381029724E+03  0.87900615295E+02  0.94823130683E+03  0.10131660017E+04  0.90591958802E+02 0.  0.
         23    2    4    4    0    0  0.43799505588E+03 -0.38709602157E+03  0.11876151757E+04  0.13269554765E+04  0.93263240835E+02 0.  0.
          3    1    3    3  502    0 -0.40614719697E+02  0.27425837667E+02 -0.16824300188E+02  0.51814950590E+02  0.00000000000E+00 0. -1.
         -3    1    3    3    0  502 -0.63570038943E+02  0.27176956861E+03 -0.15588026234E+03  0.31968500819E+03  0.00000000000E+00 0.  1.
         11    1    5    5    0    0 -0.18774859528E+03  0.51260864677E+02  0.40318852428E+03  0.44770324701E+03  0.00000000000E+00 0.  1.
        -11    1    5    5    0    0 -0.14606170196E+03  0.36639750618E+02  0.54504278255E+03  0.56546275467E+03  0.00000000000E+00 0. -1.
          3    1    6    6  503    0  0.19011879902E+03 -0.23004518415E+03  0.59021811540E+03  0.66137989706E+03  0.00000000000E+00 0. -1.
         -3    1    6    6    0  503  0.24787625687E+03 -0.15705083742E+03  0.59739706031E+03  0.66557557942E+03  0.00000000000E+00 0.  1.
<mgrwt>
<rscale>  0 0.18705520E+04</rscale>
<asrwt>0</asrwt>
<pdfrwt beam="1">  1        2 0.35959717E+00 0.18705520E+04</pdfrwt>
<pdfrwt beam="2">  1       -2 0.57575349E-01 0.18705520E+04</pdfrwt>
<totfact> 0.11455096E+01</totfact>
</mgrwt>
</event>
<event>
12    2  0.3561489E-008  0.2084482E+04  0.7818608E-02  0.8568110E-01
         -1   -1    0    0    0  501 -0.00000000000E+00  0.00000000000E+00  0.75533068690E+03  0.75533068690E+03  0.00000000000E+00 0.  1.
          1   -1    0    0  501    0  0.00000000000E+00 -0.00000000000E+00 -0.14381331122E+04  0.14381331122E+04  0.00000000000E+00 0. -1.
         23    2    1    2    0    0  0.35926490718E+02  0.42715544345E+03  0.49188747179E+03  0.65874097422E+03  0.90740843056E+02 0.  0.
        254    2    1    2    0    0 -0.35926490718E+02 -0.42715544345E+03 -0.11746898971E+04  0.15347228249E+04  0.88978947470E+03 0.  0.
         23    2    4    4    0    0  0.14671282205E+03 -0.33842310750E+03 -0.44445241524E+02  0.38277491025E+03  0.92121661825E+02 0.  0.
         23    2    4    4    0    0 -0.18263931277E+03 -0.88732335955E+02 -0.11302446556E+04  0.11519479147E+04  0.91106918375E+02 0.  0.
          4    1    3    3  502    0  0.35477337159E+02  0.17777198649E+03  0.14842232946E+03  0.23428766189E+03  0.00000000000E+00 0. -1.
         -4    1    3    3    0  502  0.44915355942E+00  0.24938345696E+03  0.34346514233E+03  0.42445331232E+03  0.00000000000E+00 0.  1.
         11    1    5    5    0    0  0.25755292747E+02 -0.46924053903E+02 -0.40549179761E+02  0.67152348570E+02  0.00000000000E+00 0. -1.
        -11    1    5    5    0    0  0.12095752930E+03 -0.29149905360E+03 -0.38960617632E+01  0.31562256168E+03  0.00000000000E+00 0.  1.
          3    1    6    6  503    0 -0.36485593767E+02  0.13147121074E+02 -0.11990805343E+03  0.12602375420E+03  0.00000000000E+00 0. -1.
         -3    1    6    6    0  503 -0.14615371900E+03 -0.10187945703E+03 -0.10103366022E+04  0.10259241605E+04  0.00000000000E+00 0.  1.
<mgrwt>
<rscale>  0 0.20844818E+04</rscale>
<asrwt>0</asrwt>
<pdfrwt beam="1">  1        1 0.22125125E+00 0.20844818E+04</pdfrwt>
<pdfrwt beam="2">  1       -1 0.11620472E+00 0.20844818E+04</pdfrwt>
<totfact> 0.44533956E+00</totfact>
</mgrwt>
</event>
<event>
12    2  0.3561489E-008  0.2112256E+04  0.7818608E-02  0.8555864E-01
         -2   -1    0    0    0  501 -0.00000000000E+00  0.00000000000E+00  0.37059495467E+03  0.37059495467E+03  0.00000000000E+00 0.  1.
          2   -1    0    0  501    0  0.00000000000E+00 -0.00000000000E+00 -0.30097710895E+04  0.30097710895E+04  0.00000000000E+00 0. -1.
         23    2    1    2    0    0 -0.58708150725E+03 -0.32337224027E+03 -0.18916794413E+04  0.20094081923E+04  0.10017920127E+03 0.  0.
        254    2    1    2    0    0  0.58708150725E+03  0.32337224027E+03 -0.74749669350E+03  0.13709578519E+04  0.93356297219E+03 0.  0.
         23    2    4    4    0    0 -0.19715555103E+03  0.87874128174E+02 -0.42449069730E+03  0.48508784799E+03  0.92334687211E+02 0.  0.
         23    2    4    4    0    0  0.78423705829E+03  0.23549811210E+03 -0.32300599620E+03  0.88587000395E+03  0.99727959570E+02 0.  0.
          4    1    3    3  502    0 -0.26921144487E+03 -0.16742267781E+03 -0.75493012454E+03  0.81879463116E+03  0.00000000000E+00 0. -1.
         -4    1    3    3    0  502 -0.31787006239E+03 -0.15594956247E+03 -0.11367493168E+04  0.11906135611E+04  0.00000000000E+00 0.  1.
         11    1    5    5    0    0 -0.10617874150E+03  0.70918868678E+02 -0.32514078642E+03  0.34931352976E+03  0.00000000000E+00 0. -1.
        -11    1    5    5    0    0 -0.90976809529E+02  0.16955259496E+02 -0.99349910884E+02  0.13577431822E+03  0.00000000000E+00 0.  1.
          3    1    6    6  503    0  0.63333272430E+03  0.20261099534E+03 -0.22073496875E+03  0.70063220132E+03  0.00000000000E+00 0. -1.
         -3    1    6    6    0  503  0.15090433399E+03  0.32887116756E+02 -0.10227102746E+03  0.18523780262E+03  0.00000000000E+00 0.  1.
<mgrwt>
<rscale>  0 0.21122556E+04</rscale>
<asrwt>0</asrwt>
<pdfrwt beam="1">  1        2 0.46304170E+00 0.21122556E+04</pdfrwt>
<pdfrwt beam="2">  1       -2 0.57014609E-01 0.21122556E+04</pdfrwt>
<totfact> 0.45659001E+00</totfact>
</mgrwt>
</event>
<event>
12    2  0.3561489E-008  0.2274673E+04  0.7818608E-02  0.8487975E-01
         -2   -1    0    0    0  501 -0.00000000000E+00  0.00000000000E+00  0.89669669663E+03  0.89669669663E+03  0.00000000000E+00 0. -1.
          2   -1    0    0  501    0  0.00000000000E+00 -0.00000000000E+00 -0.14425546405E+04  0.14425546405E+04  0.00000000000E+00 0.  1.
         23    2    1    2    0    0  0.94804711306E+03  0.11666482100E+02 -0.67465369804E+02  0.95569952615E+03  0.99401070262E+02 0.  0.
        254    2    1    2    0    0 -0.94804711306E+03 -0.11666482100E+02 -0.47839257411E+03  0.13835518110E+04  0.88680703845E+03 0.  0.
         23    2    4    4    0    0 -0.13107143448E+03  0.35612030837E+03 -0.21375710079E+03  0.44506454505E+03  0.91591244945E+02 0.  0.
         23    2    4    4    0    0 -0.81697567858E+03 -0.36778679047E+03 -0.26463547332E+03  0.93848726597E+03  0.89498782231E+02 0.  0.
          3    1    3    3  502    0  0.93001215748E+03  0.21073305732E+02 -0.55069976870E+02  0.93187949845E+03  0.00000000000E+00 0. -1.
         -3    1    3    3    0  502  0.18034955580E+02 -0.94068236320E+01 -0.12395392934E+02  0.23820027699E+02  0.00000000000E+00 0.  1.
         11    1    5    5    0    0 -0.11701216039E+03  0.19029241860E+03 -0.11067206265E+03  0.24930173627E+03  0.00000000000E+00 0. -1.
        -11    1    5    5    0    0 -0.14059274098E+02  0.16582788977E+03 -0.10308503814E+03  0.19576280878E+03  0.00000000000E+00 0.  1.
          1    1    6    6  503    0 -0.24114777004E+03 -0.10735404574E+03 -0.35950769076E+02  0.26640119356E+03  0.00000000000E+00 0. -1.
         -1    1    6    6    0  503 -0.57582790854E+03 -0.26043274474E+03 -0.22868470424E+03  0.67208607242E+03  0.00000000000E+00 0.  1.
<mgrwt>
<rscale>  0 0.22746727E+04</rscale>
<asrwt>0</asrwt>
<pdfrwt beam="1">  1        2 0.22193148E+00 0.22746727E+04</pdfrwt>
<pdfrwt beam="2">  1       -2 0.13795334E+00 0.22746727E+04</pdfrwt>
<totfact> 0.46394426E+00</totfact>
</mgrwt>
</event>
<event>
12    2  0.3561489E-008  0.1402827E+04  0.7818608E-02  0.8951775E-01
          2   -1    0    0  501    0  0.00000000000E+00  0.00000000000E+00  0.55726689835E+03  0.55726689835E+03  0.00000000000E+00 0. -1.
         -2   -1    0    0    0  501 -0.00000000000E+00 -0.00000000000E+00 -0.88284606804E+03  0.88284606804E+03  0.00000000000E+00 0.  1.
         23    2    1    2    0    0  0.28862037712E+03  0.40244558978E+02 -0.38694664126E+03  0.49298621176E+03  0.91577045121E+02 0.  0.
        254    2    1    2    0    0 -0.28862037712E+03 -0.40244558978E+02  0.61367471576E+02  0.94712675463E+03  0.89908941499E+03 0.  0.
         23    2    4    4    0    0 -0.20463213298E+03 -0.44424152668E+03  0.13740520691E+03  0.51694108749E+03  0.95514675179E+02 0.  0.
         23    2    4    4    0    0 -0.83988244137E+02  0.40399696770E+03 -0.76037735338E+02  0.43018566713E+03  0.94923105438E+02 0.  0.
          4    1    3    3  502    0  0.25494916201E+01  0.12107764345E+02 -0.19639021830E+01  0.12528159352E+02  0.00000000000E+00 0. -1.
         -4    1    3    3    0  502  0.28607088550E+03  0.28136794633E+02 -0.38498273907E+03  0.48045805241E+03  0.00000000000E+00 0.  1.
         11    1    5    5    0    0 -0.11611618836E+03 -0.25514099666E+03  0.12738947434E+03  0.30790903778E+03  0.00000000000E+00 0.  1.
        -11    1    5    5    0    0 -0.88515944627E+02 -0.18910053002E+03  0.10015732572E+02  0.20903204971E+03  0.00000000000E+00 0. -1.
          2    1    6    6  503    0 -0.15763848769E+02  0.12897988263E+03  0.18995357694E+02  0.13132072444E+03  0.00000000000E+00 0. -1.
         -2    1    6    6    0  503 -0.68224395368E+02  0.27501708507E+03 -0.95033093032E+02  0.29886494270E+03  0.00000000000E+00 0.  1.
<mgrwt>
<rscale>  0 0.14028270E+04</rscale>
<asrwt>0</asrwt>
<pdfrwt beam="1">  1        2 0.85733369E-01 0.14028270E+04</pdfrwt>
<pdfrwt beam="2">  1       -2 0.13582247E+00 0.14028270E+04</pdfrwt>
<totfact> 0.20474438E+01</totfact>
</mgrwt>
</event>
<event>
12    2  0.3561489E-008  0.1535796E+04  0.7818608E-02  0.8860992E-01
          2   -1    0    0  501    0  0.00000000000E+00  0.00000000000E+00  0.82035031457E+03  0.82035031457E+03  0.00000000000E+00 0. -1.
         -2   -1    0    0    0  501 -0.00000000000E+00 -0.00000000000E+00 -0.71879961596E+03  0.71879961596E+03  0.00000000000E+00 0.  1.
         23    2    1    2    0    0  0.63126921317E+02  0.16852105480E+03  0.50009237537E+03  0.53921157036E+03  0.90952622802E+02 0.  0.
        254    2    1    2    0    0 -0.63126921317E+02 -0.16852105480E+03 -0.39854167677E+03  0.99993836017E+03  0.89925352483E+03 0.  0.
         23    2    4    4    0    0  0.19196998903E+03  0.25855437507E+03 -0.36346466471E+03  0.49334051667E+03  0.87037126213E+02 0.  0.
         23    2    4    4    0    0 -0.25509691035E+03 -0.42707542986E+03 -0.35077012063E+02  0.50659784350E+03  0.89124193147E+02 0.  0.
          1    1    3    3  502    0  0.68509791820E+02  0.17392746485E+03  0.49697616977E+03  0.53097049628E+03  0.00000000000E+00 0. -1.
         -1    1    3    3    0  502 -0.53828705029E+01 -0.54064100543E+01  0.31162056060E+01  0.82410740747E+01  0.00000000000E+00 0.  1.
         11    1    5    5    0    0  0.12337790513E+03  0.16775942875E+03 -0.29311721604E+03  0.35955950238E+03  0.00000000000E+00 0.  1.
        -11    1    5    5    0    0  0.68592083901E+02  0.90794946320E+02 -0.70347448663E+02  0.13378101429E+03  0.00000000000E+00 0. -1.
          3    1    6    6  503    0 -0.12997630820E+03 -0.24446829869E+03 -0.61633495651E+02  0.28364992075E+03  0.00000000000E+00 0. -1.
         -3    1    6    6    0  503 -0.12512060215E+03 -0.18260713118E+03  0.26556483588E+02  0.22294792275E+03  0.00000000000E+00 0.  1.
<mgrwt>
<rscale>  0 0.15357962E+04</rscale>
<asrwt>0</asrwt>
<pdfrwt beam="1">  1        2 0.12620774E+00 0.15357962E+04</pdfrwt>
<pdfrwt beam="2">  1       -2 0.11058456E+00 0.15357962E+04</pdfrwt>
<totfact> 0.20818696E+01</totfact>
</mgrwt>
</event>
<event>
12    2  0.3561489E-008  0.2809613E+04  0.7818608E-02  0.8300290E-01
          2   -1    0    0  501    0  0.00000000000E+00  0.00000000000E+00  0.30726141772E+04  0.30726141772E+04  0.00000000000E+00 0.  1.
         -2   -1    0    0    0  501 -0.00000000000E+00 -0.00000000000E+00 -0.64228089043E+03  0.64228089043E+03  0.00000000000E+00 0. -1.
         23    2    1    2    0    0  0.97777713039E+03  0.65010745494E+03  0.16888447249E+04  0.20589083230E+04  0.90659571021E+02 0.  0.
        254    2    1    2    0    0 -0.97777713039E+03 -0.65010745494E+03  0.74148856192E+03  0.16559867447E+04  0.90210808197E+03 0.  0.
         23    2    4    4    0    0  0.78316132254E+02  0.83323493386E+02  0.22657857313E+03  0.26809641934E+03  0.86380664148E+02 0.  0.
         23    2    4    4    0    0 -0.10560932626E+04 -0.73343094833E+03  0.51490998878E+03  0.13878903254E+04  0.88618978636E+02 0.  0.
          1    1    3    3  502    0  0.76322669398E+01  0.13457444049E+02  0.11385742762E+02  0.19209097772E+02  0.00000000000E+00 0. -1.
         -1    1    3    3    0  502  0.97014486345E+03  0.63665001089E+03  0.16774589821E+04  0.20396992252E+04  0.00000000000E+00 0.  1.
         11    1    5    5    0    0 -0.12850811528E+02  0.23257853483E+02  0.86550065187E+02  0.90537201688E+02  0.00000000000E+00 0.  1.
        -11    1    5    5    0    0  0.91166943783E+02  0.60065639903E+02  0.14002850794E+03  0.17755921765E+03  0.00000000000E+00 0. -1.
          1    1    6    6  503    0 -0.44783732449E+03 -0.26069540673E+03  0.19265222496E+03  0.55284287468E+03  0.00000000000E+00 0. -1.
         -1    1    6    6    0  503 -0.60825593815E+03 -0.47273554160E+03  0.32225776382E+03  0.83504745071E+03  0.00000000000E+00 0.  1.
<mgrwt>
<rscale>  0 0.28096130E+04</rscale>
<asrwt>0</asrwt>
<pdfrwt beam="1">  1        2 0.47270986E+00 0.28096130E+04</pdfrwt>
<pdfrwt beam="2">  1       -2 0.98812446E-01 0.28096130E+04</pdfrwt>
<totfact> 0.11569029E+00</totfact>
</mgrwt>
</event>
<event>
12    2  0.3561489E-008  0.2452404E+04  0.7818608E-02  0.8420141E-01
          1   -1    0    0  501    0  0.00000000000E+00  0.00000000000E+00  0.28738761936E+04  0.28738761936E+04  0.00000000000E+00 0. -1.
         -1   -1    0    0    0  501 -0.00000000000E+00 -0.00000000000E+00 -0.52318572807E+03  0.52318572807E+03  0.00000000000E+00 0.  1.
         23    2    1    2    0    0  0.80896249862E+02 -0.39214740937E+03  0.23673472050E+04  0.24027062532E+04  0.91327740474E+02 0.  0.
        254    2    1    2    0    0 -0.80896249862E+02  0.39214740937E+03 -0.16656739490E+02  0.99435566846E+03  0.91002305164E+03 0.  0.
         23    2    4    4    0    0 -0.27103431510E+03  0.19598424181E+03 -0.39036850489E+03  0.52214648960E+03  0.91542143255E+02 0.  0.
         23    2    4    4    0    0  0.19013806523E+03  0.19616316756E+03  0.37371176540E+03  0.47220917887E+03  0.93212407187E+02 0.  0.
          2    1    3    3  502    0  0.54285551746E+02 -0.33620332984E+03  0.17953948422E+04  0.18274086131E+04  0.00000000000E+00 0. -1.
         -2    1    3    3    0  502  0.26610698117E+02 -0.55944079530E+02  0.57195236285E+03  0.57529764006E+03  0.00000000000E+00 0.  1.
         11    1    5    5    0    0 -0.19805595098E+03  0.91101570272E+02 -0.26488016943E+03  0.34305562228E+03  0.00000000000E+00 0. -1.
        -11    1    5    5    0    0 -0.72978364118E+02  0.10488267154E+03 -0.12548833546E+03  0.17909086731E+03  0.00000000000E+00 0.  1.
          1    1    6    6  503    0  0.14985665901E+03  0.18239402788E+03  0.35353016385E+03  0.42509784333E+03  0.00000000000E+00 0. -1.
         -1    1    6    6    0  503  0.40281406222E+02  0.13769139681E+02  0.20181601546E+02  0.47111335533E+02  0.00000000000E+00 0.  1.
<mgrwt>
<rscale>  0 0.24524037E+04</rscale>
<asrwt>0</asrwt>
<pdfrwt beam="1">  1        1 0.44213479E+00 0.24524037E+04</pdfrwt>
<pdfrwt beam="2">  1       -1 0.80490114E-01 0.24524037E+04</pdfrwt>
<totfact> 0.10132929E+00</totfact>
</mgrwt>
</event>
<event>
12    2  0.3561489E-008  0.1634018E+04  0.7818608E-02  0.8799918E-01
          1   -1    0    0  501    0  0.00000000000E+00  0.00000000000E+00  0.80660016023E+03  0.80660016023E+03  0.00000000000E+00 0.  1.
         -1   -1    0    0    0  501 -0.00000000000E+00 -0.00000000000E+00 -0.82755200084E+03  0.82755200084E+03  0.00000000000E+00 0. -1.
         23    2    1    2    0    0  0.54986498833E+03 -0.68918898210E+02 -0.12634292751E+03  0.57553014419E+03  0.90394090664E+02 0.  0.
        254    2    1    2    0    0 -0.54986498833E+03  0.68918898210E+02  0.10539108689E+03  0.10586220169E+04  0.89580800036E+03 0.  0.
         23    2    4    4    0    0 -0.48210983317E+03  0.25368458734E+03  0.40748443253E+03  0.68640688888E+03  0.91241948992E+02 0.  0.
         23    2    4    4    0    0 -0.67755155158E+02 -0.18476568913E+03 -0.30209334564E+03  0.37221512800E+03  0.92491032537E+02 0.  0.
          1    1    3    3  502    0  0.43087534984E+03 -0.18878943718E+02 -0.11240832788E+03  0.44569677337E+03  0.00000000000E+00 0. -1.
         -1    1    3    3    0  502  0.11898963848E+03 -0.50039954492E+02 -0.13934599630E+02  0.12983337082E+03  0.00000000000E+00 0.  1.
         11    1    5    5    0    0 -0.45085887645E+03  0.25865841994E+03  0.39284396115E+03  0.65153993162E+03  0.00000000000E+00 0.  1.
        -11    1    5    5    0    0 -0.31250956717E+02 -0.49738326002E+01  0.14640471379E+02  0.34866957261E+02  0.00000000000E+00 0. -1.
          4    1    6    6  503    0  0.18799276736E+02 -0.35830884961E+02 -0.30793045105E+02  0.50847583519E+02  0.00000000000E+00 0. -1.
         -4    1    6    6    0  503 -0.86554431894E+02 -0.14893480416E+03 -0.27130030054E+03  0.32136754448E+03  0.00000000000E+00 0.  1.
<mgrwt>
<rscale>  0 0.16340178E+04</rscale>
<asrwt>0</asrwt>
<pdfrwt beam="1">  1        1 0.12409233E+00 0.16340178E+04</pdfrwt>
<pdfrwt beam="2">  1       -1 0.12731569E+00 0.16340178E+04</pdfrwt>
<totfact> 0.11161671E+01</totfact>
</mgrwt>
</event>
<event>
12    2  0.3561489E-008  0.1584800E+04  0.7818608E-02  0.8829941E-01
          2   -1    0    0  501    0  0.00000000000E+00  0.00000000000E+00  0.33923373591E+03  0.33923373591E+03  0.00000000000E+00 0. -1.
         -2   -1    0    0    0  501 -0.00000000000E+00 -0.00000000000E+00 -0.18509286410E+04  0.18509286410E+04  0.00000000000E+00 0.  1.
         23    2    1    2    0    0  0.34072922605E+03 -0.40531302120E+03 -0.66360602071E+03  0.85396291481E+03  0.92220705342E+02 0.  0.
        254    2    1    2    0    0 -0.34072922605E+03  0.40531302120E+03 -0.84808888438E+03  0.13361994621E+04  0.88645315502E+03 0.  0.
         23    2    4    4    0    0  0.24791296383E+03  0.18228520202E+03 -0.64510744666E+02  0.32733876921E+03  0.91105988464E+02 0.  0.
         23    2    4    4    0    0 -0.58864218989E+03  0.22302781918E+03 -0.78357813971E+03  0.10088606929E+04  0.86972183925E+02 0.  0.
          1    1    3    3  502    0  0.18642142827E+03 -0.20554155713E+03 -0.27577741418E+03  0.39122047850E+03  0.00000000000E+00 0. -1.
         -1    1    3    3    0  502  0.15430779779E+03 -0.19977146408E+03 -0.38782860653E+03  0.46274243631E+03  0.00000000000E+00 0.  1.
         11    1    5    5    0    0  0.94513631600E+02  0.33376316452E+02  0.10479959201E+02  0.10078013000E+03  0.00000000000E+00 0.  1.
        -11    1    5    5    0    0  0.15339933223E+03  0.14890888557E+03 -0.74990703866E+02  0.22655863921E+03  0.00000000000E+00 0. -1.
          1    1    6    6  503    0 -0.67293370319E+01  0.15387452021E+02 -0.13404114063E+02  0.21487855417E+02  0.00000000000E+00 0. -1.
         -1    1    6    6    0  503 -0.58191285286E+03  0.20764036716E+03 -0.77017402565E+03  0.98737283747E+03  0.00000000000E+00 0.  1.
<mgrwt>
<rscale>  0 0.15847996E+04</rscale>
<asrwt>0</asrwt>
<pdfrwt beam="1">  1        2 0.52189807E-01 0.15847996E+04</pdfrwt>
<pdfrwt beam="2">  1       -2 0.28475825E+00 0.15847996E+04</pdfrwt>
<totfact> 0.36265953E+00</totfact>
</mgrwt>
</event>
<event>
12    2  0.3561489E-008  0.1313843E+04  0.7818608E-02  0.9018659E-01
         -1   -1    0    0    0  501 -0.00000000000E+00  0.00000000000E+00  0.16884710701E+03  0.16884710701E+03  0.00000000000E+00 0.  1.
          1   -1    0    0  501    0  0.00000000000E+00 -0.00000000000E+00 -0.25558365135E+04  0.25558365135E+04  0.00000000000E+00 0. -1.
         23    2    1    2    0    0  0.56496738934E+02  0.34067248897E+03 -0.57876395530E+03  0.68005424579E+03  0.90864927323E+02 0.  0.
        254    2    1    2    0    0 -0.56496738934E+02 -0.34067248897E+03 -0.18082254512E+04  0.20446293747E+04  0.88970802591E+03 0.  0.
         23    2    4    4    0    0  0.40426735028E+03 -0.14510793648E+03 -0.72119089589E+03  0.84461245623E+03  0.93624191138E+02 0.  0.
         23    2    4    4    0    0 -0.46076408922E+03 -0.19556455248E+03 -0.10870345553E+04  0.12000169185E+04  0.88585778382E+02 0.  0.
          3    1    3    3  502    0  0.88582741308E+01 -0.13868552411E+01 -0.47306019124E+01  0.10137602403E+02  0.00000000000E+00 0. -1.
         -3    1    3    3    0  502  0.47638464803E+02  0.34205934421E+03 -0.57403335339E+03  0.66991664339E+03  0.00000000000E+00 0.  1.
         11    1    5    5    0    0  0.37265478561E+03 -0.15262189865E+03 -0.69341111171E+03  0.80186283305E+03  0.00000000000E+00 0.  1.
        -11    1    5    5    0    0  0.31612564677E+02  0.75139621634E+01 -0.27779784175E+02  0.42749623176E+02  0.00000000000E+00 0. -1.
          4    1    6    6  503    0 -0.40363654652E+03 -0.18261064503E+03 -0.88548805958E+03  0.99013040203E+03  0.00000000000E+00 0.  1.
         -4    1    6    6    0  503 -0.57127542699E+02 -0.12953907457E+02 -0.20154649570E+03  0.20988651644E+03  0.00000000000E+00 0. -1.
<mgrwt>
<rscale>  0 0.13138426E+04</rscale>
<asrwt>0</asrwt>
<pdfrwt beam="1">  1        1 0.39320562E+00 0.13138426E+04</pdfrwt>
<pdfrwt beam="2">  1       -1 0.25976478E-01 0.13138426E+04</pdfrwt>
<totfact> 0.16023234E+01</totfact>
</mgrwt>
</event>
<event>
12    2  0.3561489E-008  0.1867441E+04  0.7818608E-02  0.8671235E-01
          1   -1    0    0  501    0  0.00000000000E+00  0.00000000000E+00  0.87766818215E+03  0.87766818215E+03  0.00000000000E+00 0. -1.
         -1   -1    0    0    0  501 -0.00000000000E+00 -0.00000000000E+00 -0.99335281823E+03  0.99335281823E+03  0.00000000000E+00 0.  1.
         23    2    1    2    0    0  0.40413874997E+03 -0.13557357539E+03 -0.61707819046E+03  0.75539249379E+03  0.90133251090E+02 0.  0.
        254    2    1    2    0    0 -0.40413874997E+03  0.13557357539E+03  0.50139355438E+03  0.11156285066E+04  0.90084579410E+03 0.  0.
         23    2    4    4    0    0  0.12123913934E+03  0.33404555562E+03  0.16102888910E+02  0.36778489731E+03  0.93386645308E+02 0.  0.
         23    2    4    4    0    0 -0.52537788931E+03 -0.19847198023E+03  0.48529066547E+03  0.74784360927E+03  0.91378227282E+02 0.  0.
          1    1    3    3  502    0  0.22720075442E+03 -0.12286809387E+03 -0.36356965032E+03  0.44598166098E+03  0.00000000000E+00 0. -1.
         -1    1    3    3    0  502  0.17693799556E+03 -0.12705481522E+02 -0.25350854014E+03  0.30941083280E+03  0.00000000000E+00 0.  1.
         11    1    5    5    0    0  0.10336550594E+02  0.53998039791E+02  0.36332071199E+02  0.65898801029E+02  0.00000000000E+00 0.  1.
        -11    1    5    5    0    0  0.11090258874E+03  0.28004751583E+03 -0.20229182289E+02  0.30188609628E+03  0.00000000000E+00 0. -1.
          1    1    6    6  503    0 -0.81342079410E+02 -0.11654090825E+02  0.10932393296E+03  0.13676283865E+03  0.00000000000E+00 0. -1.
         -1    1    6    6    0  503 -0.44403580990E+03 -0.18681788940E+03  0.37596673250E+03  0.61108077063E+03  0.00000000000E+00 0.  1.
<mgrwt>
<rscale>  0 0.18674412E+04</rscale>
<asrwt>0</asrwt>
<pdfrwt beam="1">  1        1 0.13502587E+00 0.18674412E+04</pdfrwt>
<pdfrwt beam="2">  1       -1 0.15282351E+00 0.18674412E+04</pdfrwt>
<totfact> 0.59090179E+00</totfact>
</mgrwt>
</event>
<event>
12    2  0.3561489E-008  0.1710963E+04  0.7818608E-02  0.8755136E-01
         -2   -1    0    0    0  501 -0.00000000000E+00  0.00000000000E+00  0.76008703892E+03  0.76008703892E+03  0.00000000000E+00 0.  1.
          2   -1    0    0  501    0  0.00000000000E+00 -0.00000000000E+00 -0.96284880819E+03  0.96284880819E+03  0.00000000000E+00 0. -1.
         23    2    1    2    0    0  0.39635913247E+03  0.83822427038E+02  0.38755953339E+03  0.56821011465E+03  0.92377385233E+02 0.  0.
        254    2    1    2    0    0 -0.39635913247E+03 -0.83822427038E+02 -0.59032130266E+03  0.11547257325E+04  0.90597213845E+03 0.  0.
         23    2    4    4    0    0 -0.18282317340E+03 -0.45805523203E+03 -0.49358470160E+03  0.70342458149E+03  0.89114397629E+02 0.  0.
         23    2    4    4    0    0 -0.21353595907E+03  0.37423280499E+03 -0.96736601055E+02  0.45130115096E+03  0.93096512960E+02 0.  0.
          3    1    3    3  502    0  0.23909006020E+03  0.85009624811E+02  0.27883365029E+03  0.37701312674E+03  0.00000000000E+00 0. -1.
         -3    1    3    3    0  502  0.15726907228E+03 -0.11871977732E+01  0.10872588310E+03  0.19119698792E+03  0.00000000000E+00 0.  1.
         11    1    5    5    0    0 -0.17478297066E+02 -0.91446580005E+01 -0.37954458847E+02  0.42774485206E+02  0.00000000000E+00 0. -1.
        -11    1    5    5    0    0 -0.16534487634E+03 -0.44891057403E+03 -0.45563024276E+03  0.66065009629E+03  0.00000000000E+00 0.  1.
          2    1    6    6  503    0  0.95822970768E+01  0.19821091031E+02 -0.49741406956E+01  0.22570736421E+02  0.00000000000E+00 0. -1.
         -2    1    6    6    0  503 -0.22311825615E+03  0.35441171396E+03 -0.91762460359E+02  0.42873041454E+03  0.00000000000E+00 0.  1.
<mgrwt>
<rscale>  0 0.17109634E+04</rscale>
<asrwt>0</asrwt>
<pdfrwt beam="1">  1        2 0.14813059E+00 0.17109634E+04</pdfrwt>
<pdfrwt beam="2">  1       -2 0.11693647E+00 0.17109634E+04</pdfrwt>
<totfact> 0.14330184E+01</totfact>
</mgrwt>
</event>
<event>
12    2  0.3561489E-008  0.1419798E+04  0.7818608E-02  0.8939611E-01
         -2   -1    0    0    0  501 -0.00000000000E+00  0.00000000000E+00  0.23854580620E+03  0.23854580620E+03  0.00000000000E+00 0.  1.
          2   -1    0    0  501    0  0.00000000000E+00 -0.00000000000E+00 -0.21126194901E+04  0.21126194901E+04  0.00000000000E+00 0. -1.
         23    2    1    2    0    0 -0.14043382378E+02  0.29601373125E+03 -0.96575052467E+02  0.32545490580E+03  0.93663276028E+02 0.  0.
        254    2    1    2    0    0  0.14043382378E+02 -0.29601373125E+03 -0.17774986314E+04  0.20257103905E+04  0.92529987343E+03 0.  0.
         23    2    4    4    0    0  0.12252573978E+03  0.21392335372E+03 -0.12527568707E+03  0.29078986053E+03  0.89938796070E+02 0.  0.
         23    2    4    4    0    0 -0.10848235740E+03 -0.50993708497E+03 -0.16522229444E+04  0.17349205300E+04  0.91128123832E+02 0.  0.
          4    1    3    3  502    0  0.24789727699E+02  0.12385735439E+03 -0.44904154351E+01  0.12639358633E+03  0.00000000000E+00 0. -1.
         -4    1    3    3    0  502 -0.38833110076E+02  0.17215637686E+03 -0.92084637032E+02  0.19906131947E+03  0.00000000000E+00 0.  1.
         11    1    5    5    0    0  0.39443680066E+00 -0.83680620875E+01 -0.12956575436E+01  0.84769553473E+01  0.00000000000E+00 0.  1.
        -11    1    5    5    0    0  0.12213130298E+03  0.22229141581E+03 -0.12398002953E+03  0.28231290518E+03  0.00000000000E+00 0. -1.
          1    1    6    6  503    0 -0.80089203094E+02 -0.47499726180E+03 -0.14566103456E+04  0.15341937224E+04  0.00000000000E+00 0. -1.
         -1    1    6    6    0  503 -0.28393154308E+02 -0.34939823178E+02 -0.19561259880E+03  0.20072680753E+03  0.00000000000E+00 0.  1.
<mgrwt>
<rscale>  0 0.14197979E+04</rscale>
<asrwt>0</asrwt>
<pdfrwt beam="1">  1        2 0.32501838E+00 0.14197979E+04</pdfrwt>
<pdfrwt beam="2">  1       -2 0.36699355E-01 0.14197979E+04</pdfrwt>
<totfact> 0.39332630E+01</totfact>
</mgrwt>
</event>
<event>
12    2  0.3561489E-008  0.1519563E+04  0.7818608E-02  0.8871547E-01
         -1   -1    0    0    0  501 -0.00000000000E+00  0.00000000000E+00  0.32349320911E+03  0.32349320911E+03  0.00000000000E+00 0.  1.
          1   -1    0    0  501    0  0.00000000000E+00 -0.00000000000E+00 -0.17844819288E+04  0.17844819288E+04  0.00000000000E+00 0. -1.
         23    2    1    2    0    0  0.14582320307E+03 -0.47801626287E+03 -0.51153089297E+03  0.72098714011E+03  0.91622309568E+02 0.  0.
        254    2    1    2    0    0 -0.14582320307E+03  0.47801626287E+03 -0.94945782666E+03  0.13869879978E+04  0.87892069448E+03 0.  0.
         23    2    4    4    0    0  0.30606814468E+02  0.62824469628E+03 -0.94392152225E+03  0.11379319653E+04  0.90956813717E+02 0.  0.
         23    2    4    4    0    0 -0.17643001754E+03 -0.15022843341E+03 -0.55363044158E+01  0.24905603247E+03  0.91115988437E+02 0.  0.
          3    1    3    3  502    0  0.11113149580E+03 -0.41012071236E+03 -0.47206436741E+03  0.63513303728E+03  0.00000000000E+00 0. -1.
         -3    1    3    3    0  502  0.34691707274E+02 -0.67895550508E+02 -0.39466525570E+02  0.85854102831E+02  0.00000000000E+00 0.  1.
         11    1    5    5    0    0 -0.40510800519E+00  0.43412259818E+03 -0.58211200831E+03  0.72616594838E+03  0.00000000000E+00 0.  1.
        -11    1    5    5    0    0  0.31011922474E+02  0.19412209810E+03 -0.36180951394E+03  0.41176601691E+03  0.00000000000E+00 0. -1.
          1    1    6    6  503    0 -0.38647048032E+02  0.51559428537E+01  0.11594145566E+02  0.40676802722E+02  0.00000000000E+00 0. -1.
         -1    1    6    6    0  503 -0.13778296951E+03 -0.15538437627E+03 -0.17130449982E+02  0.20837922975E+03  0.00000000000E+00 0.  1.
<mgrwt>
<rscale>  0 0.15195628E+04</rscale>
<asrwt>0</asrwt>
<pdfrwt beam="1">  1        1 0.27453568E+00 0.15195628E+04</pdfrwt>
<pdfrwt beam="2">  1       -1 0.49768186E-01 0.15195628E+04</pdfrwt>
<totfact> 0.16328772E+01</totfact>
</mgrwt>
</event>
<event>
12    2  0.3561489E-008  0.1748283E+04  0.7818608E-02  0.8734296E-01
         -2   -1    0    0    0  501 -0.00000000000E+00  0.00000000000E+00  0.51165666387E+03  0.51165666387E+03  0.00000000000E+00 0. -1.
          2   -1    0    0  501    0  0.00000000000E+00 -0.00000000000E+00 -0.14934291999E+04  0.14934291999E+04  0.00000000000E+00 0.  1.
         23    2    1    2    0    0  0.55081793500E+03 -0.23440943541E+03 -0.61655394975E+03  0.86387256066E+03  0.88254445686E+02 0.  0.
        254    2    1    2    0    0 -0.55081793500E+03  0.23440943541E+03 -0.36521858628E+03  0.11412133031E+04  0.90035271228E+03 0.  0.
         23    2    4    4    0    0 -0.37393935278E+03  0.33180519883E+03  0.19015881416E+03  0.54311700225E+03  0.94288779840E+02 0.  0.
         23    2    4    4    0    0 -0.17687858221E+03 -0.97395763418E+02 -0.55537740044E+03  0.59809630085E+03  0.92212583715E+02 0.  0.
          3    1    3    3  502    0  0.28759017394E+02  0.63542953052E+01 -0.21494824049E+02  0.36462111995E+02  0.00000000000E+00 0. -1.
         -3    1    3    3    0  502  0.52205891760E+03 -0.24076373072E+03 -0.59505912571E+03  0.82741044867E+03  0.00000000000E+00 0.  1.
         11    1    5    5    0    0 -0.32132442932E+03  0.29346596995E+03  0.12923110425E+03  0.45395191673E+03  0.00000000000E+00 0. -1.
        -11    1    5    5    0    0 -0.52614923465E+02  0.38339228883E+02  0.60927709906E+02  0.89165085526E+02  0.00000000000E+00 0.  1.
          4    1    6    6  503    0 -0.13672492294E+03 -0.26219871762E+02 -0.37723835802E+03  0.40210690741E+03  0.00000000000E+00 0. -1.
         -4    1    6    6    0  503 -0.40153659276E+02 -0.71175891656E+02 -0.17813904242E+03  0.19598939344E+03  0.00000000000E+00 0.  1.
<mgrwt>
<rscale>  0 0.17482826E+04</rscale>
<asrwt>0</asrwt>
<pdfrwt beam="1">  1        2 0.22975833E+00 0.17482826E+04</pdfrwt>
<pdfrwt beam="2">  1       -2 0.78716412E-01 0.17482826E+04</pdfrwt>
<totfact> 0.17396937E+01</totfact>
</mgrwt>
</event>
<event>
12    2  0.3561489E-008  0.2109643E+04  0.7818608E-02  0.8557007E-01
         -2   -1    0    0    0  501 -0.00000000000E+00  0.00000000000E+00  0.37302119486E+03  0.37302119486E+03  0.00000000000E+00 0.  1.
          2   -1    0    0  501    0  0.00000000000E+00 -0.00000000000E+00 -0.29828034879E+04  0.29828034879E+04  0.00000000000E+00 0. -1.
         23    2    1    2    0    0 -0.99452151142E+02 -0.81350331387E+03 -0.15234091547E+04  0.17322681062E+04  0.91098667669E+02 0.  0.
        254    2    1    2    0    0  0.99452151142E+02  0.81350331387E+03 -0.10863731384E+04  0.16235565765E+04  0.88546653770E+03 0.  0.
         23    2    4    4    0    0  0.35193973075E+02 -0.77684420599E+02  0.82000381182E+02  0.14991059660E+03  0.92063236497E+02 0.  0.
         23    2    4    4    0    0  0.64258178067E+02  0.89118773447E+03 -0.11683735195E+04  0.14736459799E+04  0.90504704111E+02 0.  0.
          1    1    3    3  502    0 -0.10952649580E+03 -0.69085142918E+03 -0.13366002014E+04  0.15085661566E+04  0.00000000000E+00 0. -1.
         -1    1    3    3    0  502  0.10074344659E+02 -0.12265188469E+03 -0.18680895328E+03  0.22370194963E+03  0.00000000000E+00 0.  1.
         11    1    5    5    0    0 -0.20212640807E+02 -0.55703644081E+02  0.16850222336E+02  0.61606629554E+02  0.00000000000E+00 0. -1.
        -11    1    5    5    0    0  0.55406613883E+02 -0.21980776518E+02  0.65150158846E+02  0.88303967045E+02  0.00000000000E+00 0.  1.
          3    1    6    6  503    0  0.15352801598E+02  0.14084671617E+03 -0.13539192189E+03  0.19597060618E+03  0.00000000000E+00 0. -1.
         -3    1    6    6    0  503  0.48905376468E+02  0.75034101830E+03 -0.10329815977E+04  0.12776753738E+04  0.00000000000E+00 0.  1.
<mgrwt>
<rscale>  0 0.21096435E+04</rscale>
<asrwt>0</asrwt>
<pdfrwt beam="1">  1        2 0.45889282E+00 0.21096435E+04</pdfrwt>
<pdfrwt beam="2">  1       -2 0.57387879E-01 0.21096435E+04</pdfrwt>
<totfact> 0.46831677E+00</totfact>
</mgrwt>
</event>
<event>
12    2  0.3561489E-008  0.1522103E+04  0.7818608E-02  0.8869886E-01
         -4   -1    0    0    0  501 -0.00000000000E+00  0.00000000000E+00  0.81700298331E+03  0.81700298331E+03  0.00000000000E+00 0.  1.
          4   -1    0    0  501    0  0.00000000000E+00 -0.00000000000E+00 -0.70893160988E+03  0.70893160988E+03  0.00000000000E+00 0. -1.
         23    2    1    2    0    0 -0.18379715445E+03  0.43993676970E+03 -0.52194962591E+02  0.48778281703E+03  0.88780668837E+02 0.  0.
        254    2    1    2    0    0  0.18379715445E+03 -0.43993676970E+03  0.16026633602E+03  0.10381517761E+04  0.90815640533E+03 0.  0.
         23    2    4    4    0    0 -0.79113743243E+02 -0.31977144282E+03  0.48554395458E+03  0.59370901375E+03  0.90690138166E+02 0.  0.
         23    2    4    4    0    0  0.26291089769E+03 -0.12016532688E+03 -0.32527761856E+03  0.44444276240E+03  0.90343754671E+02 0.  0.
          4    1    3    3  502    0 -0.51727076461E+02  0.46654151001E+02 -0.96952206116E-01  0.69658521694E+02  0.00000000000E+00 0. -1.
         -4    1    3    3    0  502 -0.13207007799E+03  0.39328261870E+03 -0.52098010385E+02  0.41812429534E+03  0.00000000000E+00 0.  1.
         11    1    5    5    0    0 -0.24107208583E+02 -0.11766351447E+03  0.10595138415E+03  0.16016103130E+03  0.00000000000E+00 0. -1.
        -11    1    5    5    0    0 -0.55006534660E+02 -0.20210792835E+03  0.37959257043E+03  0.43354798245E+03  0.00000000000E+00 0.  1.
          1    1    6    6  503    0  0.20413529050E+02 -0.44097914598E+02 -0.47745394569E+02  0.68124598661E+02  0.00000000000E+00 0. -1.
         -1    1    6    6    0  503  0.24249736864E+03 -0.76067412279E+02 -0.27753222399E+03  0.37631816374E+03  0.00000000000E+00 0.  1.
<mgrwt>
<rscale>  0 0.15221028E+04</rscale>
<asrwt>0</asrwt>
<pdfrwt beam="1">  1        4 0.10906640E+00 0.15221028E+04</pdfrwt>
<pdfrwt beam="2">  1       -4 0.12569277E+00 0.15221028E+04</pdfrwt>
<totfact> 0.60855166E-01</totfact>
</mgrwt>
</event>
<event>
12    2  0.3561489E-008  0.1648320E+04  0.7818608E-02  0.8791401E-01
         -1   -1    0    0    0  501 -0.00000000000E+00  0.00000000000E+00  0.78662773044E+03  0.78662773044E+03  0.00000000000E+00 0.  1.
          1   -1    0    0  501    0  0.00000000000E+00 -0.00000000000E+00 -0.86348300566E+03  0.86348300566E+03  0.00000000000E+00 0. -1.
         23    2    1    2    0    0 -0.11101246736E+02  0.31146023809E+03  0.45397305107E+03  0.55993915116E+03  0.10153622172E+03 0.  0.
        254    2    1    2    0    0  0.11101246736E+02 -0.31146023809E+03 -0.53082832628E+03  0.10901715849E+04  0.89975810918E+03 0.  0.
         23    2    4    4    0    0 -0.26988541722E+02 -0.31818352428E+03  0.17734807379E+03  0.37623380647E+03  0.90168738219E+02 0.  0.
         23    2    4    4    0    0  0.38089788458E+02  0.67232861877E+01 -0.70817640007E+03  0.71393777846E+03  0.81837053583E+02 0.  0.
          4    1    3    3  502    0  0.29080250715E+02  0.56035925081E+02  0.13726254036E+03  0.15108504515E+03  0.00000000000E+00 0. -1.
         -4    1    3    3    0  502 -0.40181497451E+02  0.25542431301E+03  0.31671051071E+03  0.40885410602E+03  0.00000000000E+00 0.  1.
         11    1    5    5    0    0 -0.22939179012E+02 -0.10407982316E+03  0.10651897771E+03  0.15068214272E+03  0.00000000000E+00 0. -1.
        -11    1    5    5    0    0 -0.40493627103E+01 -0.21410370112E+03  0.70829096082E+02  0.22555166376E+03  0.00000000000E+00 0.  1.
          1    1    6    6  503    0  0.10501599873E+02  0.34505729142E+02 -0.54250544721E+03  0.54370312597E+03  0.00000000000E+00 0. -1.
         -1    1    6    6    0  503  0.27588188586E+02 -0.27782442955E+02 -0.16567095286E+03  0.17023465249E+03  0.00000000000E+00 0.  1.
<mgrwt>
<rscale>  0 0.16483200E+04</rscale>
<asrwt>0</asrwt>
<pdfrwt beam="1">  1        1 0.13284354E+00 0.16483200E+04</pdfrwt>
<pdfrwt beam="2">  1       -1 0.12101965E+00 0.16483200E+04</pdfrwt>
<totfact> 0.11309202E+01</totfact>
</mgrwt>
</event>
<event>
12    2  0.3561489E-008  0.1441268E+04  0.7818608E-02  0.8924476E-01
         -2   -1    0    0    0  501 -0.00000000000E+00  0.00000000000E+00  0.45153815156E+03  0.45153815156E+03  0.00000000000E+00 0.  1.
          2   -1    0    0  501    0  0.00000000000E+00 -0.00000000000E+00 -0.11500992768E+04  0.11500992768E+04  0.00000000000E+00 0. -1.
         23    2    1    2    0    0 -0.22545938030E+03 -0.18771306260E+03 -0.58928897301E+03  0.66448690104E+03  0.90626827757E+02 0.  0.
        254    2    1    2    0    0  0.22545938030E+03  0.18771306260E+03 -0.10927215225E+03  0.93715052734E+03  0.88331341075E+03 0.  0.
         23    2    4    4    0    0  0.19987480495E+03 -0.32877525976E+03 -0.11561394955E+03  0.41200410768E+03  0.91310954066E+02 0.  0.
         23    2    4    4    0    0  0.25584575347E+02  0.51648832236E+03  0.63417973043E+01  0.52514641966E+03  0.91234785332E+02 0.  0.
          4    1    3    3  502    0 -0.92371560003E+02 -0.62834295899E+02 -0.13706860318E+03  0.17682888852E+03  0.00000000000E+00 0.  1.
         -4    1    3    3    0  502 -0.13308782029E+03 -0.12487876670E+03 -0.45222036983E+03  0.48765801252E+03  0.00000000000E+00 0. -1.
         11    1    5    5    0    0  0.20195430437E+03 -0.27813249860E+03 -0.90479980789E+02  0.35542911354E+03  0.00000000000E+00 0.  1.
        -11    1    5    5    0    0 -0.20794994233E+01 -0.50642761163E+02 -0.25133968764E+02  0.56574994140E+02  0.00000000000E+00 0. -1.
          3    1    6    6  503    0  0.47627115774E+02  0.14030310884E+03 -0.30738197037E+01  0.14819835651E+03  0.00000000000E+00 0. -1.
         -3    1    6    6    0  503 -0.22042540427E+02  0.37618521353E+03  0.94156170081E+01  0.37694806314E+03  0.00000000000E+00 0.  1.
<mgrwt>
<rscale>  0 0.14412685E+04</rscale>
<asrwt>0</asrwt>
<pdfrwt beam="1">  1        2 0.17693835E+00 0.14412685E+04</pdfrwt>
<pdfrwt beam="2">  1       -2 0.69467408E-01 0.14412685E+04</pdfrwt>
<totfact> 0.37238812E+01</totfact>
</mgrwt>
</event>
<event>
12    2  0.3561489E-008  0.1710659E+04  0.7818608E-02  0.8755308E-01
          1   -1    0    0  501    0  0.00000000000E+00  0.00000000000E+00  0.35541795419E+04  0.35541795419E+04  0.00000000000E+00 0. -1.
         -1   -1    0    0    0  501 -0.00000000000E+00 -0.00000000000E+00 -0.20583900331E+03  0.20583900331E+03  0.00000000000E+00 0.  1.
         23    2    1    2    0    0  0.40953970614E+03  0.30748137037E+02  0.21511027212E+03  0.47291708204E+03  0.93326944009E+02 0.  0.
        254    2    1    2    0    0 -0.40953970614E+03 -0.30748137037E+02  0.31332302665E+04  0.32871014632E+04  0.90511651609E+03 0.  0.
         23    2    4    4    0    0 -0.21550804763E+03 -0.12697309548E+03  0.17371386598E+03  0.31823904672E+03  0.92378017174E+02 0.  0.
         23    2    4    4    0    0 -0.19403165851E+03  0.96224958440E+02  0.29595164005E+04  0.29688624165E+04  0.92191083976E+02 0.  0.
          3    1    3    3  502    0  0.50484167428E+02  0.17199981294E+02  0.63509683184E+02  0.82933529863E+02  0.00000000000E+00 0. -1.
         -3    1    3    3    0  502  0.35905553871E+03  0.13548155743E+02  0.15160058894E+03  0.38998355217E+03  0.00000000000E+00 0.  1.
         11    1    5    5    0    0 -0.19816545981E+03 -0.14168866545E+03  0.15455311536E+03  0.28849938102E+03  0.00000000000E+00 0. -1.
        -11    1    5    5    0    0 -0.17342587819E+02  0.14715569976E+02  0.19160750614E+02  0.29739665702E+02  0.00000000000E+00 0.  1.
          4    1    6    6  503    0 -0.91642613670E+02  0.81404057531E+02  0.20081160657E+04  0.20118536534E+04  0.00000000000E+00 0. -1.
         -4    1    6    6    0  503 -0.10238904484E+03  0.14820900908E+02  0.95140033476E+03  0.95700876307E+03  0.00000000000E+00 0.  1.
<mgrwt>
<rscale>  0 0.17106593E+04</rscale>
<asrwt>0</asrwt>
<pdfrwt beam="1">  1        1 0.54679681E+00 0.17106593E+04</pdfrwt>
<pdfrwt beam="2">  1       -1 0.31667541E-01 0.17106593E+04</pdfrwt>
<totfact> 0.20128865E+00</totfact>
</mgrwt>
</event>
<event>
12    2  0.3561489E-008  0.1170084E+04  0.7818608E-02  0.9139453E-01
          2   -1    0    0  501    0  0.00000000000E+00  0.00000000000E+00  0.61373461406E+03  0.61373461406E+03  0.00000000000E+00 0. -1.
         -2   -1    0    0    0  501 -0.00000000000E+00 -0.00000000000E+00 -0.55769083620E+03  0.55769083620E+03  0.00000000000E+00 0.  1.
         23    2    1    2    0    0  0.16987819673E+03 -0.11695354521E+03  0.63590316916E+02  0.24599907443E+03  0.11804695146E+03 0.  0.
        254    2    1    2    0    0 -0.16987819673E+03  0.11695354521E+03 -0.75465390575E+01  0.92542637583E+03  0.90211988858E+03 0.  0.
         23    2    4    4    0    0  0.53500233908E+02  0.24246333271E+03 -0.38055496058E+03  0.46390190368E+03  0.93446003018E+02 0.  0.
         23    2    4    4    0    0 -0.22337843064E+03 -0.12550978750E+03  0.37300842152E+03  0.46152447215E+03  0.90658291569E+02 0.  0.
          4    1    3    3  502    0  0.15595998621E+03 -0.92963285530E+02  0.94321611141E+02  0.20460267858E+03  0.00000000000E+00 0. -1.
         -4    1    3    3    0  502  0.13918210523E+02 -0.23990259685E+02 -0.30731294225E+02  0.41396395841E+02  0.00000000000E+00 0.  1.
         11    1    5    5    0    0  0.36814384595E+02  0.56254374977E+02 -0.48724545921E+02  0.83029723547E+02  0.00000000000E+00 0. -1.
        -11    1    5    5    0    0  0.16685849313E+02  0.18620895774E+03 -0.33183041466E+03  0.38087218013E+03  0.00000000000E+00 0.  1.
          3    1    6    6  503    0 -0.83237647385E+02 -0.28429543908E+02  0.64598361260E+02  0.10913154075E+03  0.00000000000E+00 0. -1.
         -3    1    6    6    0  503 -0.14014078326E+03 -0.97080243590E+02  0.30841006026E+03  0.35239293140E+03  0.00000000000E+00 0.  1.
<mgrwt>
<rscale>  0 0.11700840E+04</rscale>
<asrwt>0</asrwt>
<pdfrwt beam="1">  1        2 0.94420710E-01 0.11700840E+04</pdfrwt>
<pdfrwt beam="2">  1       -2 0.85798590E-01 0.11700840E+04</pdfrwt>
<totfact> 0.56290841E+01</totfact>
</mgrwt>
</event>
<event>
12    2  0.3561489E-008  0.2012670E+04  0.7818608E-02  0.8600720E-01
          2   -1    0    0  501    0  0.00000000000E+00  0.00000000000E+00  0.93420715202E+03  0.93420715202E+03  0.00000000000E+00 0. -1.
         -2   -1    0    0    0  501 -0.00000000000E+00 -0.00000000000E+00 -0.10840317264E+04  0.10840317264E+04  0.00000000000E+00 0.  1.
         23    2    1    2    0    0 -0.43390565353E+03  0.67049631207E+03  0.24032410630E+02  0.80427440101E+03  0.91871294188E+02 0.  0.
        254    2    1    2    0    0  0.43390565353E+03 -0.67049631207E+03 -0.17385698504E+03  0.12139644774E+04  0.89757678254E+03 0.  0.
         23    2    4    4    0    0  0.24259279900E+03 -0.25911165847E+03 -0.51977469777E+03  0.63611387898E+03  0.92114129758E+02 0.  0.
         23    2    4    4    0    0  0.19131285453E+03 -0.41138465361E+03  0.34591771273E+03  0.57785059846E+03  0.91729540647E+02 0.  0.
          3    1    3    3  502    0 -0.21678126536E+03  0.39411140731E+03  0.45842557109E+02  0.45212770146E+03  0.00000000000E+00 0. -1.
         -3    1    3    3    0  502 -0.21712438817E+03  0.27638490477E+03 -0.21810146479E+02  0.35214669956E+03  0.00000000000E+00 0.  1.
         11    1    5    5    0    0  0.38515776642E+02 -0.51858636825E+02 -0.42933641787E+02  0.77563398977E+02  0.00000000000E+00 0. -1.
        -11    1    5    5    0    0  0.20407702236E+03 -0.20725302164E+03 -0.47684105599E+03  0.55855048000E+03  0.00000000000E+00 0.  1.
          2    1    6    6  503    0  0.63930205749E+02 -0.20593957444E+03  0.11895354211E+03  0.24626839974E+03  0.00000000000E+00 0. -1.
         -2    1    6    6    0  503  0.12738264878E+03 -0.20544507916E+03  0.22696417062E+03  0.33158219872E+03  0.00000000000E+00 0.  1.
<mgrwt>
<rscale>  0 0.20126701E+04</rscale>
<asrwt>0</asrwt>
<pdfrwt beam="1">  1        2 0.14372418E+00 0.20126701E+04</pdfrwt>
<pdfrwt beam="2">  1       -2 0.16677411E+00 0.20126701E+04</pdfrwt>
<totfact> 0.58005247E+00</totfact>
</mgrwt>
</event>
<event>
12    2  0.3561489E-008  0.1501889E+04  0.7818608E-02  0.8883198E-01
         -2   -1    0    0    0  501 -0.00000000000E+00  0.00000000000E+00  0.43335763055E+03  0.43335763055E+03  0.00000000000E+00 0.  1.
          2   -1    0    0  501    0  0.00000000000E+00 -0.00000000000E+00 -0.13012753881E+04  0.13012753881E+04  0.00000000000E+00 0. -1.
         23    2    1    2    0    0  0.54815857280E+02  0.22077197844E+03 -0.74521783788E+03  0.78472857431E+03  0.93296649304E+02 0.  0.
        254    2    1    2    0    0 -0.54815857280E+02 -0.22077197844E+03 -0.12269991968E+03  0.94990444435E+03  0.91406681290E+03 0.  0.
         23    2    4    4    0    0  0.19213311228E+03 -0.31858818320E+03  0.26866210091E+03  0.46820899505E+03  0.92880435366E+02 0.  0.
         23    2    4    4    0    0 -0.24694896956E+03  0.97816204756E+02 -0.39136202059E+03  0.48169544930E+03  0.91183722421E+02 0.  0.
          4    1    3    3  502    0  0.18436735031E+02  0.18085124780E+03 -0.65326284919E+03  0.67808512531E+03  0.00000000000E+00 0. -1.
         -4    1    3    3    0  502  0.36379122248E+02  0.39920730643E+02 -0.91954988683E+02  0.10664344900E+03  0.00000000000E+00 0.  1.
         11    1    5    5    0    0  0.83486925624E+02 -0.21131469432E+03  0.19144996301E+03  0.29711454882E+03  0.00000000000E+00 0.  1.
        -11    1    5    5    0    0  0.10864618666E+03 -0.10727348888E+03  0.77212137902E+02  0.17109444623E+03  0.00000000000E+00 0. -1.
          4    1    6    6  503    0 -0.53246750880E+02 -0.28492755747E+01 -0.34990479982E+02  0.63778276395E+02  0.00000000000E+00 0. -1.
         -4    1    6    6    0  503 -0.19370221868E+03  0.10066548033E+03 -0.35637154061E+03  0.41791717290E+03  0.00000000000E+00 0.  1.
<mgrwt>
<rscale>  0 0.15018890E+04</rscale>
<asrwt>0</asrwt>
<pdfrwt beam="1">  1        2 0.20019621E+00 0.15018890E+04</pdfrwt>
<pdfrwt beam="2">  1       -2 0.66670406E-01 0.15018890E+04</pdfrwt>
<totfact> 0.32950919E+01</totfact>
</mgrwt>
</event>
<event>
12    2  0.3561489E-008  0.1541272E+04  0.7818608E-02  0.8857462E-01
         -3   -1    0    0    0  501 -0.00000000000E+00  0.00000000000E+00  0.77489829857E+03  0.77489829857E+03  0.00000000000E+00 0.  1.
          3   -1    0    0  501    0  0.00000000000E+00 -0.00000000000E+00 -0.76639698370E+03  0.76639698370E+03  0.00000000000E+00 0. -1.
         23    2    1    2    0    0  0.11688652305E+03 -0.30724811104E+02  0.48270212107E+03  0.50517705496E+03  0.87155297507E+02 0.  0.
        254    2    1    2    0    0 -0.11688652305E+03  0.30724811104E+02 -0.47420080620E+03  0.10361182273E+04  0.91327329045E+03 0.  0.
         23    2    4    4    0    0 -0.90844539769E+02  0.63314636786E+02  0.25883044216E+03  0.29595705739E+03  0.91301196004E+02 0.  0.
         23    2    4    4    0    0 -0.26041983276E+02 -0.32589825681E+02 -0.73303124837E+03  0.74016116991E+03  0.93613379020E+02 0.  0.
          2    1    3    3  502    0 -0.88851889231E+01 -0.16750906488E+02  0.33538165275E+02  0.38527236864E+02  0.00000000000E+00 0. -1.
         -2    1    3    3    0  502  0.12577171197E+03 -0.13973904616E+02  0.44916395580E+03  0.46664981810E+03  0.00000000000E+00 0.  1.
         11    1    5    5    0    0 -0.40447350036E+02 -0.84779671892E+01  0.30514353892E+02  0.51371099327E+02  0.00000000000E+00 0. -1.
        -11    1    5    5    0    0 -0.50397189733E+02  0.71792603975E+02  0.22831608827E+03  0.24458595806E+03  0.00000000000E+00 0.  1.
          4    1    6    6  503    0  0.16965147235E+02 -0.91216393903E+00 -0.25651571935E+02  0.30767700702E+02  0.00000000000E+00 0. -1.
         -4    1    6    6    0  503 -0.43007130511E+02 -0.31677661742E+02 -0.70737967643E+03  0.70939346921E+03  0.00000000000E+00 0.  1.
<mgrwt>
<rscale>  0 0.15412718E+04</rscale>
<asrwt>0</asrwt>
<pdfrwt beam="1">  1        3 0.11790723E+00 0.15412718E+04</pdfrwt>
<pdfrwt beam="2">  1       -3 0.11921512E+00 0.15412718E+04</pdfrwt>
<totfact> 0.85701710E-01</totfact>
</mgrwt>
</event>
<event>
12    2  0.3561489E-008  0.1773237E+04  0.7818608E-02  0.8720663E-01
          2   -1    0    0  501    0  0.00000000000E+00  0.00000000000E+00  0.17144456302E+04  0.17144456302E+04  0.00000000000E+00 0. -1.
         -2   -1    0    0    0  501 -0.00000000000E+00 -0.00000000000E+00 -0.45851118705E+03  0.45851118705E+03  0.00000000000E+00 0.  1.
         23    2    1    2    0    0  0.43184133134E+03 -0.97354960858E+02  0.10579084426E+04  0.11502766206E+04  0.89448907715E+02 0.  0.
        254    2    1    2    0    0 -0.43184133134E+03  0.97354960858E+02  0.19802600059E+03  0.10226801967E+04  0.90038634151E+03 0.  0.
         23    2    4    4    0    0 -0.29756662248E+03 -0.38432803453E+03  0.86708077015E+02  0.50228705761E+03  0.92304196461E+02 0.  0.
         23    2    4    4    0    0 -0.13427470886E+03  0.48168299539E+03  0.11131792357E+03  0.52039313910E+03  0.91482969030E+02 0.  0.
          1    1    3    3  502    0  0.43294101025E+03 -0.10220020094E+03  0.10537515405E+04  0.11437985437E+04  0.00000000000E+00 0. -1.
         -1    1    3    3    0  502 -0.10996789141E+01  0.48452400800E+01  0.41569020600E+01  0.64780768661E+01  0.00000000000E+00 0.  1.
         11    1    5    5    0    0 -0.17940959964E+03 -0.17250016278E+03  0.72893361831E+02  0.25934061156E+03  0.00000000000E+00 0. -1.
        -11    1    5    5    0    0 -0.11815702284E+03 -0.21182787175E+03  0.13814715184E+02  0.24294644605E+03  0.00000000000E+00 0.  1.
          3    1    6    6  503    0 -0.14111868825E+03  0.42397260784E+03  0.78600968076E+02  0.45370184985E+03  0.00000000000E+00 0. -1.
         -3    1    6    6    0  503  0.68439793841E+01  0.57710387550E+02  0.32716955497E+02  0.66691289251E+02  0.00000000000E+00 0.  1.
<mgrwt>
<rscale>  0 0.17732372E+04</rscale>
<asrwt>0</asrwt>
<pdfrwt beam="1">  1        2 0.26376086E+00 0.17732372E+04</pdfrwt>
<pdfrwt beam="2">  1       -2 0.70540184E-01 0.17732372E+04</pdfrwt>
<totfact> 0.16646734E+01</totfact>
</mgrwt>
</event>
<event>
12    2  0.3561489E-008  0.1514515E+04  0.7818608E-02  0.8874858E-01
         -2   -1    0    0    0  501 -0.00000000000E+00  0.00000000000E+00  0.24818988784E+03  0.24818988784E+03  0.00000000000E+00 0.  1.
          2   -1    0    0  501    0  0.00000000000E+00 -0.00000000000E+00 -0.23104836913E+04  0.23104836913E+04  0.00000000000E+00 0. -1.
         23    2    1    2    0    0  0.11281492884E+03  0.38511024415E+03 -0.22478468902E+03  0.46886187947E+03  0.90918630033E+02 0.  0.
        254    2    1    2    0    0 -0.11281492884E+03 -0.38511024415E+03 -0.18375091144E+04  0.20898116996E+04  0.91095339404E+03 0.  0.
         23    2    4    4    0    0  0.11944540877E+03  0.51729962503E+02  0.25588798150E+02  0.16011304980E+03  0.89656050706E+02 0.  0.
         23    2    4    4    0    0 -0.23226033761E+03 -0.43684020665E+03 -0.18630979126E+04  0.19296986498E+04  0.88480601676E+02 0.  0.
          3    1    3    3  502    0  0.45255198351E+02  0.87359881746E+02 -0.17767143748E+02  0.99977263982E+02  0.00000000000E+00 0. -1.
         -3    1    3    3    0  502  0.67559730487E+02  0.29775036240E+03 -0.20701754527E+03  0.36888461549E+03  0.00000000000E+00 0.  1.
         11    1    5    5    0    0  0.10975229915E+03  0.28769957885E+02  0.51110750802E+02  0.12444109648E+03  0.00000000000E+00 0.  1.
        -11    1    5    5    0    0  0.96931096129E+01  0.22960004619E+02 -0.25521952652E+02  0.35671953314E+02  0.00000000000E+00 0. -1.
          1    1    6    6  503    0 -0.44372389372E+02 -0.39831255895E+02 -0.15616930721E+03  0.16716545815E+03  0.00000000000E+00 0. -1.
         -1    1    6    6    0  503 -0.18788794823E+03 -0.39700895075E+03 -0.17069286053E+04  0.17625331917E+04  0.00000000000E+00 0.  1.
<mgrwt>
<rscale>  0 0.15145147E+04</rscale>
<asrwt>0</asrwt>
<pdfrwt beam="1">  1        2 0.35545904E+00 0.15145147E+04</pdfrwt>
<pdfrwt beam="2">  1       -2 0.38183059E-01 0.15145147E+04</pdfrwt>
<totfact> 0.27994389E+01</totfact>
</mgrwt>
</event>
<event>
12    2  0.3561489E-008  0.2779931E+04  0.7818608E-02  0.8309526E-01
          2   -1    0    0  501    0  0.00000000000E+00  0.00000000000E+00  0.11495330439E+04  0.11495330439E+04  0.00000000000E+00 0. -1.
         -2   -1    0    0    0  501 -0.00000000000E+00 -0.00000000000E+00 -0.16806860960E+04  0.16806860960E+04  0.00000000000E+00 0.  1.
         23    2    1    2    0    0  0.14449436465E+03  0.58408670264E+03 -0.13423625653E+04  0.14737330877E+04  0.88972239088E+02 0.  0.
        254    2    1    2    0    0 -0.14449436465E+03 -0.58408670264E+03  0.81120951324E+03  0.13564860522E+04  0.90551512287E+03 0.  0.
         23    2    4    4    0    0 -0.30712234425E+03  0.56856811346E+02  0.26145728473E+02  0.32594577238E+03  0.89443927029E+02 0.  0.
         23    2    4    4    0    0  0.16262797961E+03 -0.64094351399E+03  0.78506378476E+03  0.10305402798E+04  0.91824148472E+02 0.  0.
          1    1    3    3  502    0  0.12098762286E+03  0.40389212244E+03 -0.84808040577E+03  0.94710465425E+03  0.00000000000E+00 0. -1.
         -1    1    3    3    0  502  0.23506741792E+02  0.18019458020E+03 -0.49428215957E+03  0.52662843344E+03  0.00000000000E+00 0.  1.
         11    1    5    5    0    0 -0.28747353442E+03  0.71679347559E+02  0.98720498695E+01  0.29643957095E+03  0.00000000000E+00 0.  1.
        -11    1    5    5    0    0 -0.19648809834E+02 -0.14822536213E+02  0.16273678604E+02  0.29506201432E+02  0.00000000000E+00 0. -1.
          1    1    6    6  503    0  0.23514340737E+02 -0.19055035647E+02  0.32462395216E+02  0.44382718562E+02  0.00000000000E+00 0. -1.
         -1    1    6    6    0  503  0.13911363887E+03 -0.62188847834E+03  0.75260138955E+03  0.98615756123E+03  0.00000000000E+00 0.  1.
<mgrwt>
<rscale>  0 0.27799311E+04</rscale>
<asrwt>0</asrwt>
<pdfrwt beam="1">  1        2 0.17685124E+00 0.27799311E+04</pdfrwt>
<pdfrwt beam="2">  1       -2 0.25856709E+00 0.27799311E+04</pdfrwt>
<totfact> 0.10080461E+00</totfact>
</mgrwt>
</event>
<event>
12    2  0.3561489E-008  0.1781643E+04  0.7818608E-02  0.8716123E-01
          1   -1    0    0  501    0  0.00000000000E+00  0.00000000000E+00  0.30602314724E+04  0.30602314724E+04  0.00000000000E+00 0. -1.
         -1   -1    0    0    0  501 -0.00000000000E+00 -0.00000000000E+00 -0.25931480204E+03  0.25931480204E+03  0.00000000000E+00 0.  1.
         23    2    1    2    0    0  0.35479531089E+03  0.21618320300E+03  0.19852022809E+04  0.20302783389E+04  0.91581370298E+02 0.  0.
        254    2    1    2    0    0 -0.35479531089E+03 -0.21618320300E+03  0.81571438944E+03  0.12892679355E+04  0.90785844412E+03 0.  0.
         23    2    4    4    0    0 -0.60721581075E+03  0.14572842654E+02  0.35831939528E+03  0.71002708572E+03  0.82597002739E+02 0.  0.
         23    2    4    4    0    0  0.25242049985E+03 -0.23075604565E+03  0.45739499417E+03  0.57924084982E+03  0.96671195587E+02 0.  0.
          1    1    3    3  502    0  0.32603408443E+03  0.22378983940E+03  0.18277583840E+04  0.18700483488E+04  0.00000000000E+00 0. -1.
         -1    1    3    3    0  502  0.28761226469E+02 -0.76066364022E+01  0.15744389694E+03  0.16022999016E+03  0.00000000000E+00 0.  1.
         11    1    5    5    0    0 -0.45767412316E+03 -0.15702330422E+02  0.24049142495E+03  0.51725070485E+03  0.00000000000E+00 0. -1.
        -11    1    5    5    0    0 -0.14954168758E+03  0.30275173076E+02  0.11782797033E+03  0.19277638087E+03  0.00000000000E+00 0.  1.
          3    1    6    6  503    0  0.23639869985E+03 -0.18347467395E+03  0.42480881076E+03  0.51962469820E+03  0.00000000000E+00 0. -1.
         -3    1    6    6    0  503  0.16021800002E+02 -0.47281371701E+02  0.32586183403E+02  0.59616151620E+02  0.00000000000E+00 0.  1.
<mgrwt>
<rscale>  0 0.17816434E+04</rscale>
<asrwt>0</asrwt>
<pdfrwt beam="1">  1        1 0.47080482E+00 0.17816434E+04</pdfrwt>
<pdfrwt beam="2">  1       -1 0.39894587E-01 0.17816434E+04</pdfrwt>
<totfact> 0.31346552E+00</totfact>
</mgrwt>
</event>
<event>
12    2  0.3561489E-008  0.1301010E+04  0.7818608E-02  0.9028765E-01
          2   -1    0    0  501    0  0.00000000000E+00  0.00000000000E+00  0.10082149593E+04  0.10082149593E+04  0.00000000000E+00 0. -1.
         -2   -1    0    0    0  501 -0.00000000000E+00 -0.00000000000E+00 -0.41970890545E+03  0.41970890545E+03  0.00000000000E+00 0.  1.
         23    2    1    2    0    0  0.22086870335E+03  0.25199310469E+03  0.86478098207E+02  0.36292361324E+03  0.10932327590E+03 0.  0.
        254    2    1    2    0    0 -0.22086870335E+03 -0.25199310469E+03  0.50202795562E+03  0.10650002515E+04  0.87744513134E+03 0.  0.
         23    2    4    4    0    0  0.13726178905E+03  0.14458526441E+03  0.47415135461E+03  0.52229414655E+03  0.90697139011E+02 0.  0.
         23    2    4    4    0    0 -0.35813049240E+03 -0.39657836910E+03  0.27876601010E+02  0.54270610493E+03  0.90669504393E+02 0.  0.
          2    1    3    3  502    0  0.16181773641E+03  0.21082736175E+03  0.10936169417E+03  0.28739021631E+03  0.00000000000E+00 0. -1.
         -2    1    3    3    0  502  0.59050966935E+02  0.41165742935E+02 -0.22883595967E+02  0.75533396929E+02  0.00000000000E+00 0.  1.
         11    1    5    5    0    0  0.11004851193E+02  0.72572231550E+02  0.17158858544E+03  0.18662925332E+03  0.00000000000E+00 0.  1.
        -11    1    5    5    0    0  0.12625693786E+03  0.72013032860E+02  0.30256276917E+03  0.33566489323E+03  0.00000000000E+00 0. -1.
          4    1    6    6  503    0 -0.34821970799E+03 -0.40102983228E+03  0.27807946998E+02  0.53184130464E+03  0.00000000000E+00 0. -1.
         -4    1    6    6    0  503 -0.99107844069E+01  0.44514631775E+01  0.68654011849E-01  0.10864800291E+02  0.00000000000E+00 0.  1.
<mgrwt>
<rscale>  0 0.13010101E+04</rscale>
<asrwt>0</asrwt>
<pdfrwt beam="1">  1        2 0.15510999E+00 0.13010101E+04</pdfrwt>
<pdfrwt beam="2">  1       -2 0.64570601E-01 0.13010101E+04</pdfrwt>
<totfact> 0.54019790E+01</totfact>
</mgrwt>
</event>
<event>
12    2  0.3561489E-008  0.2255712E+04  0.7818608E-02  0.8495591E-01
         -1   -1    0    0    0  501 -0.00000000000E+00  0.00000000000E+00  0.86402635020E+03  0.86402635020E+03  0.00000000000E+00 0.  1.
          1   -1    0    0  501    0  0.00000000000E+00 -0.00000000000E+00 -0.14722459867E+04  0.14722459867E+04  0.00000000000E+00 0. -1.
         23    2    1    2    0    0 -0.86457738858E+03  0.33507805730E+03 -0.62225248401E+02  0.93407954894E+03  0.94134249220E+02 0.  0.
        254    2    1    2    0    0  0.86457738858E+03 -0.33507805730E+03 -0.54599438815E+03  0.14021927880E+04  0.89903469205E+03 0.  0.
         23    2    4    4    0    0  0.49349519756E+03 -0.21019911115E+03  0.17985058618E+03  0.57234150569E+03  0.86645192897E+02 0.  0.
         23    2    4    4    0    0  0.37108219103E+03 -0.12487894614E+03 -0.72584497432E+03  0.82985128231E+03  0.92225160945E+02 0.  0.
          3    1    3    3  502    0 -0.36694482613E+03  0.97095229086E+02 -0.61143489257E+01  0.37962267345E+03  0.00000000000E+00 0. -1.
         -3    1    3    3    0  502 -0.49763256246E+03  0.23798282821E+03 -0.56110899475E+02  0.55445687549E+03  0.00000000000E+00 0.  1.
         11    1    5    5    0    0  0.55056897629E+02 -0.60843665131E+01  0.41822123118E+02  0.69407286897E+02  0.00000000000E+00 0.  1.
        -11    1    5    5    0    0  0.43843829993E+03 -0.20411474464E+03  0.13802846306E+03  0.50293421880E+03  0.00000000000E+00 0. -1.
          4    1    6    6  503    0  0.33851425823E+03 -0.83977448650E+02 -0.65116864296E+03  0.73869121863E+03  0.00000000000E+00 0. -1.
         -4    1    6    6    0  503  0.32567932794E+02 -0.40901497493E+02 -0.74676331360E+02  0.91160063674E+02  0.00000000000E+00 0.  1.
<mgrwt>
<rscale>  0 0.22557122E+04</rscale>
<asrwt>0</asrwt>
<pdfrwt beam="1">  1        1 0.22649938E+00 0.22557122E+04</pdfrwt>
<pdfrwt beam="2">  1       -1 0.13292713E+00 0.22557122E+04</pdfrwt>
<totfact> 0.29738830E+00</totfact>
</mgrwt>
</event>
<event>
12    2  0.3561489E-008  0.2054729E+04  0.7818608E-02  0.8581452E-01
         -1   -1    0    0    0  501 -0.00000000000E+00  0.00000000000E+00  0.90079646520E+03  0.90079646520E+03  0.00000000000E+00 0.  1.
          1   -1    0    0  501    0  0.00000000000E+00 -0.00000000000E+00 -0.11717166623E+04  0.11717166623E+04  0.00000000000E+00 0. -1.
         23    2    1    2    0    0 -0.43634262174E+03 -0.31541916654E+03  0.43741080232E+03  0.70204136159E+03  0.10793391137E+03 0.  0.
        254    2    1    2    0    0  0.43634262174E+03  0.31541916654E+03 -0.70833099943E+03  0.13704717659E+04  0.10423895252E+04 0.  0.
         23    2    4    4    0    0  0.68282537625E+03 -0.47039332028E+02 -0.26177673082E+03  0.73830344984E+03  0.90009633042E+02 0.  0.
         23    2    4    4    0    0 -0.24648275450E+03  0.36245849857E+03 -0.44655426860E+03  0.63216831609E+03  0.89978628587E+02 0.  0.
          3    1    3    3  502    0 -0.17494921855E+03 -0.76464622159E+02  0.11361056866E+03  0.22217432080E+03  0.00000000000E+00 0. -1.
         -3    1    3    3    0  502 -0.26139340320E+03 -0.23895454438E+03  0.32380023366E+03  0.47986704079E+03  0.00000000000E+00 0.  1.
         11    1    5    5    0    0  0.35657850056E+03  0.12165083735E+02 -0.16354367930E+03  0.39248280391E+03  0.00000000000E+00 0.  1.
        -11    1    5    5    0    0  0.32624687568E+03 -0.59204415763E+02 -0.98233051519E+02  0.34582064593E+03  0.00000000000E+00 0. -1.
          1    1    6    6  503    0 -0.24806654325E+03  0.36001031275E+03 -0.45016366911E+03  0.62752829749E+03  0.00000000000E+00 0. -1.
         -1    1    6    6    0  503  0.15837887441E+01  0.24481858235E+01  0.36094005035E+01  0.46400185999E+01  0.00000000000E+00 0.  1.
<mgrwt>
<rscale>  0 0.20547294E+04</rscale>
<asrwt>0</asrwt>
<pdfrwt beam="1">  1        1 0.18026410E+00 0.20547294E+04</pdfrwt>
<pdfrwt beam="2">  1       -1 0.13858407E+00 0.20547294E+04</pdfrwt>
<totfact> 0.44553973E+00</totfact>
</mgrwt>
</event>
<event>
12    2  0.3561489E-008  0.1315210E+04  0.7818608E-02  0.9017590E-01
         -2   -1    0    0    0  501 -0.00000000000E+00  0.00000000000E+00  0.23517128348E+03  0.23517128348E+03  0.00000000000E+00 0. -1.
          2   -1    0    0  501    0  0.00000000000E+00 -0.00000000000E+00 -0.18388483287E+04  0.18388483287E+04  0.00000000000E+00 0.  1.
         23    2    1    2    0    0 -0.26618863952E+03 -0.11872378592E+03 -0.73069001321E+03  0.79168491953E+03  0.88912244668E+02 0.  0.
        254    2    1    2    0    0  0.26618863952E+03  0.11872378592E+03 -0.87298703199E+03  0.12823346926E+04  0.89293010742E+03 0.  0.
         23    2    4    4    0    0  0.18161681823E+03  0.25471697351E+03 -0.10048574733E+04  0.10563964533E+04  0.91485078938E+02 0.  0.
         23    2    4    4    0    0  0.84571821287E+02 -0.13599318758E+03  0.13187044130E+03  0.22593823932E+03  0.89508293884E+02 0.  0.
          1    1    3    3  502    0 -0.61140242841E+02  0.96342825956E+01 -0.12537488789E+03  0.13982063942E+03  0.00000000000E+00 0. -1.
         -1    1    3    3    0  502 -0.20504839668E+03 -0.12835806852E+03 -0.60531512532E+03  0.65186428011E+03  0.00000000000E+00 0.  1.
         11    1    5    5    0    0  0.62160552234E+02  0.13474082258E+03 -0.58880558229E+03  0.60721580782E+03  0.00000000000E+00 0. -1.
        -11    1    5    5    0    0  0.11945626600E+03  0.11997615093E+03 -0.41605189100E+03  0.44918064549E+03  0.00000000000E+00 0.  1.
          2    1    6    6  503    0  0.82907550433E+02 -0.49871018250E+02  0.78640569543E+02  0.12468006881E+03  0.00000000000E+00 0. -1.
         -2    1    6    6    0  503  0.16642708538E+01 -0.86122169335E+02  0.53229871755E+02  0.10125817051E+03  0.00000000000E+00 0.  1.
<mgrwt>
<rscale>  0 0.13152100E+04</rscale>
<asrwt>0</asrwt>
<pdfrwt beam="1">  1        2 0.28289975E+00 0.13152100E+04</pdfrwt>
<pdfrwt beam="2">  1       -2 0.36180197E-01 0.13152100E+04</pdfrwt>
<totfact> 0.57799659E+01</totfact>
</mgrwt>
</event>
<event>
12    2  0.3561489E-008  0.2613032E+04  0.7818608E-02  0.8363788E-01
          2   -1    0    0  501    0  0.00000000000E+00  0.00000000000E+00  0.14589073451E+04  0.14589073451E+04  0.00000000000E+00 0.  1.
         -2   -1    0    0    0  501 -0.00000000000E+00 -0.00000000000E+00 -0.11700427481E+04  0.11700427481E+04  0.00000000000E+00 0. -1.
         23    2    1    2    0    0 -0.87392539872E+03  0.63642786678E+03 -0.28718109920E+03  0.11233490714E+04  0.10321879829E+03 0.  0.
        254    2    1    2    0    0  0.87392539872E+03 -0.63642786678E+03  0.57604569618E+03  0.15056010219E+04  0.87533979734E+03 0.  0.
         23    2    4    4    0    0 -0.10755944676E+03 -0.31902228578E+03  0.82236940879E+02  0.35832394463E+03  0.91043294318E+02 0.  0.
         23    2    4    4    0    0  0.98148484548E+03 -0.31740558100E+03  0.49380875530E+03  0.11472770772E+04  0.91317032251E+02 0.  0.
          1    1    3    3  502    0 -0.61542273584E+03  0.43162905180E+03 -0.24634181185E+03  0.79103291361E+03  0.00000000000E+00 0. -1.
         -1    1    3    3    0  502 -0.25850266288E+03  0.20479881498E+03 -0.40839287349E+02  0.33231615778E+03  0.00000000000E+00 0.  1.
         11    1    5    5    0    0 -0.11920646347E+03 -0.24904619725E+03  0.50837008416E+02  0.28074648835E+03  0.00000000000E+00 0.  1.
        -11    1    5    5    0    0  0.11647016710E+02 -0.69976088524E+02  0.31399932463E+02  0.77577456275E+02  0.00000000000E+00 0. -1.
          4    1    6    6  503    0  0.66724813385E+03 -0.25371200285E+03  0.36483451094E+03  0.80168202730E+03  0.00000000000E+00 0. -1.
         -4    1    6    6    0  503  0.31423671163E+03 -0.63693578149E+02  0.12897424436E+03  0.34559504993E+03  0.00000000000E+00 0.  1.
<mgrwt>
<rscale>  0 0.26130319E+04</rscale>
<asrwt>0</asrwt>
<pdfrwt beam="1">  1        2 0.22444728E+00 0.26130319E+04</pdfrwt>
<pdfrwt beam="2">  1       -2 0.18000658E+00 0.26130319E+04</pdfrwt>
<totfact> 0.21459276E+00</totfact>
</mgrwt>
</event>
<event>
12    2  0.3561489E-008  0.1928638E+04  0.7818608E-02  0.8640731E-01
          1   -1    0    0  501    0  0.00000000000E+00  0.00000000000E+00  0.85502734559E+03  0.85502734559E+03  0.00000000000E+00 0. -1.
         -1   -1    0    0    0  501 -0.00000000000E+00 -0.00000000000E+00 -0.10875806790E+04  0.10875806790E+04  0.00000000000E+00 0.  1.
         23    2    1    2    0    0  0.80390908764E+02 -0.51274258716E+03  0.45412345769E+03  0.69595531842E+03  0.93584355043E+02 0.  0.
        254    2    1    2    0    0 -0.80390908764E+02  0.51274258716E+03 -0.68667679112E+03  0.12466527062E+04  0.90180391189E+03 0.  0.
         23    2    4    4    0    0  0.29488864786E+03  0.28437480159E+02  0.15698762727E+02  0.31010792636E+03  0.90291029072E+02 0.  0.
         23    2    4    4    0    0 -0.37527955662E+03  0.48430510700E+03 -0.70237555384E+03  0.93654477983E+03  0.91643459710E+02 0.  0.
          3    1    3    3  502    0  0.72072491595E+02 -0.23933031943E+03  0.17483136393E+03  0.30502369032E+03  0.00000000000E+00 0. -1.
         -3    1    3    3    0  502  0.83184171690E+01 -0.27341226773E+03  0.27929209375E+03  0.39093162809E+03  0.00000000000E+00 0.  1.
         11    1    5    5    0    0  0.13512559212E+03 -0.30024389045E+02  0.20418452082E+02  0.13991891498E+03  0.00000000000E+00 0. -1.
        -11    1    5    5    0    0  0.15976305573E+03  0.58461869204E+02 -0.47196893555E+01  0.17018901138E+03  0.00000000000E+00 0.  1.
          1    1    6    6  503    0 -0.15241218429E+03  0.22828299348E+03 -0.37706849668E+03  0.46639387884E+03  0.00000000000E+00 0. -1.
         -1    1    6    6    0  503 -0.22286737232E+03  0.25602211353E+03 -0.32530705716E+03  0.47015090099E+03  0.00000000000E+00 0.  1.
<mgrwt>
<rscale>  0 0.19286381E+04</rscale>
<asrwt>0</asrwt>
<pdfrwt beam="1">  1        1 0.13154267E+00 0.19286381E+04</pdfrwt>
<pdfrwt beam="2">  1       -1 0.16732011E+00 0.19286381E+04</pdfrwt>
<totfact> 0.47673487E+00</totfact>
</mgrwt>
</event>
<event>
12    2  0.3561489E-008  0.1532791E+04  0.7818608E-02  0.8862935E-01
          2   -1    0    0  501    0  0.00000000000E+00  0.00000000000E+00  0.14159067677E+04  0.14159067677E+04  0.00000000000E+00 0. -1.
         -2   -1    0    0    0  501 -0.00000000000E+00 -0.00000000000E+00 -0.41483119309E+03  0.41483119309E+03  0.00000000000E+00 0.  1.
         23    2    1    2    0    0 -0.48672764341E+03 -0.79724274235E+02  0.38397870528E+03  0.63155940098E+03  0.90376280559E+02 0.  0.
        254    2    1    2    0    0  0.48672764341E+03  0.79724274235E+02  0.61709686933E+03  0.11991785598E+04  0.90219782390E+03 0.  0.
         23    2    4    4    0    0  0.15484244081E+03  0.27600620107E+03 -0.12926900981E+03  0.35375444958E+03  0.90973233417E+02 0.  0.
         23    2    4    4    0    0  0.33188520260E+03 -0.19628192684E+03  0.74636587914E+03  0.84542411024E+03  0.94897408397E+02 0.  0.
          4    1    3    3  502    0 -0.31750481474E+03 -0.31502532798E+02  0.19787355656E+03  0.37544062292E+03  0.00000000000E+00 0. -1.
         -4    1    3    3    0  502 -0.16922282868E+03 -0.48221741437E+02  0.18610514872E+03  0.25611877805E+03  0.00000000000E+00 0.  1.
         11    1    5    5    0    0  0.11680856964E+03  0.26499155839E+03 -0.11086898932E+03  0.31009143934E+03  0.00000000000E+00 0.  1.
        -11    1    5    5    0    0  0.38033871169E+02  0.11014642680E+02 -0.18400020491E+02  0.43663010243E+02  0.00000000000E+00 0. -1.
          3    1    6    6  503    0  0.60455437404E+01  0.44946019353E+01  0.52188349737E+02  0.52729250838E+02  0.00000000000E+00 0. -1.
         -3    1    6    6    0  503  0.32583965886E+03 -0.20077652877E+03  0.69417752940E+03  0.79269485940E+03  0.00000000000E+00 0.  1.
<mgrwt>
<rscale>  0 0.15327913E+04</rscale>
<asrwt>0</asrwt>
<pdfrwt beam="1">  1        2 0.21783181E+00 0.15327913E+04</pdfrwt>
<pdfrwt beam="2">  1       -2 0.63820184E-01 0.15327913E+04</pdfrwt>
<totfact> 0.31011174E+01</totfact>
</mgrwt>
</event>
<event>
12    2  0.3561489E-008  0.2537557E+04  0.7818608E-02  0.8389727E-01
         -1   -1    0    0    0  501 -0.00000000000E+00  0.00000000000E+00  0.62241924347E+03  0.62241924347E+03  0.00000000000E+00 0.  1.
          1   -1    0    0  501    0  0.00000000000E+00 -0.00000000000E+00 -0.25863569057E+04  0.25863569057E+04  0.00000000000E+00 0. -1.
         23    2    1    2    0    0  0.42360053162E+03 -0.92714231196E+03 -0.31773880427E+03  0.10715370648E+04  0.90572934385E+02 0.  0.
        254    2    1    2    0    0 -0.42360053162E+03  0.92714231196E+03 -0.16461988579E+04  0.21372390844E+04  0.90487012706E+03 0.  0.
         23    2    4    4    0    0 -0.53874395557E+03  0.14295175600E+03 -0.64628114853E+03  0.85815940053E+03  0.89877581005E+02 0.  0.
         23    2    4    4    0    0  0.11514342394E+03  0.78419055597E+03 -0.99991770939E+03  0.12790796838E+04  0.89423575657E+02 0.  0.
          2    1    3    3  502    0  0.19195015086E+01 -0.61809096772E+01 -0.11757468566E+02  0.13421110147E+02  0.00000000000E+00 0. -1.
         -2    1    3    3    0  502  0.42168103012E+03 -0.92096140229E+03 -0.30598133570E+03  0.10581159546E+04  0.00000000000E+00 0.  1.
         11    1    5    5    0    0  0.35059929027E+01  0.14981801381E+01 -0.21608180441E+01  0.43824267911E+01  0.00000000000E+00 0. -1.
        -11    1    5    5    0    0 -0.54224994847E+03  0.14145357586E+03 -0.64412033049E+03  0.85377697374E+03  0.00000000000E+00 0.  1.
          1    1    6    6  503    0  0.62208159415E+02  0.17766623687E+03 -0.21624376819E+03  0.28669934444E+03  0.00000000000E+00 0. -1.
         -1    1    6    6    0  503  0.52935264527E+02  0.60652431910E+03 -0.78367394120E+03  0.99238033939E+03  0.00000000000E+00 0.  1.
<mgrwt>
<rscale>  0 0.25375565E+04</rscale>
<asrwt>0</asrwt>
<pdfrwt beam="1">  1        1 0.39790106E+00 0.25375565E+04</pdfrwt>
<pdfrwt beam="2">  1       -1 0.95756807E-01 0.25375565E+04</pdfrwt>
<totfact> 0.10981771E+00</totfact>
</mgrwt>
</event>
<event>
12    2  0.3561489E-008  0.1711054E+04  0.7818608E-02  0.8755085E-01
          2   -1    0    0  501    0  0.00000000000E+00  0.00000000000E+00  0.11738103097E+04  0.11738103097E+04  0.00000000000E+00 0. -1.
         -2   -1    0    0    0  501 -0.00000000000E+00 -0.00000000000E+00 -0.62354759679E+03  0.62354759679E+03  0.00000000000E+00 0.  1.
         23    2    1    2    0    0  0.48804527202E+02  0.41718096169E+03 -0.27541935381E+03  0.51050245115E+03  0.91296744217E+02 0.  0.
        254    2    1    2    0    0 -0.48804527202E+02 -0.41718096169E+03  0.82568206672E+03  0.12868554553E+04  0.89321008221E+03 0.  0.
         23    2    4    4    0    0 -0.40602740500E+02 -0.32293427279E+03  0.10065962551E+04  0.10623498047E+04  0.97035867786E+02 0.  0.
         23    2    4    4    0    0 -0.82017867026E+01 -0.94246688895E+02 -0.18091418842E+03  0.22450565062E+03  0.93397729713E+02 0.  0.
          3    1    3    3  502    0 -0.23200041050E+02  0.14820207785E+03 -0.11617205027E+03  0.18973150252E+03  0.00000000000E+00 0. -1.
         -3    1    3    3    0  502  0.72004568253E+02  0.26897888384E+03 -0.15924730354E+03  0.32077094863E+03  0.00000000000E+00 0.  1.
         11    1    5    5    0    0 -0.14743561940E+01 -0.25876589116E+03  0.68924956612E+03  0.73622477855E+03  0.00000000000E+00 0. -1.
        -11    1    5    5    0    0 -0.39128384306E+02 -0.64168381633E+02  0.31734668902E+03  0.32612502616E+03  0.00000000000E+00 0.  1.
          2    1    6    6  503    0 -0.29037124221E+02 -0.14761282634E+02 -0.11392010743E+03  0.11848561485E+03  0.00000000000E+00 0. -1.
         -2    1    6    6    0  503  0.20835337518E+02 -0.79485406260E+02 -0.66994080987E+02  0.10602003577E+03  0.00000000000E+00 0.  1.
<mgrwt>
<rscale>  0 0.17110542E+04</rscale>
<asrwt>0</asrwt>
<pdfrwt beam="1">  1        2 0.18058620E+00 0.17110542E+04</pdfrwt>
<pdfrwt beam="2">  1       -2 0.95930400E-01 0.17110542E+04</pdfrwt>
<totfact> 0.17012713E+01</totfact>
</mgrwt>
</event>
<event>
12    2  0.3561489E-008  0.1639677E+04  0.7818608E-02  0.8796537E-01
         -2   -1    0    0    0  501 -0.00000000000E+00  0.00000000000E+00  0.77427403340E+03  0.77427403340E+03  0.00000000000E+00 0.  1.
          2   -1    0    0  501    0  0.00000000000E+00 -0.00000000000E+00 -0.86808433040E+03  0.86808433040E+03  0.00000000000E+00 0. -1.
         23    2    1    2    0    0 -0.11314417011E+03  0.41566978679E+03  0.23195857798E+03  0.50322991269E+03  0.11769701887E+03 0.  0.
        254    2    1    2    0    0  0.11314417011E+03 -0.41566978679E+03 -0.32576887498E+03  0.11391284511E+04  0.10029483004E+04 0.  0.
         23    2    4    4    0    0  0.53169809048E+03 -0.14940329943E+03 -0.44843844230E+02  0.56137457226E+03  0.90034630618E+02 0.  0.
         23    2    4    4    0    0 -0.41855392037E+03 -0.26626648736E+03 -0.28092503075E+03  0.57775387884E+03  0.93784034181E+02 0.  0.
          2    1    3    3  502    0 -0.56717248799E+02  0.68882666711E+02  0.82118988662E+02  0.12126498416E+03  0.00000000000E+00 0. -1.
         -2    1    3    3    0  502 -0.56426921310E+02  0.34678712008E+03  0.14983958932E+03  0.38196492853E+03  0.00000000000E+00 0.  1.
         11    1    5    5    0    0  0.91541560801E+02 -0.27373170368E+02  0.26318261442E+02  0.99104988246E+02  0.00000000000E+00 0. -1.
        -11    1    5    5    0    0  0.44015652968E+03 -0.12203012906E+03 -0.71162105672E+02  0.46226958401E+03  0.00000000000E+00 0.  1.
          1    1    6    6  503    0 -0.75760468115E+02 -0.31497592274E+02 -0.12213677043E+02  0.82951315571E+02  0.00000000000E+00 0. -1.
         -1    1    6    6    0  503 -0.34279345226E+03 -0.23476889509E+03 -0.26871135371E+03  0.49480256327E+03  0.00000000000E+00 0.  1.
<mgrwt>
<rscale>  0 0.16396770E+04</rscale>
<asrwt>0</asrwt>
<pdfrwt beam="1">  1        2 0.13355144E+00 0.16396770E+04</pdfrwt>
<pdfrwt beam="2">  1       -2 0.11911908E+00 0.16396770E+04</pdfrwt>
<totfact> 0.15941739E+01</totfact>
</mgrwt>
</event>
<event>
12    2  0.3561489E-008  0.1261291E+04  0.7818608E-02  0.9060838E-01
          2   -1    0    0  501    0  0.00000000000E+00  0.00000000000E+00  0.13674715460E+04  0.13674715460E+04  0.00000000000E+00 0. -1.
         -2   -1    0    0    0  501 -0.00000000000E+00 -0.00000000000E+00 -0.29083891440E+03  0.29083891440E+03  0.00000000000E+00 0.  1.
         23    2    1    2    0    0  0.19912093690E+02  0.29431887763E+03  0.31670270091E+03  0.44258903674E+03  0.92543835398E+02 0.  0.
        254    2    1    2    0    0 -0.19912093690E+02 -0.29431887763E+03  0.75992993073E+03  0.12157214237E+04  0.90192293864E+03 0.  0.
         23    2    4    4    0    0 -0.27019033147E+03 -0.36962355220E+03  0.69683072321E+02  0.47207449673E+03  0.91510733428E+02 0.  0.
         23    2    4    4    0    0  0.25027823778E+03  0.75304674572E+02  0.69024685841E+03  0.74364692698E+03  0.90884741000E+02 0.  0.
          3    1    3    3  502    0  0.13213588215E+02  0.28767574803E+03  0.26936858826E+03  0.39432394203E+03  0.00000000000E+00 0. -1.
         -3    1    3    3    0  502  0.66985054745E+01  0.66431296020E+01  0.47334112651E+02  0.48265094706E+02  0.00000000000E+00 0.  1.
         11    1    5    5    0    0 -0.22793353222E+03 -0.30272370426E+03  0.91825836506E+02  0.38990680999E+03  0.00000000000E+00 0. -1.
        -11    1    5    5    0    0 -0.42256799253E+02 -0.66899847944E+02 -0.22142764185E+02  0.82167686738E+02  0.00000000000E+00 0.  1.
          3    1    6    6  503    0  0.22498908939E+03  0.77769538862E+02  0.52488136358E+03  0.57634073026E+03  0.00000000000E+00 0. -1.
         -3    1    6    6    0  503  0.25289148388E+02 -0.24648642900E+01  0.16536549483E+03  0.16730619672E+03  0.00000000000E+00 0.  1.
<mgrwt>
<rscale>  0 0.12612913E+04</rscale>
<asrwt>0</asrwt>
<pdfrwt beam="1">  1        2 0.21038023E+00 0.12612913E+04</pdfrwt>
<pdfrwt beam="2">  1       -2 0.44744449E-01 0.12612913E+04</pdfrwt>
<totfact> 0.70295668E+01</totfact>
</mgrwt>
</event>
<event>
12    2  0.3561489E-008  0.2711198E+04  0.7818608E-02  0.8331381E-01
          1   -1    0    0  501    0  0.00000000000E+00  0.00000000000E+00  0.15907189022E+04  0.15907189022E+04  0.00000000000E+00 0. -1.
         -1   -1    0    0    0  501 -0.00000000000E+00 -0.00000000000E+00 -0.11552312138E+04  0.11552312138E+04  0.00000000000E+00 0.  1.
         23    2    1    2    0    0 -0.11129566236E+04  0.39232985115E+03 -0.57917674147E+02  0.11851308895E+04  0.92658566722E+02 0.  0.
        254    2    1    2    0    0  0.11129566236E+04 -0.39232985115E+03  0.49340536260E+03  0.15608192266E+04  0.89449016093E+03 0.  0.
         23    2    4    4    0    0  0.75142345448E+03 -0.70086122373E+02 -0.12455933983E+03  0.77048258516E+03  0.92623498129E+02 0.  0.
         23    2    4    4    0    0  0.36153316915E+03 -0.32224372877E+03  0.61796470243E+03  0.79033664141E+03  0.90578033637E+02 0.  0.
          2    1    3    3  502    0 -0.85413358223E+03  0.30564148541E+03 -0.54993308923E+01  0.90718858929E+03  0.00000000000E+00 0.  1.
         -2    1    3    3    0  502 -0.25882304140E+03  0.86688365741E+02 -0.52418343255E+02  0.27794230017E+03  0.00000000000E+00 0. -1.
         11    1    5    5    0    0  0.74472640264E+03 -0.79137866860E+02 -0.12072235634E+03  0.75858691268E+03  0.00000000000E+00 0.  1.
        -11    1    5    5    0    0  0.66970518370E+01  0.90517444871E+01 -0.38369834839E+01  0.11895672483E+02  0.00000000000E+00 0. -1.
          4    1    6    6  503    0  0.53619570939E+02 -0.86537096435E+02  0.94609834184E+02  0.13897750959E+03  0.00000000000E+00 0. -1.
         -4    1    6    6    0  503  0.30791359821E+03 -0.23570663234E+03  0.52335486825E+03  0.65135913182E+03  0.00000000000E+00 0.  1.
<mgrwt>
<rscale>  0 0.27111976E+04</rscale>
<asrwt>0</asrwt>
<pdfrwt beam="1">  1        1 0.24472598E+00 0.27111976E+04</pdfrwt>
<pdfrwt beam="2">  1       -1 0.17772788E+00 0.27111976E+04</pdfrwt>
<totfact> 0.10675765E+00</totfact>
</mgrwt>
</event>
<event>
12    2  0.3561489E-008  0.2215510E+04  0.7818608E-02  0.8512000E-01
          2   -1    0    0  501    0  0.00000000000E+00  0.00000000000E+00  0.23946511077E+04  0.23946511077E+04  0.00000000000E+00 0. -1.
         -2   -1    0    0    0  501 -0.00000000000E+00 -0.00000000000E+00 -0.51244275904E+03  0.51244275904E+03  0.00000000000E+00 0.  1.
         23    2    1    2    0    0 -0.59571778796E+03 -0.28158492084E+03 -0.57367210599E+02  0.66759644656E+03  0.90687750373E+02 0.  0.
        254    2    1    2    0    0  0.59571778796E+03  0.28158492084E+03  0.19395755593E+04  0.22394974202E+04  0.90511081886E+03 0.  0.
         23    2    4    4    0    0  0.39557298192E+03 -0.26189228890E+03  0.12164041802E+04  0.13084264791E+04  0.85294587193E+02 0.  0.
         23    2    4    4    0    0  0.20014480604E+03  0.54347720975E+03  0.72317137909E+03  0.93107094111E+03  0.92145715807E+02 0.  0.
          4    1    3    3  502    0 -0.30478714309E+03 -0.16495772572E+03 -0.71415149683E+02  0.35384513205E+03  0.00000000000E+00 0.  1.
         -4    1    3    3    0  502 -0.29093064487E+03 -0.11662719513E+03  0.14047939084E+02  0.31375131451E+03  0.00000000000E+00 0. -1.
         11    1    5    5    0    0  0.23480020524E+03 -0.15458309383E+03  0.83107698606E+03  0.87733461464E+03  0.00000000000E+00 0.  1.
        -11    1    5    5    0    0  0.16077277668E+03 -0.10730919507E+03  0.38532719414E+03  0.43109186447E+03  0.00000000000E+00 0. -1.
          1    1    6    6  503    0 -0.14365651567E+01  0.77404425841E+01  0.35398833757E+02  0.36263695374E+02  0.00000000000E+00 0. -1.
         -1    1    6    6    0  503  0.20158137120E+03  0.53573676716E+03  0.68777254533E+03  0.89480724573E+03  0.00000000000E+00 0.  1.
<mgrwt>
<rscale>  0 0.22155104E+04</rscale>
<asrwt>0</asrwt>
<pdfrwt beam="1">  1        2 0.36840786E+00 0.22155104E+04</pdfrwt>
<pdfrwt beam="2">  1       -2 0.78837349E-01 0.22155104E+04</pdfrwt>
<totfact> 0.52209198E+00</totfact>
</mgrwt>
</event>
<event>
12    2  0.3561489E-008  0.2496921E+04  0.7818608E-02  0.8404083E-01
          2   -1    0    0  501    0  0.00000000000E+00  0.00000000000E+00  0.17303410162E+04  0.17303410162E+04  0.00000000000E+00 0.  1.
         -2   -1    0    0    0  501 -0.00000000000E+00 -0.00000000000E+00 -0.90077829909E+03  0.90077829909E+03  0.00000000000E+00 0. -1.
         23    2    1    2    0    0  0.82950750131E+03  0.34782211609E+03  0.99525630000E+03  0.13448270123E+04  0.94666103910E+02 0.  0.
        254    2    1    2    0    0 -0.82950750131E+03 -0.34782211609E+03 -0.16569358289E+03  0.12862923030E+04  0.90445044425E+03 0.  0.
         23    2    4    4    0    0 -0.83349654168E+03 -0.44381876640E+03 -0.38977764019E+03  0.10255986472E+04  0.90743561202E+02 0.  0.
         23    2    4    4    0    0  0.39890403737E+01  0.95996650314E+02  0.22408405730E+03  0.26069365579E+03  0.92283520286E+02 0.  0.
          2    1    3    3  502    0  0.18155114153E+03  0.11895727355E+03  0.25132266623E+03  0.33207639555E+03  0.00000000000E+00 0. -1.
         -2    1    3    3    0  502  0.64795635978E+03  0.22886484254E+03  0.74393363377E+03  0.10127506168E+04  0.00000000000E+00 0.  1.
         11    1    5    5    0    0 -0.26428943007E+03 -0.12612640146E+03 -0.78228893511E+02  0.30311141808E+03  0.00000000000E+00 0. -1.
        -11    1    5    5    0    0 -0.56920711161E+03 -0.31769236495E+03 -0.31154874668E+03  0.72248722910E+03  0.00000000000E+00 0.  1.
          3    1    6    6  503    0  0.22966574527E+02  0.35984803143E+01  0.74450397041E+01  0.24409859120E+02  0.00000000000E+00 0. -1.
         -3    1    6    6    0  503 -0.18977534153E+02  0.92398169999E+02  0.21663901760E+03  0.23628379667E+03  0.00000000000E+00 0.  1.
<mgrwt>
<rscale>  0 0.24969210E+04</rscale>
<asrwt>0</asrwt>
<pdfrwt beam="1">  1        2 0.26620631E+00 0.24969210E+04</pdfrwt>
<pdfrwt beam="2">  1       -2 0.13858128E+00 0.24969210E+04</pdfrwt>
<totfact> 0.31038897E+00</totfact>
</mgrwt>
</event>
<event>
12    2  0.3561489E-008  0.1843569E+04  0.7818608E-02  0.8683467E-01
          1   -1    0    0  501    0  0.00000000000E+00  0.00000000000E+00  0.29334619460E+04  0.29334619460E+04  0.00000000000E+00 0. -1.
         -1   -1    0    0    0  501 -0.00000000000E+00 -0.00000000000E+00 -0.28965334913E+03  0.28965334913E+03  0.00000000000E+00 0.  1.
         23    2    1    2    0    0  0.63590376555E+03 -0.27480174112E+03  0.11720231369E+04  0.13645462404E+04  0.91970717387E+02 0.  0.
        254    2    1    2    0    0 -0.63590376555E+03  0.27480174112E+03  0.14717854600E+04  0.18585690548E+04  0.89901996364E+03 0.  0.
         23    2    4    4    0    0 -0.56913534231E+03 -0.32415012347E+02  0.31722666849E+03  0.65836674313E+03  0.88590283679E+02 0.  0.
         23    2    4    4    0    0 -0.66768423232E+02  0.30721675346E+03  0.11545587915E+04  0.12002023116E+04  0.92948533031E+02 0.  0.
          2    1    3    3  502    0  0.42985384817E+03 -0.22182734033E+03  0.76091846621E+03  0.90165326591E+03  0.00000000000E+00 0. -1.
         -2    1    3    3    0  502  0.20604991738E+03 -0.52974400788E+02  0.41110467065E+03  0.46289297448E+03  0.00000000000E+00 0.  1.
         11    1    5    5    0    0 -0.23302450658E+02 -0.58332437994E+01 -0.41726919237E+01  0.24381187375E+02  0.00000000000E+00 0. -1.
        -11    1    5    5    0    0 -0.54583289166E+03 -0.26581768548E+02  0.32139936042E+03  0.63398555576E+03  0.00000000000E+00 0.  1.
          1    1    6    6  503    0 -0.57426505597E+02  0.82854157355E+02  0.29288195198E+03  0.30974578727E+03  0.00000000000E+00 0. -1.
         -1    1    6    6    0  503 -0.93419176358E+01  0.22436259611E+03  0.86167683955E+03  0.89045652436E+03  0.00000000000E+00 0.  1.
<mgrwt>
<rscale>  0 0.18435694E+04</rscale>
<asrwt>0</asrwt>
<pdfrwt beam="1">  1        1 0.45130182E+00 0.18435694E+04</pdfrwt>
<pdfrwt beam="2">  1       -1 0.44562056E-01 0.18435694E+04</pdfrwt>
<totfact> 0.31410493E+00</totfact>
</mgrwt>
</event>
<event>
12    2  0.3561489E-008  0.1753915E+04  0.7818608E-02  0.8731198E-01
         -1   -1    0    0    0  501 -0.00000000000E+00  0.00000000000E+00  0.19540017077E+04  0.19540017077E+04  0.00000000000E+00 0.  1.
          1   -1    0    0  501    0  0.00000000000E+00 -0.00000000000E+00 -0.39357934227E+03  0.39357934227E+03  0.00000000000E+00 0. -1.
         23    2    1    2    0    0 -0.53477365098E+03  0.35737497205E+03  0.63772183828E+03  0.91087989262E+03  0.96505478228E+02 0.  0.
        254    2    1    2    0    0  0.53477365098E+03 -0.35737497205E+03  0.92270052715E+03  0.14367011574E+04  0.89388714293E+03 0.  0.
         23    2    4    4    0    0  0.52625135906E+03 -0.17533280706E+03  0.10542197496E+04  0.11945713940E+04  0.89103584069E+02 0.  0.
         23    2    4    4    0    0  0.85222919142E+01 -0.18204216500E+03 -0.13151922249E+03  0.24212976335E+03  0.90097375777E+02 0.  0.
          1    1    3    3  502    0 -0.15305402366E+03  0.12351097645E+03  0.13974531440E+03  0.24126592872E+03  0.00000000000E+00 0. -1.
         -1    1    3    3    0  502 -0.38171962732E+03  0.23386399560E+03  0.49797652388E+03  0.66961396390E+03  0.00000000000E+00 0.  1.
         11    1    5    5    0    0  0.46333745056E+03 -0.18033484047E+03  0.90565736855E+03  0.10331589989E+04  0.00000000000E+00 0.  1.
        -11    1    5    5    0    0  0.62913908509E+02  0.50020334108E+01  0.14856238108E+03  0.16141239511E+03  0.00000000000E+00 0. -1.
          1    1    6    6  503    0  0.45692513347E+01 -0.15132570032E+02 -0.57263028455E+02  0.59404773893E+02  0.00000000000E+00 0. -1.
         -1    1    6    6    0  503  0.39530405795E+01 -0.16690959496E+03 -0.74256194031E+02  0.18272498946E+03  0.00000000000E+00 0.  1.
<mgrwt>
<rscale>  0 0.17539153E+04</rscale>
<asrwt>0</asrwt>
<pdfrwt beam="1">  1        1 0.60550670E-01 0.17539153E+04</pdfrwt>
<pdfrwt beam="2">  1       -1 0.30061564E+00 0.17539153E+04</pdfrwt>
<totfact> 0.19029257E+00</totfact>
</mgrwt>
</event>
<event>
12    2  0.3561489E-008  0.1623843E+04  0.7818608E-02  0.8806033E-01
         -1   -1    0    0    0  501 -0.00000000000E+00  0.00000000000E+00  0.84811439923E+03  0.84811439923E+03  0.00000000000E+00 0.  1.
          1   -1    0    0  501    0  0.00000000000E+00 -0.00000000000E+00 -0.77727335964E+03  0.77727335964E+03  0.00000000000E+00 0. -1.
         23    2    1    2    0    0  0.55079504855E+03 -0.11978203557E+03 -0.20047639575E+02  0.57161554139E+03  0.92841250277E+02 0.  0.
        254    2    1    2    0    0 -0.55079504855E+03  0.11978203557E+03  0.90888679164E+02  0.10537722175E+04  0.88569306918E+03 0.  0.
         23    2    4    4    0    0 -0.65342820840E+03  0.81420580377E+02  0.35520527861E+03  0.75393855731E+03  0.93031305485E+02 0.  0.
         23    2    4    4    0    0  0.10263315986E+03  0.38361455193E+02 -0.26431659945E+03  0.29983366017E+03  0.89620267138E+02 0.  0.
          3    1    3    3  502    0  0.14859130724E+03 -0.29552244913E+02 -0.46751391537E+02  0.15855095199E+03  0.00000000000E+00 0. -1.
         -3    1    3    3    0  502  0.40220374131E+03 -0.90229790656E+02  0.26703751962E+02  0.41306458940E+03  0.00000000000E+00 0.  1.
         11    1    5    5    0    0 -0.25395975775E+03  0.71269131444E+02  0.11541689558E+03  0.28791649386E+03  0.00000000000E+00 0. -1.
        -11    1    5    5    0    0 -0.39946845066E+03  0.10151448933E+02  0.23978838303E+03  0.46602206345E+03  0.00000000000E+00 0.  1.
          2    1    6    6  503    0  0.11896279611E+03  0.29349776463E+02 -0.23625706021E+03  0.26614085507E+03  0.00000000000E+00 0. -1.
         -2    1    6    6    0  503 -0.16329636252E+02  0.90116787296E+01 -0.28059539238E+02  0.33692805106E+02  0.00000000000E+00 0.  1.
<mgrwt>
<rscale>  0 0.16238433E+04</rscale>
<asrwt>0</asrwt>
<pdfrwt beam="1">  1        1 0.11958052E+00 0.16238433E+04</pdfrwt>
<pdfrwt beam="2">  1       -1 0.13047914E+00 0.16238433E+04</pdfrwt>
<totfact> 0.11142317E+01</totfact>
</mgrwt>
</event>
<event>
12    2  0.3561489E-008  0.1216034E+04  0.7818608E-02  0.9098937E-01
         -1   -1    0    0    0  501 -0.00000000000E+00  0.00000000000E+00  0.52218571734E+03  0.52218571734E+03  0.00000000000E+00 0.  1.
          1   -1    0    0  501    0  0.00000000000E+00 -0.00000000000E+00 -0.70795600553E+03  0.70795600553E+03  0.00000000000E+00 0. -1.
         23    2    1    2    0    0 -0.19856993512E+03 -0.81348176625E+02 -0.19202341521E+03  0.30305364680E+03  0.94450917804E+02 0.  0.
        254    2    1    2    0    0  0.19856993512E+03  0.81348176625E+02  0.62531270142E+01  0.92708807607E+03  0.90189004553E+03 0.  0.
         23    2    4    4    0    0  0.43236039162E+03  0.37776183210E+02 -0.29517463134E+03  0.53272582869E+03  0.91138341586E+02 0.  0.
         23    2    4    4    0    0 -0.23379045650E+03  0.43571993415E+02  0.30142775836E+03  0.39436224738E+03  0.90035506835E+02 0.  0.
          1    1    3    3  502    0 -0.71467010310E+02 -0.28921706905E+02 -0.13235729694E+03  0.15317458258E+03  0.00000000000E+00 0. -1.
         -1    1    3    3    0  502 -0.12710292481E+03 -0.52426469720E+02 -0.59666118266E+02  0.14987906422E+03  0.00000000000E+00 0.  1.
         11    1    5    5    0    0  0.11207784400E+03  0.44623337236E+02 -0.10662503986E+03  0.16100181510E+03  0.00000000000E+00 0. -1.
        -11    1    5    5    0    0  0.32028254763E+03 -0.68471540252E+01 -0.18854959148E+03  0.37172401359E+03  0.00000000000E+00 0.  1.
          2    1    6    6  503    0 -0.49085648326E+02  0.27620930777E+02  0.25237150894E+02  0.61718963648E+02  0.00000000000E+00 0. -1.
         -2    1    6    6    0  503 -0.18470480817E+03  0.15951062637E+02  0.27619060746E+03  0.33264328373E+03  0.00000000000E+00 0.  1.
<mgrwt>
<rscale>  0 0.12160337E+04</rscale>
<asrwt>0</asrwt>
<pdfrwt beam="1">  1        1 0.10891631E+00 0.12160337E+04</pdfrwt>
<pdfrwt beam="2">  1       -1 0.80336265E-01 0.12160337E+04</pdfrwt>
<totfact> 0.40946202E+01</totfact>
</mgrwt>
</event>
<event>
12    2  0.3561489E-008  0.2594749E+04  0.7818608E-02  0.8369987E-01
         -4   -1    0    0    0  501 -0.00000000000E+00  0.00000000000E+00  0.89477495113E+03  0.89477495113E+03  0.00000000000E+00 0.  1.
          4   -1    0    0  501    0  0.00000000000E+00 -0.00000000000E+00 -0.18811214670E+04  0.18811214670E+04  0.00000000000E+00 0. -1.
         23    2    1    2    0    0  0.86856780609E+03  0.34470663714E+03 -0.10988681033E+04  0.14453696048E+04  0.91375525209E+02 0.  0.
        254    2    1    2    0    0 -0.86856780609E+03 -0.34470663714E+03  0.11252158744E+03  0.13305268133E+04  0.94042957942E+03 0.  0.
         23    2    4    4    0    0 -0.49323897302E+03 -0.58146531927E+03 -0.18255053599E+03  0.78932708978E+03  0.91246668114E+02 0.  0.
         23    2    4    4    0    0 -0.37532883306E+03  0.23675868214E+03  0.29507212344E+03  0.54119972353E+03  0.94356643779E+02 0.  0.
          2    1    3    3  502    0  0.35591395597E+03  0.14401507150E+03 -0.52151321494E+03  0.64760413697E+03  0.00000000000E+00 0.  1.
         -2    1    3    3    0  502  0.51265385012E+03  0.20069156564E+03 -0.57735488840E+03  0.79776546787E+03  0.00000000000E+00 0. -1.
         11    1    5    5    0    0 -0.42585127134E+03 -0.54302158805E+03 -0.17020945619E+03  0.71076930812E+03  0.00000000000E+00 0.  1.
        -11    1    5    5    0    0 -0.67387701684E+02 -0.38443731226E+02 -0.12341079803E+02  0.78557781661E+02  0.00000000000E+00 0. -1.
          3    1    6    6  503    0 -0.10284226011E+03  0.10901800183E+03  0.12737459650E+03  0.19668691625E+03  0.00000000000E+00 0. -1.
         -3    1    6    6    0  503 -0.27248657295E+03  0.12774068031E+03  0.16769752693E+03  0.34451280729E+03  0.00000000000E+00 0.  1.
<mgrwt>
<rscale>  0 0.25947488E+04</rscale>
<asrwt>0</asrwt>
<pdfrwt beam="1">  1        4 0.28940330E+00 0.25947488E+04</pdfrwt>
<pdfrwt beam="2">  1       -4 0.13765769E+00 0.25947488E+04</pdfrwt>
<totfact> 0.23693435E-02</totfact>
</mgrwt>
</event>
<event>
12    2  0.3561489E-008  0.1332003E+04  0.7818608E-02  0.9004564E-01
          1   -1    0    0  501    0  0.00000000000E+00  0.00000000000E+00  0.10110559652E+04  0.10110559652E+04  0.00000000000E+00 0. -1.
         -1   -1    0    0    0  501 -0.00000000000E+00 -0.00000000000E+00 -0.43870795857E+03  0.43870795857E+03  0.00000000000E+00 0.  1.
         23    2    1    2    0    0 -0.44915131003E+02 -0.75736742249E+02  0.51816053648E+03  0.53344187526E+03  0.91194679682E+02 0.  0.
        254    2    1    2    0    0  0.44915131003E+02  0.75736742249E+02  0.54187470114E+02  0.91632204846E+03  0.91047042316E+03 0.  0.
         23    2    4    4    0    0  0.29689437713E+03 -0.26737462985E+03 -0.14927338805E+03  0.43585147068E+03  0.89713411771E+02 0.  0.
         23    2    4    4    0    0 -0.25197924613E+03  0.34311137210E+03  0.20346085817E+03  0.48047057778E+03  0.90756273436E+02 0.  0.
          2    1    3    3  502    0 -0.30325619833E+02  0.81870756021E+01  0.25280998489E+03  0.25475392026E+03  0.00000000000E+00 0. -1.
         -2    1    3    3    0  502 -0.14589511170E+02 -0.83923817851E+02  0.26535055159E+03  0.27868795501E+03  0.00000000000E+00 0.  1.
         11    1    5    5    0    0  0.22438232591E+03 -0.14801506333E+03 -0.11276468459E+03  0.29149916165E+03  0.00000000000E+00 0. -1.
        -11    1    5    5    0    0  0.72512051219E+02 -0.11935956652E+03 -0.36508703463E+02  0.14435230902E+03  0.00000000000E+00 0.  1.
          1    1    6    6  503    0 -0.18444530857E+03  0.19823934981E+03  0.16124884494E+03  0.31515091886E+03  0.00000000000E+00 0. -1.
         -1    1    6    6    0  503 -0.67533937554E+02  0.14487202229E+03  0.42212013225E+02  0.16531965892E+03  0.00000000000E+00 0.  1.
<mgrwt>
<rscale>  0 0.13320035E+04</rscale>
<asrwt>0</asrwt>
<pdfrwt beam="1">  1        1 0.15554707E+00 0.13320035E+04</pdfrwt>
<pdfrwt beam="2">  1       -1 0.67493532E-01 0.13320035E+04</pdfrwt>
<totfact> 0.32327263E+01</totfact>
</mgrwt>
</event>
<event>
12    2  0.3561489E-008  0.1947644E+04  0.7818608E-02  0.8631498E-01
         -1   -1    0    0    0  501 -0.00000000000E+00  0.00000000000E+00  0.69571070052E+03  0.69571070052E+03  0.00000000000E+00 0.  1.
          1   -1    0    0  501    0  0.00000000000E+00 -0.00000000000E+00 -0.13631088523E+04  0.13631088523E+04  0.00000000000E+00 0. -1.
         23    2    1    2    0    0 -0.46258116239E+03  0.28226638224E+03  0.30143436461E+03  0.62702025016E+03  0.92930487969E+02 0.  0.
        254    2    1    2    0    0  0.46258116239E+03 -0.28226638224E+03 -0.96883251643E+03  0.14317993027E+04  0.90429926242E+03 0.  0.
         23    2    4    4    0    0  0.69196753433E+03 -0.33891871332E+03 -0.58555708306E+03  0.97217258776E+03  0.92506648691E+02 0.  0.
         23    2    4    4    0    0 -0.22938637194E+03  0.56652331088E+02 -0.38327543337E+03  0.45962671495E+03  0.92352937283E+02 0.  0.
          2    1    3    3  502    0 -0.32839262465E+03  0.24403639262E+03  0.24207671518E+03  0.47539101051E+03  0.00000000000E+00 0. -1.
         -2    1    3    3    0  502 -0.13418853774E+03  0.38229989618E+02  0.59357649436E+02  0.15162923964E+03  0.00000000000E+00 0.  1.
         11    1    5    5    0    0  0.66227295669E+03 -0.33717431797E+03 -0.54366982712E+03  0.92079795329E+03  0.00000000000E+00 0.  1.
        -11    1    5    5    0    0  0.29694577644E+02 -0.17443953530E+01 -0.41887255936E+02  0.51374634466E+02  0.00000000000E+00 0. -1.
          4    1    6    6  503    0 -0.98805202840E+02  0.71518649429E+02 -0.17355520087E+03  0.21212918958E+03  0.00000000000E+00 0. -1.
         -4    1    6    6    0  503 -0.13058116910E+03 -0.14866318341E+02 -0.20972023250E+03  0.24749752537E+03  0.00000000000E+00 0.  1.
<mgrwt>
<rscale>  0 0.19476441E+04</rscale>
<asrwt>0</asrwt>
<pdfrwt beam="1">  1        1 0.20970905E+00 0.19476441E+04</pdfrwt>
<pdfrwt beam="2">  1       -1 0.10703242E+00 0.19476441E+04</pdfrwt>
<totfact> 0.61875010E+00</totfact>
</mgrwt>
</event>
<event>
12    2  0.3561489E-008  0.1324923E+04  0.7818608E-02  0.9010031E-01
         -1   -1    0    0    0  501 -0.00000000000E+00  0.00000000000E+00  0.10726236556E+04  0.10726236556E+04  0.00000000000E+00 0.  1.
          1   -1    0    0  501    0  0.00000000000E+00 -0.00000000000E+00 -0.40914170708E+03  0.40914170708E+03  0.00000000000E+00 0. -1.
         23    2    1    2    0    0 -0.16565552880E+03 -0.50830109756E+01  0.52067503596E+03  0.55536815755E+03  0.99316192695E+02 0.  0.
        254    2    1    2    0    0  0.16565552880E+03  0.50830109756E+01  0.14280691252E+03  0.92639720508E+03  0.90019463234E+03 0.  0.
         23    2    4    4    0    0  0.43659898822E+03 -0.17125162567E+03 -0.12804238003E+03  0.49463181198E+03  0.91213938235E+02 0.  0.
         23    2    4    4    0    0 -0.27094345942E+03  0.17633463665E+03  0.27084929255E+03  0.43176539311E+03  0.92508124638E+02 0.  0.
          3    1    3    3  502    0 -0.82070348279E+02  0.34989891981E+02  0.34948449735E+03  0.36069273418E+03  0.00000000000E+00 0. -1.
         -3    1    3    3    0  502 -0.83585180517E+02 -0.40072902957E+02  0.17119053861E+03  0.19467542337E+03  0.00000000000E+00 0.  1.
         11    1    5    5    0    0  0.30959775588E+03 -0.16450727932E+03 -0.94487170452E+02  0.36309949156E+03  0.00000000000E+00 0. -1.
        -11    1    5    5    0    0  0.12700123234E+03 -0.67443463524E+01 -0.33555209575E+02  0.13153232041E+03  0.00000000000E+00 0.  1.
          2    1    6    6  503    0 -0.18145373552E+03  0.71900896275E+02  0.12763562334E+03  0.23320816745E+03  0.00000000000E+00 0.  1.
         -2    1    6    6    0  503 -0.89489723904E+02  0.10443374037E+03  0.14321366921E+03  0.19855722566E+03  0.00000000000E+00 0. -1.
<mgrwt>
<rscale>  0 0.13249228E+04</rscale>
<asrwt>0</asrwt>
<pdfrwt beam="1">  1        1 0.62944878E-01 0.13249228E+04</pdfrwt>
<pdfrwt beam="2">  1       -1 0.16501902E+00 0.13249228E+04</pdfrwt>
<totfact> 0.15292938E+01</totfact>
</mgrwt>
</event>
<event>
12    2  0.3561489E-008  0.2582656E+04  0.7818608E-02  0.8374116E-01
          2   -1    0    0  501    0  0.00000000000E+00  0.00000000000E+00  0.11954965998E+04  0.11954965998E+04  0.00000000000E+00 0.  1.
         -2   -1    0    0    0  501 -0.00000000000E+00 -0.00000000000E+00 -0.13948417640E+04  0.13948417640E+04  0.00000000000E+00 0. -1.
         23    2    1    2    0    0  0.15436417579E+03 -0.35732932763E+02  0.10383491722E+04  0.10542554354E+04  0.90445443926E+02 0.  0.
        254    2    1    2    0    0 -0.15436417579E+03  0.35732932763E+02 -0.12376943365E+04  0.15360829285E+04  0.89585621129E+03 0.  0.
         23    2    4    4    0    0 -0.33805247080E+03  0.35911343025E+03 -0.52337150439E+03  0.72547344209E+03  0.95666372172E+02 0.  0.
         23    2    4    4    0    0  0.18368829501E+03 -0.32338049749E+03 -0.71432283208E+03  0.81060948636E+03  0.92272937922E+02 0.  0.
          2    1    3    3  502    0  0.14162167886E+02 -0.39594563053E+02  0.22272048253E+03  0.22665548694E+03  0.00000000000E+00 0. -1.
         -2    1    3    3    0  502  0.14020200790E+03  0.38616302900E+01  0.81562868968E+03  0.82759994843E+03  0.00000000000E+00 0.  1.
         11    1    5    5    0    0 -0.27701031044E+03  0.29728801353E+03 -0.37182907910E+03  0.55079192000E+03  0.00000000000E+00 0. -1.
        -11    1    5    5    0    0 -0.61042160368E+02  0.61825416723E+02 -0.15154242529E+03  0.17468152209E+03  0.00000000000E+00 0.  1.
          2    1    6    6  503    0  0.15252103065E+03 -0.25539982058E+03 -0.48061438775E+03  0.56522731963E+03  0.00000000000E+00 0. -1.
         -2    1    6    6    0  503  0.31167264369E+02 -0.67980676903E+02 -0.23370844433E+03  0.24538216673E+03  0.00000000000E+00 0.  1.
<mgrwt>
<rscale>  0 0.25826565E+04</rscale>
<asrwt>0</asrwt>
<pdfrwt beam="1">  1        2 0.18392255E+00 0.25826565E+04</pdfrwt>
<pdfrwt beam="2">  1       -2 0.21459104E+00 0.25826565E+04</pdfrwt>
<totfact> 0.18062840E+00</totfact>
</mgrwt>
</event>
<event>
12    2  0.3561489E-008  0.2101324E+04  0.7818608E-02  0.8560660E-01
         -2   -1    0    0    0  501 -0.00000000000E+00  0.00000000000E+00  0.41269813563E+03  0.41269813563E+03  0.00000000000E+00 0. -1.
          2   -1    0    0  501    0  0.00000000000E+00 -0.00000000000E+00 -0.26748141664E+04  0.26748141664E+04  0.00000000000E+00 0.  1.
         23    2    1    2    0    0 -0.16668971888E+03 -0.15586258242E+03  0.28781136197E+03  0.37815475739E+03  0.89927934950E+02 0.  0.
        254    2    1    2    0    0  0.16668971888E+03  0.15586258242E+03 -0.25499273927E+04  0.27093575446E+04  0.88679760344E+03 0.  0.
         23    2    4    4    0    0 -0.33605712087E+03  0.11733256963E+03 -0.14586139314E+04  0.15036175421E+04  0.81300624677E+02 0.  0.
         23    2    4    4    0    0  0.50274683975E+03  0.38530012783E+02 -0.10913134613E+04  0.12057400025E+04  0.92762794864E+02 0.  0.
          3    1    3    3  502    0 -0.16621163587E+03 -0.12051349677E+03  0.26809698622E+03  0.33767707180E+03  0.00000000000E+00 0. -1.
         -3    1    3    3    0  502 -0.47808300818E+00 -0.35349085649E+02  0.19714375748E+02  0.40477685589E+02  0.00000000000E+00 0.  1.
         11    1    5    5    0    0 -0.69911304196E+02  0.54605573999E+02 -0.28076777022E+03  0.29444846741E+03  0.00000000000E+00 0.  1.
        -11    1    5    5    0    0 -0.26614581667E+03  0.62726995634E+02 -0.11778461612E+04  0.12091690747E+04  0.00000000000E+00 0. -1.
          2    1    6    6  503    0  0.45398598794E+03  0.31672760830E+02 -0.10367936430E+04  0.11322753637E+04  0.00000000000E+00 0.  1.
         -2    1    6    6    0  503  0.48760851805E+02  0.68572519527E+01 -0.54519818288E+02  0.73464638836E+02  0.00000000000E+00 0. -1.
<mgrwt>
<rscale>  0 0.21013242E+04</rscale>
<asrwt>0</asrwt>
<pdfrwt beam="1">  1        2 0.41150988E+00 0.21013242E+04</pdfrwt>
<pdfrwt beam="2">  1       -2 0.63492020E-01 0.21013242E+04</pdfrwt>
<totfact> 0.58194089E+00</totfact>
</mgrwt>
</event>
<event>
12    2  0.3561489E-008  0.2797238E+04  0.7818608E-02  0.8304126E-01
         -1   -1    0    0    0  501 -0.00000000000E+00  0.00000000000E+00  0.13303980767E+04  0.13303980767E+04  0.00000000000E+00 0.  1.
          1   -1    0    0  501    0  0.00000000000E+00 -0.00000000000E+00 -0.14703380634E+04  0.14703380634E+04  0.00000000000E+00 0. -1.
         23    2    1    2    0    0 -0.10557905356E+02  0.33174806655E+03  0.11418817501E+04  0.11925869696E+04  0.90562133272E+02 0.  0.
        254    2    1    2    0    0  0.10557905356E+02 -0.33174806655E+03 -0.12818217368E+04  0.16081491704E+04  0.91263823088E+03 0.  0.
         23    2    4    4    0    0  0.24171819795E+03  0.19289105922E+03 -0.19605985332E+03  0.37702387988E+03  0.89849273626E+02 0.  0.
         23    2    4    4    0    0 -0.23116029259E+03 -0.52463912577E+03 -0.10857618835E+04  0.12311252906E+04  0.90051764604E+02 0.  0.
          3    1    3    3  502    0  0.40282289231E+01  0.29233383986E+03  0.10709542479E+04  0.11101433699E+04  0.00000000000E+00 0.  1.
         -3    1    3    3    0  502 -0.14586134279E+02  0.39414226690E+02  0.70927502109E+02  0.82443599717E+02  0.00000000000E+00 0. -1.
         11    1    5    5    0    0  0.14979781388E+03  0.80466160628E+02 -0.67076152421E+02  0.18279332119E+03  0.00000000000E+00 0. -1.
        -11    1    5    5    0    0  0.91920384068E+02  0.11242489859E+03 -0.12898370090E+03  0.19423055869E+03  0.00000000000E+00 0.  1.
          3    1    6    6  503    0 -0.71148285875E+02 -0.76460329939E+02 -0.19302660468E+03  0.21947102486E+03  0.00000000000E+00 0. -1.
         -3    1    6    6    0  503 -0.16001200672E+03 -0.44817879583E+03 -0.89273527879E+03  0.10116542657E+04  0.00000000000E+00 0.  1.
<mgrwt>
<rscale>  0 0.27972379E+04</rscale>
<asrwt>0</asrwt>
<pdfrwt beam="1">  1        1 0.22620586E+00 0.27972379E+04</pdfrwt>
<pdfrwt beam="2">  1       -1 0.20467663E+00 0.27972379E+04</pdfrwt>
<totfact> 0.83024216E-01</totfact>
</mgrwt>
</event>
<event>
12    2  0.3561489E-008  0.1188223E+04  0.7818608E-02  0.9123228E-01
          2   -1    0    0  501    0  0.00000000000E+00  0.00000000000E+00  0.12239546702E+04  0.12239546702E+04  0.00000000000E+00 0. -1.
         -2   -1    0    0    0  501 -0.00000000000E+00 -0.00000000000E+00 -0.28838347210E+03  0.28838347210E+03  0.00000000000E+00 0.  1.
         23    2    1    2    0    0 -0.52878946572E+02 -0.46350547650E+02  0.46406752665E+03  0.47923046744E+03  0.96739936824E+02 0.  0.
        254    2    1    2    0    0  0.52878946572E+02  0.46350547650E+02  0.47150367141E+03  0.10331076748E+04  0.91654307010E+03 0.  0.
         23    2    4    4    0    0 -0.92884529931E+02  0.35831254751E+03  0.54916637776E+03  0.66905344133E+03  0.95044091262E+02 0.  0.
         23    2    4    4    0    0  0.14576347650E+03 -0.31196199986E+03 -0.77662706350E+02  0.36405423349E+03  0.89088206418E+02 0.  0.
          2    1    3    3  502    0 -0.27345389815E+02  0.37642482821E+01  0.35896535664E+03  0.36002509242E+03  0.00000000000E+00 0. -1.
         -2    1    3    3    0  502 -0.25533556758E+02 -0.50114795932E+02  0.10510217001E+03  0.11920537502E+03  0.00000000000E+00 0.  1.
         11    1    5    5    0    0 -0.80876176680E+02  0.27882159559E+03  0.35295816881E+03  0.45701412128E+03  0.00000000000E+00 0.  1.
        -11    1    5    5    0    0 -0.12008353251E+02  0.79490951923E+02  0.19620820895E+03  0.21203932005E+03  0.00000000000E+00 0. -1.
          3    1    6    6  503    0  0.84280595852E+02 -0.13505170835E+03 -0.76830316008E+02  0.17676277952E+03  0.00000000000E+00 0. -1.
         -3    1    6    6    0  503  0.61482880651E+02 -0.17691029152E+03 -0.83239034296E+00  0.18729145397E+03  0.00000000000E+00 0.  1.
<mgrwt>
<rscale>  0 0.11882227E+04</rscale>
<asrwt>0</asrwt>
<pdfrwt beam="1">  1        2 0.18830072E+00 0.11882227E+04</pdfrwt>
<pdfrwt beam="2">  1       -2 0.44366689E-01 0.11882227E+04</pdfrwt>
<totfact> 0.87151833E+01</totfact>
</mgrwt>
</event>
<event>
12    2  0.3561489E-008  0.1368916E+04  0.7818608E-02  0.8976631E-01
         -2   -1    0    0    0  501 -0.00000000000E+00  0.00000000000E+00  0.28758730320E+03  0.28758730320E+03  0.00000000000E+00 0.  1.
          2   -1    0    0  501    0  0.00000000000E+00 -0.00000000000E+00 -0.16290102966E+04  0.16290102966E+04  0.00000000000E+00 0. -1.
         23    2    1    2    0    0 -0.12454859607E+03  0.32347698926E+03 -0.59694975923E+03  0.69596761812E+03  0.88725391277E+02 0.  0.
        254    2    1    2    0    0  0.12454859607E+03 -0.32347698926E+03 -0.74447323412E+03  0.12206299816E+04  0.90307665255E+03 0.  0.
         23    2    4    4    0    0 -0.16156024573E+03 -0.54750702331E+03 -0.34830190765E+03  0.67480792861E+03  0.90475787201E+02 0.  0.
         23    2    4    4    0    0  0.28610884180E+03  0.22403003405E+03 -0.39617132647E+03  0.54582205302E+03  0.94457758468E+02 0.  0.
          4    1    3    3  502    0 -0.48406386534E+02  0.70858698839E+02 -0.89312755058E+02  0.12385839364E+03  0.00000000000E+00 0. -1.
         -4    1    3    3    0  502 -0.76142209531E+02  0.25261829042E+03 -0.50763700417E+03  0.57210922448E+03  0.00000000000E+00 0.  1.
         11    1    5    5    0    0 -0.15276573823E+03 -0.46607036833E+03 -0.32918669508E+03  0.59069690978E+03  0.00000000000E+00 0. -1.
        -11    1    5    5    0    0 -0.87945074988E+01 -0.81436654984E+02 -0.19115212577E+02  0.84111018833E+02  0.00000000000E+00 0.  1.
          4    1    6    6  503    0  0.23299445427E+03  0.20578035845E+03 -0.28715854147E+03  0.42319262704E+03  0.00000000000E+00 0. -1.
         -4    1    6    6    0  503  0.53114387529E+02  0.18249675602E+02 -0.10901278501E+03  0.12262942598E+03  0.00000000000E+00 0.  1.
<mgrwt>
<rscale>  0 0.13689159E+04</rscale>
<asrwt>0</asrwt>
<pdfrwt beam="1">  1        2 0.25061697E+00 0.13689159E+04</pdfrwt>
<pdfrwt beam="2">  1       -2 0.44244200E-01 0.13689159E+04</pdfrwt>
<totfact> 0.50756877E+01</totfact>
</mgrwt>
</event>
<event>
12    2  0.3561489E-008  0.1710766E+04  0.7818608E-02  0.8755248E-01
         -2   -1    0    0    0  501 -0.00000000000E+00  0.00000000000E+00  0.28853356799E+03  0.28853356799E+03  0.00000000000E+00 0.  1.
          2   -1    0    0  501    0  0.00000000000E+00 -0.00000000000E+00 -0.25358590676E+04  0.25358590676E+04  0.00000000000E+00 0. -1.
         23    2    1    2    0    0  0.20039507355E+03  0.25559964468E+03  0.49643244780E+02  0.34122951818E+03  0.92107374626E+02 0.  0.
        254    2    1    2    0    0 -0.20039507355E+03 -0.25559964468E+03 -0.22969687444E+04  0.24831631174E+04  0.88574504862E+03 0.  0.
         23    2    4    4    0    0 -0.48686932309E+03 -0.60386250686E+02 -0.18151322168E+04  0.18825222354E+04  0.92177899779E+02 0.  0.
         23    2    4    4    0    0  0.28647424954E+03 -0.19521339399E+03 -0.48183652762E+03  0.60064088207E+03  0.91800136252E+02 0.  0.
          2    1    3    3  502    0  0.13909131825E+03  0.23287705776E+03  0.50141017626E+02  0.27584822002E+03  0.00000000000E+00 0.  1.
         -2    1    3    3    0  502  0.61303755303E+02  0.22722586923E+02 -0.49777284600E+00  0.65381298155E+02  0.00000000000E+00 0. -1.
         11    1    5    5    0    0 -0.40568871487E+03 -0.84699392411E+02 -0.15038331787E+04  0.15598947239E+04  0.00000000000E+00 0.  1.
        -11    1    5    5    0    0 -0.81180608221E+02  0.24313141725E+02 -0.31129903809E+03  0.32262751143E+03  0.00000000000E+00 0. -1.
          2    1    6    6  503    0  0.15930240513E+02 -0.53443926899E+01 -0.73012414092E+02  0.74920943050E+02  0.00000000000E+00 0. -1.
         -2    1    6    6    0  503  0.27054400903E+03 -0.18986900130E+03 -0.40882411353E+03  0.52571993902E+03  0.00000000000E+00 0.  1.
<mgrwt>
<rscale>  0 0.17107665E+04</rscale>
<asrwt>0</asrwt>
<pdfrwt beam="1">  1        2 0.39013216E+00 0.17107665E+04</pdfrwt>
<pdfrwt beam="2">  1       -2 0.44389780E-01 0.17107665E+04</pdfrwt>
<totfact> 0.15208921E+01</totfact>
</mgrwt>
</event>
<event>
12    2  0.3561489E-008  0.1595532E+04  0.7818608E-02  0.8823298E-01
          1   -1    0    0  501    0  0.00000000000E+00  0.00000000000E+00  0.14378704373E+04  0.14378704373E+04  0.00000000000E+00 0. -1.
         -1   -1    0    0    0  501 -0.00000000000E+00 -0.00000000000E+00 -0.44262018604E+03  0.44262018604E+03  0.00000000000E+00 0.  1.
         23    2    1    2    0    0  0.90906863015E+02 -0.20383796443E+03 -0.23819263468E+03  0.33884522827E+03  0.90919656962E+02 0.  0.
        254    2    1    2    0    0 -0.90906863015E+02  0.20383796443E+03  0.12334428859E+04  0.15416453950E+04  0.89748270053E+03 0.  0.
         23    2    4    4    0    0 -0.47048686164E+03  0.16103293996E+03  0.86490848362E+03  0.10018363035E+04  0.91212933942E+02 0.  0.
         23    2    4    4    0    0  0.37957999862E+03  0.42805024464E+02  0.36853440228E+03  0.53980909149E+03  0.98300580480E+02 0.  0.
          1    1    3    3  502    0  0.23499690046E+02 -0.38424803005E+02 -0.53147606664E+01  0.45353584193E+02  0.00000000000E+00 0. -1.
         -1    1    3    3    0  502  0.67407172969E+02 -0.16541316142E+03 -0.23287787401E+03  0.29349164408E+03  0.00000000000E+00 0.  1.
         11    1    5    5    0    0 -0.25995616444E+03  0.13611326536E+03  0.51384468586E+03  0.59172661730E+03  0.00000000000E+00 0. -1.
        -11    1    5    5    0    0 -0.21053069720E+03  0.24919674601E+02  0.35106379776E+03  0.41010968623E+03  0.00000000000E+00 0.  1.
          4    1    6    6  503    0  0.74850111818E+02  0.40544349961E+02  0.11687932119E+03  0.14459308170E+03  0.00000000000E+00 0. -1.
         -4    1    6    6    0  503  0.30472988680E+03  0.22606745032E+01  0.25165508108E+03  0.39521600979E+03  0.00000000000E+00 0.  1.
<mgrwt>
<rscale>  0 0.15955319E+04</rscale>
<asrwt>0</asrwt>
<pdfrwt beam="1">  1        1 0.22121083E+00 0.15955319E+04</pdfrwt>
<pdfrwt beam="2">  1       -1 0.68095414E-01 0.15955319E+04</pdfrwt>
<totfact> 0.15145316E+01</totfact>
</mgrwt>
</event>
<event>
12    2  0.3561489E-008  0.1396557E+04  0.7818608E-02  0.8956315E-01
          2   -1    0    0  501    0  0.00000000000E+00  0.00000000000E+00  0.69036048136E+03  0.69036048136E+03  0.00000000000E+00 0. -1.
         -2   -1    0    0    0  501 -0.00000000000E+00 -0.00000000000E+00 -0.70628707558E+03  0.70628707558E+03  0.00000000000E+00 0.  1.
         23    2    1    2    0    0  0.16295715352E+03 -0.28389800533E+03 -0.22792778124E+03  0.40911875249E+03  0.90961359178E+02 0.  0.
        254    2    1    2    0    0 -0.16295715352E+03  0.28389800533E+03  0.21200118702E+03  0.98752880445E+03  0.90725714381E+03 0.  0.
         23    2    4    4    0    0 -0.31687844698E+03 -0.19115282252E+03 -0.96111715691E+02  0.39343625635E+03  0.92753836586E+02 0.  0.
         23    2    4    4    0    0  0.15392129346E+03  0.47505082785E+03  0.30811290271E+03  0.59409254810E+03  0.92991081672E+02 0.  0.
          1    1    3    3  502    0  0.34813978162E+01 -0.74670441029E+02 -0.69217995711E+02  0.10187701323E+03  0.00000000000E+00 0. -1.
         -1    1    3    3    0  502  0.15947575571E+03 -0.20922756430E+03 -0.15870978553E+03  0.30724173926E+03  0.00000000000E+00 0.  1.
         11    1    5    5    0    0 -0.18820354669E+03 -0.87593256588E+02 -0.11634224997E+02  0.20791466705E+03  0.00000000000E+00 0.  1.
        -11    1    5    5    0    0 -0.12867490029E+03 -0.10355956593E+03 -0.84477490694E+02  0.18552158930E+03  0.00000000000E+00 0. -1.
          3    1    6    6  503    0  0.10528990819E+03  0.37085271350E+03  0.27780558356E+03  0.47517748488E+03  0.00000000000E+00 0. -1.
         -3    1    6    6    0  503  0.48631385262E+02  0.10419811434E+03  0.30307319145E+02  0.11891506321E+03  0.00000000000E+00 0.  1.
<mgrwt>
<rscale>  0 0.13965567E+04</rscale>
<asrwt>0</asrwt>
<pdfrwt beam="1">  1        2 0.10620931E+00 0.13965567E+04</pdfrwt>
<pdfrwt beam="2">  1       -2 0.10865955E+00 0.13965567E+04</pdfrwt>
<totfact> 0.27477973E+01</totfact>
</mgrwt>
</event>
<event>
12    2  0.3561489E-008  0.1390427E+04  0.7818608E-02  0.8960777E-01
          1   -1    0    0  501    0  0.00000000000E+00  0.00000000000E+00  0.39240852543E+04  0.39240852543E+04  0.00000000000E+00 0. -1.
         -1   -1    0    0    0  501 -0.00000000000E+00 -0.00000000000E+00 -0.12316802668E+03  0.12316802668E+03  0.00000000000E+00 0.  1.
         23    2    1    2    0    0  0.36755418447E+03  0.91611243849E+02  0.75833806443E+03  0.85277152348E+03  0.93026623965E+02 0.  0.
        254    2    1    2    0    0 -0.36755418447E+03 -0.91611243849E+02  0.30425791631E+04  0.31944817575E+04  0.89662536001E+03 0.  0.
         23    2    4    4    0    0 -0.11823609228E+03  0.13987299451E+02  0.28382600921E+04  0.28422712236E+04  0.92789761288E+02 0.  0.
         23    2    4    4    0    0 -0.24931809220E+03 -0.10559854330E+03  0.20431907105E+03  0.35221053390E+03  0.94844156138E+02 0.  0.
          1    1    3    3  502    0  0.10944741368E+03  0.50073339166E+02  0.16352543775E+03  0.20304345457E+03  0.00000000000E+00 0. -1.
         -1    1    3    3    0  502  0.25810677080E+03  0.41537904683E+02  0.59481262668E+03  0.64972806890E+03  0.00000000000E+00 0.  1.
         11    1    5    5    0    0 -0.31907014617E+02  0.30596960363E+02  0.17173798448E+04  0.17179487079E+04  0.00000000000E+00 0. -1.
        -11    1    5    5    0    0 -0.86329077659E+02 -0.16609660912E+02  0.11208802473E+04  0.11243225156E+04  0.00000000000E+00 0.  1.
          3    1    6    6  503    0 -0.23481118486E+03 -0.74733307420E+02  0.20090170875E+03  0.31793530215E+03  0.00000000000E+00 0. -1.
         -3    1    6    6    0  503 -0.14506907336E+02 -0.30865235881E+02  0.34173622912E+01  0.34275231749E+02  0.00000000000E+00 0.  1.
<mgrwt>
<rscale>  0 0.13904270E+04</rscale>
<asrwt>0</asrwt>
<pdfrwt beam="1">  1        1 0.60370533E+00 0.13904270E+04</pdfrwt>
<pdfrwt beam="2">  1       -1 0.18948930E-01 0.13904270E+04</pdfrwt>
<totfact> 0.24964517E+00</totfact>
</mgrwt>
</event>
<event>
12    2  0.3561489E-008  0.2408810E+04  0.7818608E-02  0.8436213E-01
          1   -1    0    0  501    0  0.00000000000E+00  0.00000000000E+00  0.21187011583E+04  0.21187011583E+04  0.00000000000E+00 0. -1.
         -1   -1    0    0    0  501 -0.00000000000E+00 -0.00000000000E+00 -0.68466081258E+03  0.68466081258E+03  0.00000000000E+00 0.  1.
         23    2    1    2    0    0  0.95264999031E+03 -0.97858332571E+02  0.10889983747E+04  0.14529926518E+04  0.90288033010E+02 0.  0.
        254    2    1    2    0    0 -0.95264999031E+03  0.97858332571E+02  0.34504197105E+03  0.13503693191E+04  0.88731340506E+03 0.  0.
         23    2    4    4    0    0 -0.19940989126E+03 -0.35366964644E+03  0.45797194797E+02  0.41869938956E+03  0.91461862117E+02 0.  0.
         23    2    4    4    0    0 -0.75324009905E+03  0.45152797901E+03  0.29924477625E+03  0.93166992950E+03  0.84930905922E+02 0.  0.
          1    1    3    3  502    0  0.77885257244E+03 -0.71534899090E+02  0.83492887736E+03  0.11440431817E+04  0.00000000000E+00 0. -1.
         -1    1    3    3    0  502  0.17379741787E+03 -0.26323433481E+02  0.25406949736E+03  0.30894947013E+03  0.00000000000E+00 0.  1.
         11    1    5    5    0    0 -0.15536291298E+03 -0.23245164606E+03  0.68215378716E+02  0.28779287757E+03  0.00000000000E+00 0. -1.
        -11    1    5    5    0    0 -0.44046978282E+02 -0.12121800038E+03 -0.22418183919E+02  0.13090651200E+03  0.00000000000E+00 0.  1.
          1    1    6    6  503    0 -0.28477982913E+03  0.17554288938E+03  0.70970744580E+02  0.34198202245E+03  0.00000000000E+00 0. -1.
         -1    1    6    6    0  503 -0.46846026991E+03  0.27598508963E+03  0.22827403167E+03  0.58968790705E+03  0.00000000000E+00 0.  1.
<mgrwt>
<rscale>  0 0.24088102E+04</rscale>
<asrwt>0</asrwt>
<pdfrwt beam="1">  1        1 0.32595402E+00 0.24088102E+04</pdfrwt>
<pdfrwt beam="2">  1       -1 0.10533243E+00 0.24088102E+04</pdfrwt>
<totfact> 0.18724052E+00</totfact>
</mgrwt>
</event>
<event>
12    2  0.3561489E-008  0.5278616E+04  0.7818608E-02  0.7786909E-01
          1   -1    0    0  501    0  0.00000000000E+00  0.00000000000E+00  0.34177203373E+04  0.34177203373E+04  0.00000000000E+00 0. -1.
         -1   -1    0    0    0  501 -0.00000000000E+00 -0.00000000000E+00 -0.20381847702E+04  0.20381847702E+04  0.00000000000E+00 0.  1.
         23    2    1    2    0    0  0.21416581583E+04 -0.12207562767E+04  0.14169243829E+04  0.28448193605E+04  0.91525586334E+02 0.  0.
        254    2    1    2    0    0 -0.21416581583E+04  0.12207562767E+04 -0.37388815776E+02  0.26110857471E+04  0.85989842465E+03 0.  0.
         23    2    4    4    0    0 -0.11101255163E+04  0.25825281146E+03  0.24640606318E+03  0.11690773504E+04  0.83383011561E+02 0.  0.
         23    2    4    4    0    0 -0.10315326420E+04  0.96250346521E+03 -0.28379487895E+03  0.14420083966E+04  0.91521421650E+02 0.  0.
          3    1    3    3  502    0  0.41151813846E+02 -0.33882781798E+02  0.19869456057E+02  0.56888575032E+02  0.00000000000E+00 0. -1.
         -3    1    3    3    0  502  0.21005063445E+04 -0.11868734949E+04  0.13970549268E+04  0.27879307855E+04  0.00000000000E+00 0.  1.
         11    1    5    5    0    0 -0.65315949079E+03  0.11143761685E+03  0.13092164536E+03  0.67540812852E+03  0.00000000000E+00 0.  1.
        -11    1    5    5    0    0 -0.45696602556E+03  0.14681519461E+03  0.11548441782E+03  0.49366922189E+03  0.00000000000E+00 0. -1.
          3    1    6    6  503    0 -0.51522396768E+01 -0.13224780082E+01  0.12431363519E+01  0.54625918536E+01  0.00000000000E+00 0. -1.
         -3    1    6    6    0  503 -0.10263804023E+04  0.96382594322E+03 -0.28503801530E+03  0.14365458048E+04  0.00000000000E+00 0.  1.
<mgrwt>
<rscale>  0 0.52786156E+04</rscale>
<asrwt>0</asrwt>
<pdfrwt beam="1">  1        1 0.52580313E+00 0.52786156E+04</pdfrwt>
<pdfrwt beam="2">  1       -1 0.31356689E+00 0.52786156E+04</pdfrwt>
<totfact> 0.55141996E-03</totfact>
</mgrwt>
</event>
<event>
12    2  0.3561489E-008  0.1501426E+04  0.7818608E-02  0.8883505E-01
         -2   -1    0    0    0  501 -0.00000000000E+00  0.00000000000E+00  0.59415400975E+03  0.59415400975E+03  0.00000000000E+00 0.  1.
          2   -1    0    0  501    0  0.00000000000E+00 -0.00000000000E+00 -0.94852534294E+03  0.94852534294E+03  0.00000000000E+00 0. -1.
         23    2    1    2    0    0  0.13504047488E+03  0.22282770341E+03 -0.51714860148E+03  0.58628268905E+03  0.91632964645E+02 0.  0.
        254    2    1    2    0    0 -0.13504047488E+03 -0.22282770341E+03  0.16277726828E+03  0.95639666363E+03  0.90570967969E+03 0.  0.
         23    2    4    4    0    0  0.36540700477E+02 -0.21625531893E+03 -0.34076535023E+03  0.41594290378E+03  0.93733075986E+02 0.  0.
         23    2    4    4    0    0 -0.17158117535E+03 -0.65723844836E+01  0.50354261851E+03  0.54045375985E+03  0.95140958088E+02 0.  0.
          2    1    3    3  502    0  0.63921719485E+02  0.34120384055E+02 -0.10682371017E+03  0.12907940147E+03  0.00000000000E+00 0.  1.
         -2    1    3    3    0  502  0.71118755392E+02  0.18870731935E+03 -0.41032489131E+03  0.45720328758E+03  0.00000000000E+00 0. -1.
         11    1    5    5    0    0  0.28135198753E+02 -0.12248448068E+02 -0.73194832753E+02  0.79366853476E+02  0.00000000000E+00 0.  1.
        -11    1    5    5    0    0  0.84055017236E+01 -0.20400687086E+03 -0.26757051748E+03  0.33657605031E+03  0.00000000000E+00 0. -1.
          3    1    6    6  503    0 -0.12849640778E+03 -0.29367829501E+02  0.44585345590E+03  0.46492913477E+03  0.00000000000E+00 0. -1.
         -3    1    6    6    0  503 -0.43084767574E+02  0.22795445017E+02  0.57689162611E+02  0.75524625078E+02  0.00000000000E+00 0.  1.
<mgrwt>
<rscale>  0 0.15014262E+04</rscale>
<asrwt>0</asrwt>
<pdfrwt beam="1">  1        2 0.14592697E+00 0.15014262E+04</pdfrwt>
<pdfrwt beam="2">  1       -2 0.91408310E-01 0.15014262E+04</pdfrwt>
<totfact> 0.26807950E+01</totfact>
</mgrwt>
</event>
<event>
12    2  0.3561489E-008  0.1585285E+04  0.7818608E-02  0.8829639E-01
         -1   -1    0    0    0  501 -0.00000000000E+00  0.00000000000E+00  0.52972915060E+03  0.52972915060E+03  0.00000000000E+00 0.  1.
          1   -1    0    0  501    0  0.00000000000E+00 -0.00000000000E+00 -0.11860442151E+04  0.11860442151E+04  0.00000000000E+00 0. -1.
         23    2    1    2    0    0  0.33161784572E+03 -0.44164584100E+02  0.21427774370E+03  0.40744634629E+03  0.90424927807E+02 0.  0.
        254    2    1    2    0    0 -0.33161784572E+03  0.44164584100E+02 -0.87059280817E+03  0.13083270194E+04  0.91753302169E+03 0.  0.
         23    2    4    4    0    0  0.29794908418E+02 -0.55186170138E+02  0.16747656377E+03  0.20096408398E+03  0.91678316392E+02 0.  0.
         23    2    4    4    0    0 -0.36141275414E+03  0.99350754238E+02 -0.10380693719E+04  0.11073629354E+04  0.90415145267E+02 0.  0.
          2    1    3    3  502    0  0.60773411536E+02 -0.21520044621E+02  0.84434537012E+02  0.10623422664E+03  0.00000000000E+00 0. -1.
         -2    1    3    3    0  502  0.27084443419E+03 -0.22644539479E+02  0.12984320669E+03  0.30121211964E+03  0.00000000000E+00 0.  1.
         11    1    5    5    0    0 -0.24343052365E+02 -0.27032373039E+02  0.20344621254E+02  0.41680175198E+02  0.00000000000E+00 0. -1.
        -11    1    5    5    0    0  0.54137960784E+02 -0.28153797099E+02  0.14713194252E+03  0.15928390879E+03  0.00000000000E+00 0.  1.
          3    1    6    6  503    0 -0.61166853399E+02  0.54632499393E+02 -0.22070925365E+03  0.23545417514E+03  0.00000000000E+00 0. -1.
         -3    1    6    6    0  503 -0.30024590074E+03  0.44718254844E+02 -0.81736011830E+03  0.87190876025E+03  0.00000000000E+00 0.  1.
<mgrwt>
<rscale>  0 0.15852851E+04</rscale>
<asrwt>0</asrwt>
<pdfrwt beam="1">  1        1 0.18246834E+00 0.15852851E+04</pdfrwt>
<pdfrwt beam="2">  1       -1 0.81496793E-01 0.15852851E+04</pdfrwt>
<totfact> 0.15759609E+01</totfact>
</mgrwt>
</event>
<event>
12    2  0.3561489E-008  0.1875574E+04  0.7818608E-02  0.8667111E-01
          3   -1    0    0  501    0  0.00000000000E+00  0.00000000000E+00  0.95658152552E+03  0.95658152552E+03  0.00000000000E+00 0. -1.
         -3   -1    0    0    0  501 -0.00000000000E+00 -0.00000000000E+00 -0.91936187198E+03  0.91936187198E+03  0.00000000000E+00 0.  1.
         23    2    1    2    0    0 -0.92379797247E+02 -0.45277522312E+02 -0.69275169493E+03  0.70626837228E+03  0.91247037738E+02 0.  0.
        254    2    1    2    0    0  0.92379797247E+02  0.45277522312E+02  0.72997134846E+03  0.11696750252E+04  0.90812852289E+03 0.  0.
         23    2    4    4    0    0  0.24696010638E+03 -0.37233724511E+03  0.41546483265E+03  0.61703898347E+03  0.92204998299E+02 0.  0.
         23    2    4    4    0    0 -0.15458030913E+03  0.41761476743E+03  0.31450651582E+03  0.55263604175E+03  0.90526682304E+02 0.  0.
          4    1    3    3  502    0 -0.81714378420E+02 -0.54792339128E+02 -0.35976067071E+03  0.37297074987E+03  0.00000000000E+00 0.  1.
         -4    1    3    3    0  502 -0.10665418827E+02  0.95148168157E+01 -0.33299102421E+03  0.33329762241E+03  0.00000000000E+00 0. -1.
         11    1    5    5    0    0  0.16349184876E+03 -0.23051900564E+03  0.31945373811E+03  0.42651997300E+03  0.00000000000E+00 0. -1.
        -11    1    5    5    0    0  0.83468257625E+02 -0.14181823947E+03  0.96011094538E+02  0.19051901047E+03  0.00000000000E+00 0.  1.
          4    1    6    6  503    0 -0.49633417684E+02  0.15669476214E+03  0.65264856120E+02  0.17685085829E+03  0.00000000000E+00 0. -1.
         -4    1    6    6    0  503 -0.10494689145E+03  0.26092000529E+03  0.24924165970E+03  0.37578518347E+03  0.00000000000E+00 0.  1.
<mgrwt>
<rscale>  0 0.18755741E+04</rscale>
<asrwt>0</asrwt>
<pdfrwt beam="1">  1        3 0.14716639E+00 0.18755741E+04</pdfrwt>
<pdfrwt beam="2">  1       -3 0.14144029E+00 0.18755741E+04</pdfrwt>
<totfact> 0.31292293E-01</totfact>
</mgrwt>
</event>
<event>
12    2  0.3561489E-008  0.1061811E+04  0.7818608E-02  0.9243234E-01
         -1   -1    0    0    0  501 -0.00000000000E+00  0.00000000000E+00  0.16086852230E+04  0.16086852230E+04  0.00000000000E+00 0.  1.
          1   -1    0    0  501    0  0.00000000000E+00 -0.00000000000E+00 -0.17521192773E+03  0.17521192773E+03  0.00000000000E+00 0. -1.
         23    2    1    2    0    0  0.38989925349E+01  0.11969128808E+03  0.29745739311E+03  0.33458721826E+03  0.95532713371E+02 0.  0.
        254    2    1    2    0    0 -0.38989925349E+01 -0.11969128808E+03  0.11360159022E+04  0.14493099325E+04  0.89197866780E+03 0.  0.
         23    2    4    4    0    0 -0.23032822832E+03 -0.35574756698E+03  0.98263973320E+03  0.10740760568E+04  0.91929898935E+02 0.  0.
         23    2    4    4    0    0  0.22642923579E+03  0.23605627890E+03  0.15337616899E+03  0.37523387571E+03  0.10140733030E+03 0.  0.
          4    1    3    3  502    0  0.47095888955E+02  0.48287781590E+02  0.10478444945E+03  0.12461746850E+03  0.00000000000E+00 0. -1.
         -4    1    3    3    0  502 -0.43196896420E+02  0.71403506493E+02  0.19267294366E+03  0.20996974977E+03  0.00000000000E+00 0.  1.
         11    1    5    5    0    0 -0.18091794084E+03 -0.26008579591E+03  0.62705633358E+03  0.70254933494E+03  0.00000000000E+00 0. -1.
        -11    1    5    5    0    0 -0.49410287485E+02 -0.95661771071E+02  0.35558339962E+03  0.37152672184E+03  0.00000000000E+00 0.  1.
          2    1    6    6  503    0  0.21507672791E+03  0.23456133731E+03  0.16537804394E+03  0.35864594974E+03  0.00000000000E+00 0. -1.
         -2    1    6    6    0  503  0.11352507872E+02  0.14949415934E+01 -0.12001874955E+02  0.16587925964E+02  0.00000000000E+00 0.  1.
<mgrwt>
<rscale>  0 0.10618114E+04</rscale>
<asrwt>0</asrwt>
<pdfrwt beam="1">  1        1 0.26955682E-01 0.10618114E+04</pdfrwt>
<pdfrwt beam="2">  1       -1 0.24749003E+00 0.10618114E+04</pdfrwt>
<totfact> 0.12852560E+01</totfact>
</mgrwt>
</event>
<event>
12    2  0.3561489E-008  0.2148366E+04  0.7818608E-02  0.8540232E-01
         -1   -1    0    0    0  501 -0.00000000000E+00  0.00000000000E+00  0.85601232417E+03  0.85601232417E+03  0.00000000000E+00 0.  1.
          1   -1    0    0  501    0  0.00000000000E+00 -0.00000000000E+00 -0.13479587225E+04  0.13479587225E+04  0.00000000000E+00 0. -1.
         23    2    1    2    0    0  0.38983959464E+03  0.47178718477E+03  0.44308815337E+03  0.76107926485E+03  0.91413776151E+02 0.  0.
        254    2    1    2    0    0 -0.38983959464E+03 -0.47178718477E+03 -0.93503455172E+03  0.14428917818E+04  0.91273710559E+03 0.  0.
         23    2    4    4    0    0 -0.42398060535E+03  0.10616007182E+03 -0.16567380175E+03  0.47577958536E+03  0.88819427509E+02 0.  0.
         23    2    4    4    0    0  0.34141010705E+02 -0.57794725659E+03 -0.76936074996E+03  0.96711219647E+03  0.90561564531E+02 0.  0.
          4    1    3    3  502    0  0.15374680763E+02  0.45324948439E+02  0.58160408862E+02  0.75321742668E+02  0.00000000000E+00 0. -1.
         -4    1    3    3    0  502  0.37446491388E+03  0.42646223633E+03  0.38492774451E+03  0.68575752218E+03  0.00000000000E+00 0.  1.
         11    1    5    5    0    0 -0.30499162792E+03  0.11395260972E+03 -0.10576383655E+03  0.34233182658E+03  0.00000000000E+00 0. -1.
        -11    1    5    5    0    0 -0.11898897742E+03 -0.77925378974E+01 -0.59909965202E+02  0.13344775879E+03  0.00000000000E+00 0.  1.
          4    1    6    6  503    0 -0.23959209404E+02 -0.34175310873E+03 -0.43847850673E+03  0.55644643220E+03  0.00000000000E+00 0. -1.
         -4    1    6    6    0  503  0.58100220108E+02 -0.23619414785E+03 -0.33088224323E+03  0.41066576427E+03  0.00000000000E+00 0.  1.
<mgrwt>
<rscale>  0 0.21483662E+04</rscale>
<asrwt>0</asrwt>
<pdfrwt beam="1">  1        1 0.20737827E+00 0.21483662E+04</pdfrwt>
<pdfrwt beam="2">  1       -1 0.13169420E+00 0.21483662E+04</pdfrwt>
<totfact> 0.37582134E+00</totfact>
</mgrwt>
</event>
<event>
12    2  0.3561489E-008  0.1505456E+04  0.7818608E-02  0.8880833E-01
         -1   -1    0    0    0  501 -0.00000000000E+00  0.00000000000E+00  0.30249934877E+03  0.30249934877E+03  0.00000000000E+00 0.  1.
          1   -1    0    0  501    0  0.00000000000E+00 -0.00000000000E+00 -0.18730599242E+04  0.18730599242E+04  0.00000000000E+00 0. -1.
         23    2    1    2    0    0  0.46172876976E+03  0.86597897234E+02 -0.43873304617E+03  0.64972313954E+03  0.94661605846E+02 0.  0.
        254    2    1    2    0    0 -0.46172876976E+03 -0.86597897234E+02 -0.11318275293E+04  0.15258361334E+04  0.90909278815E+03 0.  0.
         23    2    4    4    0    0  0.10295764690E+03  0.26059188068E+03 -0.61013624779E+03  0.67741265869E+03  0.90073658520E+02 0.  0.
         23    2    4    4    0    0 -0.56468641665E+03 -0.34718977792E+03 -0.52169128147E+03  0.84842347474E+03  0.90824601737E+02 0.  0.
          2    1    3    3  502    0  0.34071599159E+03  0.69700297329E+02 -0.26455347003E+03  0.43696001749E+03  0.00000000000E+00 0. -1.
         -2    1    3    3    0  502  0.12101277816E+03  0.16897599906E+02 -0.17417957614E+03  0.21276312205E+03  0.00000000000E+00 0.  1.
         11    1    5    5    0    0 -0.10667536790E+02  0.31503488714E+02 -0.12070067626E+03  0.12519951834E+03  0.00000000000E+00 0. -1.
        -11    1    5    5    0    0  0.11362518369E+03  0.22908839197E+03 -0.48943557152E+03  0.55221314035E+03  0.00000000000E+00 0.  1.
          2    1    6    6  503    0 -0.25351219152E+01  0.48759805373E+01 -0.22562821269E+01  0.59407775889E+01  0.00000000000E+00 0. -1.
         -2    1    6    6    0  503 -0.56215129474E+03 -0.35206575846E+03 -0.51943499934E+03  0.84248269715E+03  0.00000000000E+00 0.  1.
<mgrwt>
<rscale>  0 0.15054560E+04</rscale>
<asrwt>0</asrwt>
<pdfrwt beam="1">  1        1 0.28816306E+00 0.15054560E+04</pdfrwt>
<pdfrwt beam="2">  1       -1 0.46538362E-01 0.15054560E+04</pdfrwt>
<totfact> 0.16162052E+01</totfact>
</mgrwt>
</event>
<event>
12    2  0.3561489E-008  0.1329695E+04  0.7818608E-02  0.9006343E-01
         -2   -1    0    0    0  501 -0.00000000000E+00  0.00000000000E+00  0.14106118639E+04  0.14106118639E+04  0.00000000000E+00 0.  1.
          2   -1    0    0  501    0  0.00000000000E+00 -0.00000000000E+00 -0.31335473406E+03  0.31335473406E+03  0.00000000000E+00 0. -1.
         23    2    1    2    0    0  0.27165834863E+03  0.12647921036E+03  0.55569426859E+03  0.63801526071E+03  0.92044031382E+02 0.  0.
        254    2    1    2    0    0 -0.27165834863E+03 -0.12647921036E+03  0.54156286121E+03  0.10859513372E+04  0.89230304557E+03 0.  0.
         23    2    4    4    0    0 -0.33202091171E+03 -0.11445210343E+03  0.75969325050E+03  0.84176926265E+03  0.90024923686E+02 0.  0.
         23    2    4    4    0    0  0.60362563084E+02 -0.12027106935E+02 -0.21813038929E+03  0.24418207457E+03  0.90861039436E+02 0.  0.
          4    1    3    3  502    0  0.22310166490E+03  0.69620368713E+02  0.36759818918E+03  0.43560277468E+03  0.00000000000E+00 0. -1.
         -4    1    3    3    0  502  0.48556683729E+02  0.56858841650E+02  0.18809607941E+03  0.20241248602E+03  0.00000000000E+00 0.  1.
         11    1    5    5    0    0 -0.11464308746E+03 -0.61064872393E+02  0.37292887364E+03  0.39490239420E+03  0.00000000000E+00 0.  1.
        -11    1    5    5    0    0 -0.21737782425E+03 -0.53387231036E+02  0.38676437686E+03  0.44686686845E+03  0.00000000000E+00 0. -1.
          1    1    6    6  503    0  0.60134663833E+02  0.10836918084E+02 -0.21182722617E+03  0.22046403411E+03  0.00000000000E+00 0. -1.
         -1    1    6    6    0  503  0.22789925063E+00 -0.22864025019E+02 -0.63031631179E+01  0.23718040463E+02  0.00000000000E+00 0.  1.
<mgrwt>
<rscale>  0 0.13296946E+04</rscale>
<asrwt>0</asrwt>
<pdfrwt beam="1">  1        2 0.48208421E-01 0.13296946E+04</pdfrwt>
<pdfrwt beam="2">  1       -2 0.21701721E+00 0.13296946E+04</pdfrwt>
<totfact> 0.10558285E+01</totfact>
</mgrwt>
</event>
<event>
12    2  0.3561489E-008  0.1649461E+04  0.7818608E-02  0.8790726E-01
         -2   -1    0    0    0  501 -0.00000000000E+00  0.00000000000E+00  0.29712203018E+03  0.29712203018E+03  0.00000000000E+00 0.  1.
          2   -1    0    0  501    0  0.00000000000E+00 -0.00000000000E+00 -0.22892283032E+04  0.22892283032E+04  0.00000000000E+00 0. -1.
         23    2    1    2    0    0  0.26273816842E+03 -0.18372605345E+03 -0.14473192430E+04  0.14851643852E+04  0.90518793849E+02 0.  0.
        254    2    1    2    0    0 -0.26273816842E+03  0.18372605345E+03 -0.54478702993E+03  0.11011859481E+04  0.90168230349E+03 0.  0.
         23    2    4    4    0    0 -0.71838492269E+02  0.45523202873E+02  0.24364597184E+03  0.27314042779E+03  0.89494149137E+02 0.  0.
         23    2    4    4    0    0 -0.19089967615E+03  0.13820285058E+03 -0.78843300177E+03  0.82804552030E+03  0.92141582075E+02 0.  0.
          1    1    3    3  502    0  0.24081551853E+03 -0.19367875068E+03 -0.13472747617E+04  0.13822636709E+04  0.00000000000E+00 0. -1.
         -1    1    3    3    0  502  0.21922649897E+02  0.99526972294E+01 -0.10004448138E+03  0.10290071436E+03  0.00000000000E+00 0.  1.
         11    1    5    5    0    0  0.12380445985E+02 -0.14694155936E+02  0.28397418684E+02  0.34287126584E+02  0.00000000000E+00 0.  1.
        -11    1    5    5    0    0 -0.84218938255E+02  0.60217358809E+02  0.21524855316E+03  0.23885330121E+03  0.00000000000E+00 0. -1.
          2    1    6    6  503    0 -0.28302646248E+01 -0.76478786743E+01 -0.57515328694E+01  0.99790067848E+01  0.00000000000E+00 0.  1.
         -2    1    6    6    0  503 -0.18806941153E+03  0.14585072925E+03 -0.78268146890E+03  0.81806651351E+03  0.00000000000E+00 0. -1.
<mgrwt>
<rscale>  0 0.16494607E+04</rscale>
<asrwt>0</asrwt>
<pdfrwt beam="1">  1        2 0.35218897E+00 0.16494607E+04</pdfrwt>
<pdfrwt beam="2">  1       -2 0.45711081E-01 0.16494607E+04</pdfrwt>
<totfact> 0.19952036E+01</totfact>
</mgrwt>
</event>
<event>
12    2  0.3561489E-008  0.1321582E+04  0.7818608E-02  0.9012623E-01
         -1   -1    0    0    0  501 -0.00000000000E+00  0.00000000000E+00  0.26300582116E+03  0.26300582116E+03  0.00000000000E+00 0.  1.
          1   -1    0    0  501    0  0.00000000000E+00 -0.00000000000E+00 -0.16602095632E+04  0.16602095632E+04  0.00000000000E+00 0. -1.
         23    2    1    2    0    0  0.22949715124E+03 -0.12311092601E+03 -0.71305814172E+03  0.76453967262E+03  0.90795126553E+02 0.  0.
        254    2    1    2    0    0 -0.22949715124E+03  0.12311092601E+03 -0.68414560030E+03  0.11586757117E+04  0.89813638163E+03 0.  0.
         23    2    4    4    0    0 -0.29963128491E+03  0.38632238212E+03 -0.71402567915E+03  0.86986417995E+03  0.88357972218E+02 0.  0.
         23    2    4    4    0    0  0.70134133664E+02 -0.26321145611E+03  0.29880078848E+02  0.28881153178E+03  0.91215209505E+02 0.  0.
          1    1    3    3  502    0  0.20622387973E+03 -0.80628010264E+02 -0.51386476844E+03  0.55954103054E+03  0.00000000000E+00 0. -1.
         -1    1    3    3    0  502  0.23273271508E+02 -0.42482915746E+02 -0.19919337327E+03  0.20499864208E+03  0.00000000000E+00 0.  1.
         11    1    5    5    0    0 -0.16317360654E+02  0.14299975203E+02 -0.74622903077E+02  0.77713082638E+02  0.00000000000E+00 0.  1.
        -11    1    5    5    0    0 -0.28331392425E+03  0.37202240692E+03 -0.63940277607E+03  0.79215109731E+03  0.00000000000E+00 0. -1.
          1    1    6    6  503    0  0.10340016214E+02 -0.17929032309E+03 -0.60300369416E+01  0.17968944664E+03  0.00000000000E+00 0. -1.
         -1    1    6    6    0  503  0.59794117450E+02 -0.83921133022E+02  0.35910115789E+02  0.10912208514E+03  0.00000000000E+00 0.  1.
<mgrwt>
<rscale>  0 0.13215821E+04</rscale>
<asrwt>0</asrwt>
<pdfrwt beam="1">  1        1 0.25541685E+00 0.13215821E+04</pdfrwt>
<pdfrwt beam="2">  1       -1 0.40462434E-01 0.13215821E+04</pdfrwt>
<totfact> 0.29686530E+01</totfact>
</mgrwt>
</event>
<event>
12    2  0.3561489E-008  0.3232259E+04  0.7818608E-02  0.8180349E-01
         -1   -1    0    0    0  501 -0.00000000000E+00  0.00000000000E+00  0.12911305538E+04  0.12911305538E+04  0.00000000000E+00 0.  1.
          1   -1    0    0  501    0  0.00000000000E+00 -0.00000000000E+00 -0.20229358178E+04  0.20229358178E+04  0.00000000000E+00 0. -1.
         23    2    1    2    0    0 -0.10421010408E+03  0.46223498431E+03  0.11093445773E+04  0.12081048010E+04  0.65961295722E+02 0.  0.
        254    2    1    2    0    0  0.10421010408E+03 -0.46223498431E+03 -0.18411498414E+04  0.21059615706E+04  0.90593624055E+03 0.  0.
         23    2    4    4    0    0 -0.22123672123E+02  0.21149879878E+03 -0.94956549729E+03  0.97738326284E+03  0.91554410475E+02 0.  0.
         23    2    4    4    0    0  0.12633377620E+03 -0.67373378309E+03 -0.89158434408E+03  0.11285783078E+04  0.94281072633E+02 0.  0.
          1    1    3    3  502    0 -0.65988234527E+02  0.15073650200E+03  0.37595273435E+03  0.41038567056E+03  0.00000000000E+00 0. -1.
         -1    1    3    3    0  502 -0.38221869549E+02  0.31149848231E+03  0.73339184296E+03  0.79771913047E+03  0.00000000000E+00 0.  1.
         11    1    5    5    0    0  0.32739416615E+02  0.98975174724E+02 -0.36700997498E+03  0.38152886699E+03  0.00000000000E+00 0. -1.
        -11    1    5    5    0    0 -0.54863088738E+02  0.11252362405E+03 -0.58255552231E+03  0.59585439585E+03  0.00000000000E+00 0.  1.
          2    1    6    6  503    0  0.17307979761E+02 -0.12983496636E+02 -0.20348295161E+02  0.29701691270E+02  0.00000000000E+00 0.  1.
         -2    1    6    6    0  503  0.10902579644E+03 -0.66075028645E+03 -0.87123604892E+03  0.10988766165E+04  0.00000000000E+00 0. -1.
<mgrwt>
<rscale>  0 0.32322588E+04</rscale>
<asrwt>0</asrwt>
<pdfrwt beam="1">  1        1 0.31122089E+00 0.32322588E+04</pdfrwt>
<pdfrwt beam="2">  1       -1 0.19863547E+00 0.32322588E+04</pdfrwt>
<totfact> 0.36897017E-01</totfact>
</mgrwt>
</event>
<event>
12    2  0.3561489E-008  0.1110253E+04  0.7818608E-02  0.9195256E-01
          1   -1    0    0  501    0  0.00000000000E+00  0.00000000000E+00  0.64073443944E+03  0.64073443944E+03  0.00000000000E+00 0. -1.
         -1   -1    0    0    0  501 -0.00000000000E+00 -0.00000000000E+00 -0.48095681743E+03  0.48095681743E+03  0.00000000000E+00 0.  1.
         23    2    1    2    0    0 -0.14802144351E+03  0.71914743894E+02 -0.31297992339E+02  0.19206695762E+03  0.93957829665E+02 0.  0.
        254    2    1    2    0    0  0.14802144351E+03 -0.71914743894E+02  0.19107561435E+03  0.92962429924E+03  0.89476777391E+03 0.  0.
         23    2    4    4    0    0 -0.50855004873E+02 -0.31324783609E+03  0.41764909644E+03  0.53245504791E+03  0.91472246876E+02 0.  0.
         23    2    4    4    0    0  0.19887644839E+03  0.24133309220E+03 -0.22657348209E+03  0.39716925134E+03  0.92813621332E+02 0.  0.
          1    1    3    3  502    0 -0.28992002455E+02  0.70282082852E+01 -0.46922943468E+02  0.55603008388E+02  0.00000000000E+00 0. -1.
         -1    1    3    3    0  502 -0.11902944106E+03  0.64886535609E+02  0.15624951129E+02  0.13646394923E+03  0.00000000000E+00 0.  1.
         11    1    5    5    0    0 -0.44187949952E+02 -0.28465335798E+03  0.41174198348E+03  0.50250529359E+03  0.00000000000E+00 0.  1.
        -11    1    5    5    0    0 -0.66670549213E+01 -0.28594478115E+02  0.59071129591E+01  0.29949754315E+02  0.00000000000E+00 0. -1.
          3    1    6    6  503    0  0.14282071345E+03  0.10345224352E+03 -0.13836989893E+03  0.22415698028E+03  0.00000000000E+00 0. -1.
         -3    1    6    6    0  503  0.56055734934E+02  0.13788084868E+03 -0.88203583169E+02  0.17301227105E+03  0.00000000000E+00 0.  1.
<mgrwt>
<rscale>  0 0.11102533E+04</rscale>
<asrwt>0</asrwt>
<pdfrwt beam="1">  1        1 0.98574529E-01 0.11102533E+04</pdfrwt>
<pdfrwt beam="2">  1       -1 0.73993357E-01 0.11102533E+04</pdfrwt>
<totfact> 0.57004993E+01</totfact>
</mgrwt>
</event>
<event>
12    2  0.3561489E-008  0.2171188E+04  0.7818608E-02  0.8530517E-01
          1   -1    0    0  501    0  0.00000000000E+00  0.00000000000E+00  0.20446863041E+04  0.20446863041E+04  0.00000000000E+00 0. -1.
         -1   -1    0    0    0  501 -0.00000000000E+00 -0.00000000000E+00 -0.57637906521E+03  0.57637906521E+03  0.00000000000E+00 0.  1.
         23    2    1    2    0    0 -0.30757520736E+03  0.52171097759E+03  0.14158191524E+04  0.15426973402E+04  0.92662607999E+02 0.  0.
        254    2    1    2    0    0  0.30757520736E+03 -0.52171097759E+03  0.52488086579E+02  0.10783680292E+04  0.89069509640E+03 0.  0.
         23    2    4    4    0    0 -0.18782864227E+03 -0.53142361079E+03 -0.39921863313E+01  0.57119276793E+03  0.92491013744E+02 0.  0.
         23    2    4    4    0    0  0.49540384963E+03  0.97126332002E+01  0.56480272910E+02  0.50717526123E+03  0.92289841824E+02 0.  0.
          1    1    3    3  502    0 -0.19135316285E+03  0.30431844655E+03  0.94870901598E+03  0.10145316884E+04  0.00000000000E+00 0. -1.
         -1    1    3    3    0  502 -0.11622204451E+03  0.21739253104E+03  0.46711013637E+03  0.52816565174E+03  0.00000000000E+00 0.  1.
         11    1    5    5    0    0 -0.23723766397E+02 -0.43619704700E+02  0.25229774466E+02  0.55695935667E+02  0.00000000000E+00 0. -1.
        -11    1    5    5    0    0 -0.16410487587E+03 -0.48780390609E+03 -0.29221960797E+02  0.51549683226E+03  0.00000000000E+00 0.  1.
          1    1    6    6  503    0  0.29674811089E+02 -0.12246047769E+02  0.23460197525E+02  0.39761048365E+02  0.00000000000E+00 0. -1.
         -1    1    6    6    0  503  0.46572903854E+03  0.21958680969E+02  0.33020075385E+02  0.46741421286E+03  0.00000000000E+00 0.  1.
<mgrwt>
<rscale>  0 0.21711880E+04</rscale>
<asrwt>0</asrwt>
<pdfrwt beam="1">  1        1 0.31456712E+00 0.21711880E+04</pdfrwt>
<pdfrwt beam="2">  1       -1 0.88673703E-01 0.21711880E+04</pdfrwt>
<totfact> 0.31697045E+00</totfact>
</mgrwt>
</event>
<event>
12    2  0.3561489E-008  0.1408411E+04  0.7818608E-02  0.8947753E-01
         -3   -1    0    0    0  501 -0.00000000000E+00  0.00000000000E+00  0.64282015653E+03  0.64282015653E+03  0.00000000000E+00 0.  1.
          3   -1    0    0  501    0  0.00000000000E+00 -0.00000000000E+00 -0.77145252919E+03  0.77145252919E+03  0.00000000000E+00 0. -1.
         23    2    1    2    0    0  0.30774096364E+02  0.77236915383E+02 -0.44896936804E+03  0.46577252416E+03  0.91967193717E+02 0.  0.
        254    2    1    2    0    0 -0.30774096364E+02 -0.77236915383E+02  0.32033699538E+03  0.94850016156E+03  0.88888929557E+03 0.  0.
         23    2    4    4    0    0 -0.39844952562E+03 -0.17313017338E+03  0.26616915161E+01  0.44491010170E+03  0.95926183035E+02 0.  0.
         23    2    4    4    0    0  0.36767542925E+03  0.95893257996E+02  0.31767530386E+03  0.50359005987E+03  0.91129641207E+02 0.  0.
          2    1    3    3  502    0  0.28203157812E+02  0.68637923510E+02 -0.45058376863E+03  0.45665338629E+03  0.00000000000E+00 0. -1.
         -2    1    3    3    0  502  0.25709385521E+01  0.85989918730E+01  0.16144005917E+01  0.91191378727E+01  0.00000000000E+00 0.  1.
         11    1    5    5    0    0 -0.40183297860E+03 -0.16259138293E+03  0.53732300768E+01  0.43351421211E+03  0.00000000000E+00 0.  1.
        -11    1    5    5    0    0  0.33834529854E+01 -0.10538790449E+02 -0.27115385607E+01  0.11395889592E+02  0.00000000000E+00 0. -1.
          1    1    6    6  503    0  0.20984946392E+03  0.99847846841E+02  0.17682464561E+03  0.29201600182E+03  0.00000000000E+00 0.  1.
         -1    1    6    6    0  503  0.15782596534E+03 -0.39545888450E+01  0.14085065825E+03  0.21157405804E+03  0.00000000000E+00 0. -1.
<mgrwt>
<rscale>  0 0.14084108E+04</rscale>
<asrwt>0</asrwt>
<pdfrwt beam="1">  1        3 0.11868500E+00 0.14084108E+04</pdfrwt>
<pdfrwt beam="2">  1       -3 0.98895409E-01 0.14084108E+04</pdfrwt>
<totfact> 0.13301784E+00</totfact>
</mgrwt>
</event>
<event>
12    2  0.3561489E-008  0.1686712E+04  0.7818608E-02  0.8768980E-01
          2   -1    0    0  501    0  0.00000000000E+00  0.00000000000E+00  0.25732319231E+04  0.25732319231E+04  0.00000000000E+00 0. -1.
         -2   -1    0    0    0  501 -0.00000000000E+00 -0.00000000000E+00 -0.27640304959E+03  0.27640304959E+03  0.00000000000E+00 0.  1.
         23    2    1    2    0    0 -0.77716116175E+02  0.20356624647E+03  0.17680289553E+04  0.17838381236E+04  0.93129226034E+02 0.  0.
        254    2    1    2    0    0  0.77716116175E+02 -0.20356624647E+03  0.52879991815E+03  0.10657968491E+04  0.89934118038E+03 0.  0.
         23    2    4    4    0    0 -0.17157366530E+03  0.43834777112E+02  0.65243537450E+03  0.68224068115E+03  0.91768288684E+02 0.  0.
         23    2    4    4    0    0  0.24928978147E+03 -0.24740102358E+03 -0.12363545635E+03  0.38355616796E+03  0.92070333418E+02 0.  0.
          2    1    3    3  502    0 -0.97463106723E+02  0.17503248993E+03  0.15780661055E+04  0.15907319268E+04  0.00000000000E+00 0. -1.
         -2    1    3    3    0  502  0.19746990549E+02  0.28533756542E+02  0.18996284984E+03  0.19310619673E+03  0.00000000000E+00 0.  1.
         11    1    5    5    0    0 -0.17767730674E+03  0.38147909081E+02  0.64756478158E+03  0.67258057855E+03  0.00000000000E+00 0. -1.
        -11    1    5    5    0    0  0.61036414423E+01  0.56868680304E+01  0.48705929180E+01  0.96601025991E+01  0.00000000000E+00 0.  1.
          2    1    6    6  503    0  0.18599242316E+03 -0.14906079974E+03 -0.11925934326E+03  0.26652409731E+03  0.00000000000E+00 0. -1.
         -2    1    6    6    0  503  0.63297358317E+02 -0.98340223840E+02 -0.43761130888E+01  0.11703207065E+03  0.00000000000E+00 0.  1.
<mgrwt>
<rscale>  0 0.16867118E+04</rscale>
<asrwt>0</asrwt>
<pdfrwt beam="1">  1        2 0.39588182E+00 0.16867118E+04</pdfrwt>
<pdfrwt beam="2">  1       -2 0.42523548E-01 0.16867118E+04</pdfrwt>
<totfact> 0.15788562E+01</totfact>
</mgrwt>
</event>
<event>
12    2  0.3561489E-008  0.1409510E+04  0.7818608E-02  0.8946963E-01
          1   -1    0    0  501    0  0.00000000000E+00  0.00000000000E+00  0.61798364095E+03  0.61798364095E+03  0.00000000000E+00 0. -1.
         -1   -1    0    0    0  501 -0.00000000000E+00 -0.00000000000E+00 -0.80371008979E+03  0.80371008979E+03  0.00000000000E+00 0.  1.
         23    2    1    2    0    0 -0.26422528060E+03 -0.15771820516E+03  0.23343351238E+03  0.39615247436E+03  0.88065584041E+02 0.  0.
        254    2    1    2    0    0  0.26422528060E+03  0.15771820516E+03 -0.41915996122E+03  0.10255412564E+04  0.88393990989E+03 0.  0.
         23    2    4    4    0    0  0.33481618679E+03 -0.12224601632E+03  0.13662983611E+03  0.39253777922E+03  0.91499882837E+02 0.  0.
         23    2    4    4    0    0 -0.70590906184E+02  0.27996422148E+03 -0.55578979732E+03  0.63300347716E+03  0.91804476695E+02 0.  0.
          2    1    3    3  502    0 -0.18028996393E+03 -0.67398459429E+02  0.17318197612E+03  0.25891894538E+03  0.00000000000E+00 0. -1.
         -2    1    3    3    0  502 -0.83935316671E+02 -0.90319745727E+02  0.60251536265E+02  0.13723352898E+03  0.00000000000E+00 0.  1.
         11    1    5    5    0    0  0.23725401299E+03 -0.11925996693E+03  0.70841771816E+02  0.27482897050E+03  0.00000000000E+00 0.  1.
        -11    1    5    5    0    0  0.97562173800E+02 -0.29860493896E+01  0.65788064290E+02  0.11770880872E+03  0.00000000000E+00 0. -1.
          1    1    6    6  503    0 -0.31164836366E+02  0.32695512770E+02 -0.43083808105E+02  0.62421615662E+02  0.00000000000E+00 0. -1.
         -1    1    6    6    0  503 -0.39426069818E+02  0.24726870871E+03 -0.51270598922E+03  0.57058186150E+03  0.00000000000E+00 0.  1.
<mgrwt>
<rscale>  0 0.14095101E+04</rscale>
<asrwt>0</asrwt>
<pdfrwt beam="1">  1        1 0.95074407E-01 0.14095101E+04</pdfrwt>
<pdfrwt beam="2">  1       -1 0.12364771E+00 0.14095101E+04</pdfrwt>
<totfact> 0.18385865E+01</totfact>
</mgrwt>
</event>
