<event>
12    6  0.1395358E-007  0.2479772E+04  0.7818608E-02  0.8410227E-01
         -1   -1    0    0    0  501 -0.00000000000E+00  0.00000000000E+00  0.45099327729E+03  0.45099327729E+03  0.00000000000E+00 0.  1.
          2   -1    0    0  501    0  0.00000000000E+00 -0.00000000000E+00 -0.34087367383E+04  0.34087367383E+04  0.00000000000E+00 0. -1.
         24    2    1    2    0    0 -0.53788208448E+02  0.93909974483E+03 -0.20998686972E+04  0.23022464113E+04  0.78028783182E+02 0.  0.
        254    2    1    2    0    0  0.53788208448E+02 -0.93909974483E+03 -0.85787476381E+03  0.15574836042E+04  0.89722046620E+03 0.  0.
         23    2    4    4    0    0  0.23623547848E+03 -0.10056808158E+04 -0.84412540480E+03  0.13371857397E+04  0.91197033316E+02 0.  0.
         23    2    4    4    0    0 -0.18244727003E+03  0.66581070948E+02 -0.13749359007E+02  0.22029786454E+03  0.10306337322E+03 0.  0.
          4    1    3    3  502    0 -0.14755953777E+02  0.76351827210E+03 -0.17234137248E+04  0.18850285825E+04  0.00000000000E+00 0. -1.
         -3    1    3    3    0  502 -0.39032254670E+02  0.17558147273E+03 -0.37645497231E+03  0.41721782878E+03  0.00000000000E+00 0.  1.
         11    1    5    5    0    0  0.14211827072E+03 -0.72956980822E+03 -0.64355339093E+03  0.98317377656E+03  0.00000000000E+00 0. -1.
        -11    1    5    5    0    0  0.94117207758E+02 -0.27611100756E+03 -0.20057201387E+03  0.35401196313E+03  0.00000000000E+00 0.  1.
          2    1    6    6  503    0 -0.92913082742E+02  0.33658297820E+01  0.36300333636E+02  0.99809237933E+02  0.00000000000E+00 0. -1.
         -2    1    6    6    0  503 -0.89534187287E+02  0.63215241166E+02 -0.50049692644E+02  0.12048862661E+03  0.00000000000E+00 0.  1.
<mgrwt>
<rscale>  0 0.24797720E+04</rscale>
<asrwt>0</asrwt>
<pdfrwt beam="1">  1        2 0.52442102E+00 0.24797720E+04</pdfrwt>
<pdfrwt beam="2">  1       -1 0.69383583E-01 0.24797720E+04</pdfrwt>
<totfact> 0.20096865E+00</totfact>
</mgrwt>
</event>
<event>
12    6  0.1395358E-007  0.2037682E+04  0.7818608E-02  0.8589203E-01
         -1   -1    0    0    0  501 -0.00000000000E+00  0.00000000000E+00  0.67322046080E+03  0.67322046080E+03  0.00000000000E+00 0.  1.
          2   -1    0    0  501    0  0.00000000000E+00 -0.00000000000E+00 -0.15418976227E+04  0.15418976227E+04  0.00000000000E+00 0. -1.
         24    2    1    2    0    0 -0.71016688605E+03  0.40254919263E+03 -0.40719898337E+03  0.91541288127E+03  0.76071496691E+02 0.  0.
        254    2    1    2    0    0  0.71016688605E+03 -0.40254919263E+03 -0.46147817855E+03  0.12997052023E+04  0.89993813396E+03 0.  0.
         23    2    4    4    0    0  0.24335282517E+03 -0.62691157181E+03 -0.17284727851E+03  0.70025467684E+03  0.90783888254E+02 0.  0.
         23    2    4    4    0    0  0.46681406088E+03  0.22436237917E+03 -0.28863090005E+03  0.59945052541E+03  0.88200290995E+02 0.  0.
          2    1    3    3  502    0 -0.54253636800E+03  0.27610567897E+03 -0.32353309577E+03  0.68938648132E+03  0.00000000000E+00 0. -1.
         -1    1    3    3    0  502 -0.16763051805E+03  0.12644351366E+03 -0.83665887600E+02  0.22602639995E+03  0.00000000000E+00 0.  1.
         11    1    5    5    0    0  0.70557948710E+02 -0.30490559529E+03 -0.71597609067E+02  0.32104838232E+03  0.00000000000E+00 0. -1.
        -11    1    5    5    0    0  0.17279487646E+03 -0.32200597651E+03 -0.10124966944E+03  0.37920629452E+03  0.00000000000E+00 0.  1.
          3    1    6    6  503    0  0.32623131907E+02 -0.57450320478E+01 -0.27057249475E+02  0.42771122008E+02  0.00000000000E+00 0. -1.
         -3    1    6    6    0  503  0.43419092898E+03  0.23010741122E+03 -0.26157365057E+03  0.55667940340E+03  0.00000000000E+00 0.  1.
<mgrwt>
<rscale>  0 0.20376820E+04</rscale>
<asrwt>0</asrwt>
<pdfrwt beam="1">  1        2 0.23721502E+00 0.20376820E+04</pdfrwt>
<pdfrwt beam="2">  1       -1 0.10357238E+00 0.20376820E+04</pdfrwt>
<totfact> 0.11149540E+01</totfact>
</mgrwt>
</event>
<event>
12    6  0.1395358E-007  0.1171804E+04  0.7818608E-02  0.9137901E-01
          2   -1    0    0  501    0  0.00000000000E+00  0.00000000000E+00  0.22260836165E+04  0.22260836165E+04  0.00000000000E+00 0. -1.
         -1   -1    0    0    0  501 -0.00000000000E+00 -0.00000000000E+00 -0.15420860690E+03  0.15420860690E+03  0.00000000000E+00 0.  1.
         24    2    1    2    0    0 -0.92990806059E+02 -0.20701696326E+03  0.57429820928E+03  0.62265567134E+03  0.79864502607E+02 0.  0.
        254    2    1    2    0    0  0.92990806059E+02  0.20701696326E+03  0.14975768003E+04  0.17576365521E+04  0.89165389205E+03 0.  0.
         23    2    4    4    0    0  0.37252333574E+03 -0.61542753889E+02  0.28561980638E+03  0.48184545202E+03  0.89639386456E+02 0.  0.
         23    2    4    4    0    0 -0.27953252968E+03  0.26855971715E+03  0.12119569940E+04  0.12757911001E+04  0.92414387222E+02 0.  0.
          4    1    3    3  502    0 -0.30237539970E+02 -0.51141697062E+02  0.25513973232E+03  0.26196577069E+03  0.00000000000E+00 0. -1.
         -3    1    3    3    0  502 -0.62753266088E+02 -0.15587526620E+03  0.31915847696E+03  0.36068990065E+03  0.00000000000E+00 0.  1.
         11    1    5    5    0    0  0.36360319011E+02 -0.89800014083E+01  0.68954577158E+02  0.78469401265E+02  0.00000000000E+00 0.  1.
        -11    1    5    5    0    0  0.33616301673E+03 -0.52562752480E+02  0.21666522922E+03  0.40337605075E+03  0.00000000000E+00 0. -1.
          3    1    6    6  503    0 -0.28151597215E+03  0.24128138989E+03  0.11418941604E+04  0.12005791207E+04  0.00000000000E+00 0. -1.
         -3    1    6    6    0  503  0.19834424683E+01  0.27278327262E+02  0.70062833584E+02  0.75211979312E+02  0.00000000000E+00 0.  1.
<mgrwt>
<rscale>  0 0.11718042E+04</rscale>
<asrwt>0</asrwt>
<pdfrwt beam="1">  1        2 0.34247438E+00 0.11718042E+04</pdfrwt>
<pdfrwt beam="2">  1       -1 0.23724403E-01 0.11718042E+04</pdfrwt>
<totfact> 0.86434458E+01</totfact>
</mgrwt>
</event>
<event>
12    6  0.1395358E-007  0.2615576E+04  0.7818608E-02  0.8362930E-01
         -1   -1    0    0    0  501 -0.00000000000E+00  0.00000000000E+00  0.14004182294E+04  0.14004182294E+04  0.00000000000E+00 0.  1.
          2   -1    0    0  501    0  0.00000000000E+00 -0.00000000000E+00 -0.12212843392E+04  0.12212843392E+04  0.00000000000E+00 0. -1.
         24    2    1    2    0    0  0.95804963659E+03 -0.61315500484E+03 -0.99693590012E+02  0.11446604333E+04  0.80563823194E+02 0.  0.
        254    2    1    2    0    0 -0.95804963659E+03  0.61315500484E+03  0.27882748029E+03  0.14770421353E+04  0.90005029828E+03 0.  0.
         23    2    4    4    0    0 -0.18110703069E+03  0.34505259694E+03 -0.27147970850E+03  0.48368575514E+03  0.91594903666E+02 0.  0.
         23    2    4    4    0    0 -0.77694260590E+03  0.26810240790E+03  0.55030718879E+03  0.99335638012E+03  0.91652506319E+02 0.  0.
          2    1    3    3  502    0  0.58568736513E+03 -0.42032591756E+03 -0.56605730554E+02  0.72312362385E+03  0.00000000000E+00 0. -1.
         -1    1    3    3    0  502  0.37236227146E+03 -0.19282908728E+03 -0.43087859459E+02  0.42153680948E+03  0.00000000000E+00 0.  1.
         11    1    5    5    0    0 -0.14423461997E+03  0.22356594403E+03 -0.22515274583E+03  0.34853854289E+03  0.00000000000E+00 0. -1.
        -11    1    5    5    0    0 -0.36872410719E+02  0.12148665291E+03 -0.46326962670E+02  0.13514721224E+03  0.00000000000E+00 0.  1.
          4    1    6    6  503    0 -0.25835869510E+03  0.12682348127E+03  0.22261620251E+03  0.36385626881E+03  0.00000000000E+00 0. -1.
         -4    1    6    6    0  503 -0.51858391080E+03  0.14127892663E+03  0.32769098628E+03  0.62950011131E+03  0.00000000000E+00 0.  1.
<mgrwt>
<rscale>  0 0.26155755E+04</rscale>
<asrwt>0</asrwt>
<pdfrwt beam="1">  1        2 0.18788990E+00 0.26155755E+04</pdfrwt>
<pdfrwt beam="2">  1       -1 0.21544896E+00 0.26155755E+04</pdfrwt>
<totfact> 0.21867062E+00</totfact>
</mgrwt>
</event>
<event>
12    6  0.1395358E-007  0.3131185E+04  0.7818608E-02  0.8207231E-01
          2   -1    0    0  501    0  0.00000000000E+00  0.00000000000E+00  0.94547457108E+03  0.94547457108E+03  0.00000000000E+00 0. -1.
         -1   -1    0    0    0  501 -0.00000000000E+00 -0.00000000000E+00 -0.25924333137E+04  0.25924333137E+04  0.00000000000E+00 0.  1.
         24    2    1    2    0    0  0.43072793683E+03 -0.13627995805E+04 -0.90724264954E+03  0.16946952380E+04  0.78444072207E+02 0.  0.
        254    2    1    2    0    0 -0.43072793683E+03  0.13627995805E+04 -0.73971609304E+03  0.18432126467E+04  0.89861210233E+03 0.  0.
         23    2    4    4    0    0  0.12314182121E+03  0.59481534636E+02  0.10127813370E+03  0.19359707412E+03  0.92307126748E+02 0.  0.
         23    2    4    4    0    0 -0.55386975804E+03  0.13033180459E+04 -0.84099422674E+03  0.16496155726E+04  0.92469510341E+02 0.  0.
          4    1    3    3  502    0  0.14527429216E+03 -0.39837920113E+03 -0.23310630571E+03  0.48388961305E+03  0.00000000000E+00 0. -1.
         -3    1    3    3    0  502  0.28545364467E+03 -0.96442037939E+03 -0.67413634384E+03  0.12108056250E+04  0.00000000000E+00 0.  1.
         11    1    5    5    0    0  0.12929234484E+03  0.74170240260E+02  0.90805065371E+02  0.17453737385E+03  0.00000000000E+00 0. -1.
        -11    1    5    5    0    0 -0.61505236351E+01 -0.14688705625E+02  0.10473068327E+02  0.19059700262E+02  0.00000000000E+00 0.  1.
          1    1    6    6  503    0 -0.48608429383E+03  0.11287475738E+04 -0.69267590259E+03  0.14107263846E+04  0.00000000000E+00 0. -1.
         -1    1    6    6    0  503 -0.67785464203E+02  0.17457047210E+03 -0.14831832415E+03  0.23888918804E+03  0.00000000000E+00 0.  1.
<mgrwt>
<rscale>  0 0.31311849E+04</rscale>
<asrwt>0</asrwt>
<pdfrwt beam="1">  1        2 0.14545763E+00 0.31311849E+04</pdfrwt>
<pdfrwt beam="2">  1       -1 0.39883590E+00 0.31311849E+04</pdfrwt>
<totfact> 0.19208117E-01</totfact>
</mgrwt>
</event>
<event>
12    6  0.1395358E-007  0.1564194E+04  0.7818608E-02  0.8842852E-01
          2   -1    0    0  501    0  0.00000000000E+00  0.00000000000E+00  0.88103292030E+03  0.88103292030E+03  0.00000000000E+00 0. -1.
         -1   -1    0    0    0  501 -0.00000000000E+00 -0.00000000000E+00 -0.69427145327E+03  0.69427145327E+03  0.00000000000E+00 0.  1.
         24    2    1    2    0    0 -0.46728546165E+03  0.20445483864E+03  0.15746854548E+03  0.53975032437E+03  0.79853529266E+02 0.  0.
        254    2    1    2    0    0  0.46728546165E+03 -0.20445483864E+03  0.29292921550E+02  0.10355540492E+04  0.90075336793E+03 0.  0.
         23    2    4    4    0    0  0.28323959045E+03  0.29710674845E+03 -0.17459485215E+03  0.45645585373E+03  0.96806499955E+02 0.  0.
         23    2    4    4    0    0  0.18404587120E+03 -0.50156158709E+03  0.20388777371E+03  0.57909819546E+03  0.91365132137E+02 0.  0.
          4    1    3    3  502    0 -0.24166941433E+03  0.80440027565E+02  0.11230688075E+03  0.27836583720E+03  0.00000000000E+00 0. -1.
         -3    1    3    3    0  502 -0.22561604732E+03  0.12401481108E+03  0.45161664731E+02  0.26138448718E+03  0.00000000000E+00 0.  1.
         11    1    5    5    0    0  0.27772286698E+03  0.30194452616E+03 -0.16041925958E+03  0.44049384396E+03  0.00000000000E+00 0. -1.
        -11    1    5    5    0    0  0.55167234677E+01 -0.48377777107E+01 -0.14175592578E+02  0.15962009771E+02  0.00000000000E+00 0.  1.
          3    1    6    6  503    0  0.14891870314E+03 -0.47161123017E+03  0.19730549923E+03  0.53246914708E+03  0.00000000000E+00 0. -1.
         -3    1    6    6    0  503  0.35127168061E+02 -0.29950356919E+02  0.65822744796E+01  0.46629048381E+02  0.00000000000E+00 0.  1.
<mgrwt>
<rscale>  0 0.15641944E+04</rscale>
<asrwt>0</asrwt>
<pdfrwt beam="1">  1        2 0.13554353E+00 0.15641944E+04</pdfrwt>
<pdfrwt beam="2">  1       -1 0.10681099E+00 0.15641944E+04</pdfrwt>
<totfact> 0.27125079E+01</totfact>
</mgrwt>
</event>
<event>
12    6  0.1395358E-007  0.1369074E+04  0.7818608E-02  0.8976514E-01
          2   -1    0    0  501    0  0.00000000000E+00  0.00000000000E+00  0.79545902810E+03  0.79545902810E+03  0.00000000000E+00 0. -1.
         -1   -1    0    0    0  501 -0.00000000000E+00 -0.00000000000E+00 -0.58908203064E+03  0.58908203064E+03  0.00000000000E+00 0.  1.
         24    2    1    2    0    0  0.57913415433E+02 -0.33235853289E+03  0.24422684104E+03  0.42429073064E+03  0.80992074622E+02 0.  0.
        254    2    1    2    0    0 -0.57913415433E+02  0.33235853289E+03 -0.37849843575E+02  0.96025032809E+03  0.89823823336E+03 0.  0.
         23    2    4    4    0    0  0.64409456555E+02  0.52290132146E+03  0.24351463749E+03  0.58806837093E+03  0.94607928537E+02 0.  0.
         23    2    4    4    0    0 -0.12232287199E+03 -0.19054278856E+03 -0.28136448107E+03  0.37218195716E+03  0.89911060185E+02 0.  0.
          4    1    3    3  502    0  0.52546969255E+02 -0.30428078795E+03  0.24720765681E+03  0.39554975348E+03  0.00000000000E+00 0. -1.
         -3    1    3    3    0  502  0.53664461774E+01 -0.28077744939E+02 -0.29808157692E+01  0.28740977160E+02  0.00000000000E+00 0.  1.
         11    1    5    5    0    0  0.92668098866E+00  0.83941606900E+02  0.40937248648E+01  0.84046479342E+02  0.00000000000E+00 0.  1.
        -11    1    5    5    0    0  0.63482775566E+02  0.43895971456E+03  0.23942091263E+03  0.50402189159E+03  0.00000000000E+00 0. -1.
          3    1    6    6  503    0 -0.29717624366E+02 -0.12233911615E+03 -0.17459075945E+03  0.21524853037E+03  0.00000000000E+00 0. -1.
         -3    1    6    6    0  503 -0.92605247621E+02 -0.68203672412E+02 -0.10677372162E+03  0.15693342679E+03  0.00000000000E+00 0.  1.
<mgrwt>
<rscale>  0 0.13690736E+04</rscale>
<asrwt>0</asrwt>
<pdfrwt beam="1">  1        2 0.12237831E+00 0.13690736E+04</pdfrwt>
<pdfrwt beam="2">  1       -1 0.90628004E-01 0.13690736E+04</pdfrwt>
<totfact> 0.46000158E+01</totfact>
</mgrwt>
</event>
<event>
12    6  0.1395358E-007  0.2160854E+04  0.7818608E-02  0.8534900E-01
         -1   -1    0    0    0  501 -0.00000000000E+00  0.00000000000E+00  0.69475857103E+03  0.69475857103E+03  0.00000000000E+00 0.  1.
          2   -1    0    0  501    0  0.00000000000E+00 -0.00000000000E+00 -0.16801849817E+04  0.16801849817E+04  0.00000000000E+00 0. -1.
         24    2    1    2    0    0  0.60448773946E+03  0.25467956518E+03 -0.10710778179E+04  0.12584170514E+04  0.78349697487E+02 0.  0.
        254    2    1    2    0    0 -0.60448773946E+03 -0.25467956518E+03  0.85651407270E+02  0.11165265013E+04  0.89945992490E+03 0.  0.
         23    2    4    4    0    0 -0.25212969521E+03  0.29878207313E+03  0.19266237704E+03  0.44541055520E+03  0.91824074864E+02 0.  0.
         23    2    4    4    0    0 -0.35235804425E+03 -0.55346163831E+03 -0.10701096977E+03  0.67111594612E+03  0.92028740364E+02 0.  0.
          2    1    3    3  502    0  0.45519566535E+03  0.18870730224E+03 -0.86526814917E+03  0.99574219035E+03  0.00000000000E+00 0. -1.
         -1    1    3    3    0  502  0.14929207411E+03  0.65972262938E+02 -0.20580966875E+03  0.26267486104E+03  0.00000000000E+00 0.  1.
         11    1    5    5    0    0 -0.19168451578E+03  0.17329898407E+03  0.95082117152E+02  0.27534723618E+03  0.00000000000E+00 0. -1.
        -11    1    5    5    0    0 -0.60445179436E+02  0.12548308906E+03  0.97580259890E+02  0.17006331902E+03  0.00000000000E+00 0.  1.
          1    1    6    6  503    0 -0.13428931058E+03 -0.29485250291E+03 -0.61700031791E+02  0.32981587489E+03  0.00000000000E+00 0. -1.
         -1    1    6    6    0  503 -0.21806873367E+03 -0.25860913540E+03 -0.45310937981E+02  0.34130007123E+03  0.00000000000E+00 0.  1.
<mgrwt>
<rscale>  0 0.21608544E+04</rscale>
<asrwt>0</asrwt>
<pdfrwt beam="1">  1        2 0.25849000E+00 0.21608544E+04</pdfrwt>
<pdfrwt beam="2">  1       -1 0.10688593E+00 0.21608544E+04</pdfrwt>
<totfact> 0.85784470E+00</totfact>
</mgrwt>
</event>
<event>
12    6  0.1395358E-007  0.2408081E+04  0.7818608E-02  0.8436484E-01
         -1   -1    0    0    0  501 -0.00000000000E+00  0.00000000000E+00  0.61336589006E+03  0.61336589006E+03  0.00000000000E+00 0.  1.
          2   -1    0    0  501    0  0.00000000000E+00 -0.00000000000E+00 -0.23635383732E+04  0.23635383732E+04  0.00000000000E+00 0. -1.
         24    2    1    2    0    0 -0.82248017187E+03 -0.45451530074E+03 -0.21754314508E+03  0.96773233597E+03  0.78249999235E+02 0.  0.
        254    2    1    2    0    0  0.82248017187E+03  0.45451530074E+03 -0.15326293381E+04  0.20091719273E+04  0.89708492006E+03 0.  0.
         23    2    4    4    0    0  0.79461187006E+03  0.48019517568E+03 -0.16254475718E+04  0.18741190439E+04  0.90812724935E+02 0.  0.
         23    2    4    4    0    0  0.27868301813E+02 -0.25679874943E+02  0.92818233784E+02  0.13505288342E+03  0.90487339299E+02 0.  0.
          4    1    3    3  502    0 -0.62763977235E+03 -0.35917324322E+03 -0.19899454297E+03  0.75002395335E+03  0.00000000000E+00 0. -1.
         -3    1    3    3    0  502 -0.19484039953E+03 -0.95342057519E+02 -0.18548602105E+02  0.21770838261E+03  0.00000000000E+00 0.  1.
         11    1    5    5    0    0  0.69221428142E+03  0.41329051250E+03 -0.14671905903E+04  0.16741021138E+04  0.00000000000E+00 0. -1.
        -11    1    5    5    0    0  0.10239758864E+03  0.66904663177E+02 -0.15825698156E+03  0.20001693010E+03  0.00000000000E+00 0.  1.
          3    1    6    6  503    0  0.10529440015E+02  0.42615541385E+01  0.99218316340E+02  0.99866432038E+02  0.00000000000E+00 0. -1.
         -3    1    6    6    0  503  0.17338861797E+02 -0.29941429082E+02 -0.64000825561E+01  0.35186451378E+02  0.00000000000E+00 0.  1.
<mgrwt>
<rscale>  0 0.24080812E+04</rscale>
<asrwt>0</asrwt>
<pdfrwt beam="1">  1        2 0.36362129E+00 0.24080812E+04</pdfrwt>
<pdfrwt beam="2">  1       -1 0.94363982E-01 0.24080812E+04</pdfrwt>
<totfact> 0.46347296E+00</totfact>
</mgrwt>
</event>
<event>
12    6  0.1395358E-007  0.3824063E+04  0.7818608E-02  0.8041011E-01
          2   -1    0    0  501    0  0.00000000000E+00  0.00000000000E+00  0.49466211665E+04  0.49466211665E+04  0.00000000000E+00 0. -1.
         -1   -1    0    0    0  501 -0.00000000000E+00 -0.00000000000E+00 -0.73906294974E+03  0.73906294974E+03  0.00000000000E+00 0.  1.
         24    2    1    2    0    0 -0.14898206591E+04 -0.92182204294E+03  0.26369501882E+04  0.31668047294E+04  0.76317915266E+02 0.  0.
        254    2    1    2    0    0  0.14898206591E+04  0.92182204294E+03  0.15706080286E+04  0.25188793869E+04  0.89923429131E+03 0.  0.
         23    2    4    4    0    0  0.12594193191E+04  0.33827892790E+03  0.12491396612E+04  0.18080448621E+04  0.90037079414E+02 0.  0.
         23    2    4    4    0    0  0.23040133999E+03  0.58354311505E+03  0.32146836746E+03  0.71083452478E+03  0.91304248254E+02 0.  0.
          4    1    3    3  502    0 -0.83694263097E+03 -0.56210946316E+03  0.15208703969E+04  0.18246881323E+04  0.00000000000E+00 0. -1.
         -3    1    3    3    0  502 -0.65287802816E+03 -0.35971257978E+03  0.11160797913E+04  0.13421165971E+04  0.00000000000E+00 0.  1.
         11    1    5    5    0    0  0.86104382906E+03  0.27380032079E+03  0.85446502829E+03  0.12435729073E+04  0.00000000000E+00 0.  1.
        -11    1    5    5    0    0  0.39837549008E+03  0.64478607106E+02  0.39467463289E+03  0.56447195477E+03  0.00000000000E+00 0. -1.
          1    1    6    6  503    0  0.16019619383E+03  0.46004121403E+03  0.28415417708E+03  0.56395419626E+03  0.00000000000E+00 0. -1.
         -1    1    6    6    0  503  0.70205146166E+02  0.12350190101E+03  0.37314190380E+02  0.14688032852E+03  0.00000000000E+00 0.  1.
<mgrwt>
<rscale>  0 0.38240630E+04</rscale>
<asrwt>0</asrwt>
<pdfrwt beam="1">  1        2 0.76101862E+00 0.38240630E+04</pdfrwt>
<pdfrwt beam="2">  1       -1 0.11370200E+00 0.38240630E+04</pdfrwt>
<totfact> 0.25358046E-02</totfact>
</mgrwt>
</event>
<event>
12    6  0.1395358E-007  0.1481177E+04  0.7818608E-02  0.8897067E-01
          2   -1    0    0  501    0  0.00000000000E+00  0.00000000000E+00  0.47249367949E+03  0.47249367949E+03  0.00000000000E+00 0. -1.
         -1   -1    0    0    0  501 -0.00000000000E+00 -0.00000000000E+00 -0.11608016415E+04  0.11608016415E+04  0.00000000000E+00 0.  1.
         24    2    1    2    0    0  0.33882631793E+03  0.24897440490E+03 -0.42864493031E+03  0.60565677761E+03  0.79322934699E+02 0.  0.
        254    2    1    2    0    0 -0.33882631793E+03 -0.24897440490E+03 -0.25966303168E+03  0.10276385434E+04  0.90101307302E+03 0.  0.
         23    2    4    4    0    0 -0.12537763313E+03  0.30222420479E+03 -0.26530509387E+03  0.42964770507E+03  0.84565576894E+02 0.  0.
         23    2    4    4    0    0 -0.21344868480E+03 -0.55119860968E+03  0.56420621874E+01  0.59799083828E+03  0.90448667448E+02 0.  0.
          2    1    3    3  502    0  0.26141777642E+03  0.22931068257E+03 -0.33992428230E+03  0.48628300471E+03  0.00000000000E+00 0. -1.
         -1    1    3    3    0  502  0.77408541501E+02  0.19663722329E+02 -0.88720648007E+02  0.11937377290E+03  0.00000000000E+00 0.  1.
         11    1    5    5    0    0 -0.83691587539E+02  0.99352366952E+02 -0.86881789269E+02  0.15628058085E+03  0.00000000000E+00 0. -1.
        -11    1    5    5    0    0 -0.41686045589E+02  0.20287183784E+03 -0.17842330460E+03  0.27336712423E+03  0.00000000000E+00 0.  1.
          3    1    6    6  503    0 -0.78684646837E+02 -0.29720218829E+03  0.32755839542E+02  0.30918175787E+03  0.00000000000E+00 0. -1.
         -3    1    6    6    0  503 -0.13476403796E+03 -0.25399642139E+03 -0.27113777354E+02  0.28880908041E+03  0.00000000000E+00 0.  1.
<mgrwt>
<rscale>  0 0.14811772E+04</rscale>
<asrwt>0</asrwt>
<pdfrwt beam="1">  1        2 0.72691336E-01 0.14811772E+04</pdfrwt>
<pdfrwt beam="2">  1       -1 0.17858487E+00 0.14811772E+04</pdfrwt>
<totfact> 0.15497778E+01</totfact>
</mgrwt>
</event>
<event>
12    6  0.1395358E-007  0.1589595E+04  0.7818608E-02  0.8826966E-01
          2   -1    0    0  501    0  0.00000000000E+00  0.00000000000E+00  0.29016925733E+04  0.29016925733E+04  0.00000000000E+00 0. -1.
         -1   -1    0    0    0  501 -0.00000000000E+00 -0.00000000000E+00 -0.21770167549E+03  0.21770167549E+03  0.00000000000E+00 0.  1.
         24    2    1    2    0    0  0.48470367844E+03  0.22598646002E+03  0.98957484049E+03  0.11276837547E+04  0.80029679954E+02 0.  0.
        254    2    1    2    0    0 -0.48470367844E+03 -0.22598646002E+03  0.16944160573E+04  0.19917104941E+04  0.89992076372E+03 0.  0.
         23    2    4    4    0    0 -0.18317273718E+03  0.31488785436E+03  0.93377185146E+03  0.10066987601E+04  0.93839812632E+02 0.  0.
         23    2    4    4    0    0 -0.30153094126E+03 -0.54087431438E+03  0.76064420585E+03  0.98501173404E+03  0.90568072756E+02 0.  0.
          2    1    3    3  502    0  0.23615310845E+03  0.11150418642E+03  0.56686337190E+03  0.62412783676E+03  0.00000000000E+00 0. -1.
         -1    1    3    3    0  502  0.24855056999E+03  0.11448227360E+03  0.42271146859E+03  0.50355591794E+03  0.00000000000E+00 0.  1.
         11    1    5    5    0    0 -0.10648507049E+03  0.10881446071E+03  0.31136559916E+03  0.34659514341E+03  0.00000000000E+00 0. -1.
        -11    1    5    5    0    0 -0.76687666688E+02  0.20607339365E+03  0.62240625231E+03  0.66010361664E+03  0.00000000000E+00 0.  1.
          1    1    6    6  503    0 -0.82284568580E+02 -0.76761507533E+02  0.13901742495E+03  0.17885447633E+03  0.00000000000E+00 0.  1.
         -1    1    6    6    0  503 -0.21924637268E+03 -0.46411280685E+03  0.62162678090E+03  0.80615725770E+03  0.00000000000E+00 0. -1.
<mgrwt>
<rscale>  0 0.15895953E+04</rscale>
<asrwt>0</asrwt>
<pdfrwt beam="1">  1        2 0.44641421E+00 0.15895953E+04</pdfrwt>
<pdfrwt beam="2">  1       -1 0.33492568E-01 0.15895953E+04</pdfrwt>
<totfact> 0.18484664E+01</totfact>
</mgrwt>
</event>
<event>
12    6  0.1395358E-007  0.2553867E+04  0.7818608E-02  0.8384043E-01
         -1   -1    0    0    0  501 -0.00000000000E+00  0.00000000000E+00  0.43695369770E+03  0.43695369770E+03  0.00000000000E+00 0.  1.
          2   -1    0    0  501    0  0.00000000000E+00 -0.00000000000E+00 -0.37316510438E+04  0.37316510438E+04  0.00000000000E+00 0. -1.
         24    2    1    2    0    0 -0.67165126212E+03 -0.87745665681E+03 -0.11670820090E+04  0.16092315224E+04  0.80623038105E+02 0.  0.
        254    2    1    2    0    0  0.67165126212E+03  0.87745665681E+03 -0.21276153371E+04  0.25593732191E+04  0.89587870260E+03 0.  0.
         23    2    4    4    0    0  0.69451131981E+03  0.55144635812E+03 -0.82920015587E+03  0.12173877131E+04  0.89559401075E+02 0.  0.
         23    2    4    4    0    0 -0.22860057688E+02  0.32601029868E+03 -0.12984151812E+04  0.13419855060E+04  0.90762428863E+02 0.  0.
          2    1    3    3  502    0 -0.15690175875E+03 -0.15356453846E+03 -0.22077300662E+03  0.31135341627E+03  0.00000000000E+00 0. -1.
         -1    1    3    3    0  502 -0.51474950338E+03 -0.72389211835E+03 -0.94630900242E+03  0.12978781061E+04  0.00000000000E+00 0.  1.
         11    1    5    5    0    0  0.57701132639E+03  0.49633740729E+03 -0.72147319666E+03  0.10487213482E+04  0.00000000000E+00 0. -1.
        -11    1    5    5    0    0  0.11749999342E+03  0.55108950832E+02 -0.10772695920E+03  0.16866636492E+03  0.00000000000E+00 0.  1.
          4    1    6    6  503    0 -0.32752468077E+02  0.36796176272E+02 -0.21694536989E+03  0.22246792189E+03  0.00000000000E+00 0. -1.
         -4    1    6    6    0  503  0.98924103889E+01  0.28921412241E+03 -0.10814698113E+04  0.11195175841E+04  0.00000000000E+00 0.  1.
<mgrwt>
<rscale>  0 0.25538667E+04</rscale>
<asrwt>0</asrwt>
<pdfrwt beam="1">  1        2 0.57410014E+00 0.25538667E+04</pdfrwt>
<pdfrwt beam="2">  1       -1 0.67223648E-01 0.25538667E+04</pdfrwt>
<totfact> 0.12535875E+00</totfact>
</mgrwt>
</event>
<event>
12    6  0.1395358E-007  0.2733584E+04  0.7818608E-02  0.8324190E-01
          2   -1    0    0  501    0  0.00000000000E+00  0.00000000000E+00  0.28210764023E+04  0.28210764023E+04  0.00000000000E+00 0. -1.
         -1   -1    0    0    0  501 -0.00000000000E+00 -0.00000000000E+00 -0.66220105783E+03  0.66220105783E+03  0.00000000000E+00 0.  1.
         24    2    1    2    0    0  0.46402014909E+01 -0.11061618468E+04  0.16105439666E+04  0.19554525846E+04  0.79544828976E+02 0.  0.
        254    2    1    2    0    0 -0.46402014909E+01  0.11061618468E+04  0.54833137791E+03  0.15278248755E+04  0.89998110399E+03 0.  0.
         23    2    4    4    0    0 -0.28567657147E+02 -0.76348622090E+02  0.28597447160E+03  0.31239215928E+03  0.95719588625E+02 0.  0.
         23    2    4    4    0    0  0.23927455656E+02  0.11825104689E+04  0.26235690632E+03  0.12154327162E+04  0.97683208964E+02 0.  0.
          2    1    3    3  502    0  0.98250395020E+01 -0.11027070161E+04  0.16027723542E+04  0.19454918438E+04  0.00000000000E+00 0. -1.
         -1    1    3    3    0  502 -0.51848380111E+01 -0.34548306919E+01  0.77716123428E+01  0.99607408720E+01  0.00000000000E+00 0.  1.
         11    1    5    5    0    0 -0.42346763069E+01 -0.73639744197E+02  0.97108683741E+02  0.12194605720E+03  0.00000000000E+00 0. -1.
        -11    1    5    5    0    0 -0.24332980840E+02 -0.27088778928E+01  0.18886578786E+03  0.19044610208E+03  0.00000000000E+00 0.  1.
          4    1    6    6  503    0  0.19088710160E+02  0.41655151302E+02  0.72120307352E+01  0.46384737500E+02  0.00000000000E+00 0. -1.
         -4    1    6    6    0  503  0.48387454955E+01  0.11408553175E+04  0.25514487558E+03  0.11690479787E+04  0.00000000000E+00 0.  1.
<mgrwt>
<rscale>  0 0.27335836E+04</rscale>
<asrwt>0</asrwt>
<pdfrwt beam="1">  1        2 0.43401175E+00 0.27335836E+04</pdfrwt>
<pdfrwt beam="2">  1       -1 0.10187709E+00 0.27335836E+04</pdfrwt>
<totfact> 0.20384789E+00</totfact>
</mgrwt>
</event>
<event>
12    6  0.1395358E-007  0.2504216E+04  0.7818608E-02  0.8401485E-01
         -1   -1    0    0    0  501 -0.00000000000E+00  0.00000000000E+00  0.68297839321E+03  0.68297839321E+03  0.00000000000E+00 0.  1.
          2   -1    0    0  501    0  0.00000000000E+00 -0.00000000000E+00 -0.22954961477E+04  0.22954961477E+04  0.00000000000E+00 0. -1.
         24    2    1    2    0    0  0.92549388112E+03 -0.57259475815E+03 -0.71268168164E+03  0.13035513295E+04  0.83229851323E+02 0.  0.
        254    2    1    2    0    0 -0.92549388112E+03  0.57259475815E+03 -0.89983607281E+03  0.16749232114E+04  0.90069924232E+03 0.  0.
         23    2    4    4    0    0  0.11900118012E+03  0.21781003112E+03 -0.28921209282E+02  0.26647871015E+03  0.92584966886E+02 0.  0.
         23    2    4    4    0    0 -0.10444950612E+04  0.35478472704E+03 -0.87091486352E+03  0.14084445013E+04  0.91548228283E+02 0.  0.
          4    1    3    3  502    0  0.40516182515E+03 -0.29881784907E+03 -0.32074790637E+03  0.59693168028E+03  0.00000000000E+00 0. -1.
         -3    1    3    3    0  502  0.52033205597E+03 -0.27377690908E+03 -0.39193377528E+03  0.70661964919E+03  0.00000000000E+00 0.  1.
         11    1    5    5    0    0  0.10040405714E+03  0.20001199488E+03  0.50510553439E+01  0.22385550238E+03  0.00000000000E+00 0.  1.
        -11    1    5    5    0    0  0.18597122979E+02  0.17798036238E+02 -0.33972264626E+02  0.42623207773E+02  0.00000000000E+00 0. -1.
          1    1    6    6  503    0 -0.33454489542E+02  0.18587366846E+00 -0.13084873520E+02  0.35922852539E+02  0.00000000000E+00 0. -1.
         -1    1    6    6    0  503 -0.10110405717E+04  0.35459885337E+03 -0.85782999000E+03  0.13725216487E+04  0.00000000000E+00 0.  1.
<mgrwt>
<rscale>  0 0.25042159E+04</rscale>
<asrwt>0</asrwt>
<pdfrwt beam="1">  1        2 0.35315325E+00 0.25042159E+04</pdfrwt>
<pdfrwt beam="2">  1       -1 0.10507360E+00 0.25042159E+04</pdfrwt>
<totfact> 0.39304218E+00</totfact>
</mgrwt>
</event>
<event>
12    6  0.1395358E-007  0.1738212E+04  0.7818608E-02  0.8739866E-01
          2   -1    0    0  501    0  0.00000000000E+00  0.00000000000E+00  0.14766202229E+04  0.14766202229E+04  0.00000000000E+00 0. -1.
         -1   -1    0    0    0  501 -0.00000000000E+00 -0.00000000000E+00 -0.51153656345E+03  0.51153656345E+03  0.00000000000E+00 0.  1.
         24    2    1    2    0    0 -0.47743841565E+03 -0.38010914543E+03  0.15974397542E+03  0.63591461430E+03  0.80242481421E+02 0.  0.
        254    2    1    2    0    0  0.47743841565E+03  0.38010914543E+03  0.80533968405E+03  0.13522421721E+04  0.89864146467E+03 0.  0.
         23    2    4    4    0    0  0.32380028633E+02  0.38168602114E+03 -0.38368298302E+02  0.39419707761E+03  0.84773372524E+02 0.  0.
         23    2    4    4    0    0  0.44505838701E+03 -0.15768757147E+01  0.84370798235E+03  0.95804509445E+03  0.89038133043E+02 0.  0.
          4    1    3    3  502    0 -0.27567017059E+03 -0.26899374455E+03  0.10230913599E+03  0.39852081108E+03  0.00000000000E+00 0. -1.
         -3    1    3    3    0  502 -0.20176824505E+03 -0.11111540088E+03  0.57434839426E+02  0.23739380322E+03  0.00000000000E+00 0.  1.
         11    1    5    5    0    0  0.48658187241E+02  0.29589181924E+03 -0.27256081753E+01  0.29987833670E+03  0.00000000000E+00 0. -1.
        -11    1    5    5    0    0 -0.16278158608E+02  0.85794201899E+02 -0.35642690126E+02  0.94318740908E+02  0.00000000000E+00 0.  1.
          2    1    6    6  503    0  0.41150767914E+03  0.11497734835E+01  0.71455832788E+03  0.82458080011E+03  0.00000000000E+00 0. -1.
         -2    1    6    6    0  503  0.33550707877E+02 -0.27266491982E+01  0.12914965446E+03  0.13346429434E+03  0.00000000000E+00 0.  1.
<mgrwt>
<rscale>  0 0.17382120E+04</rscale>
<asrwt>0</asrwt>
<pdfrwt beam="1">  1        2 0.22717234E+00 0.17382120E+04</pdfrwt>
<pdfrwt beam="2">  1       -1 0.78697933E-01 0.17382120E+04</pdfrwt>
<totfact> 0.22853325E+01</totfact>
</mgrwt>
</event>
<event>
12    6  0.1395358E-007  0.1430023E+04  0.7818608E-02  0.8932368E-01
         -1   -1    0    0    0  501 -0.00000000000E+00  0.00000000000E+00  0.37138723718E+03  0.37138723718E+03  0.00000000000E+00 0.  1.
          2   -1    0    0  501    0  0.00000000000E+00 -0.00000000000E+00 -0.13765733000E+04  0.13765733000E+04  0.00000000000E+00 0. -1.
         24    2    1    2    0    0  0.55018571049E+02  0.40533557049E+03 -0.45911037287E+03  0.61998242763E+03  0.79195380078E+02 0.  0.
        254    2    1    2    0    0 -0.55018571049E+02 -0.40533557049E+03 -0.54607568995E+03  0.11279781096E+04  0.89822713643E+03 0.  0.
         23    2    4    4    0    0 -0.12505797952E+03  0.94809769823E+02  0.16870777470E+03  0.24812769972E+03  0.92068732093E+02 0.  0.
         23    2    4    4    0    0  0.70039408474E+02 -0.50014534031E+03 -0.71478346466E+03  0.87985040983E+03  0.90390608813E+02 0.  0.
          4    1    3    3  502    0  0.38867980103E+02  0.18839399721E+03 -0.27135686287E+03  0.33262225586E+03  0.00000000000E+00 0. -1.
         -3    1    3    3    0  502  0.16150590946E+02  0.21694157328E+03 -0.18775351000E+03  0.28736017177E+03  0.00000000000E+00 0.  1.
         11    1    5    5    0    0 -0.12136140053E+03  0.77307575769E+02  0.17725056235E+03  0.22830421079E+03  0.00000000000E+00 0.  1.
        -11    1    5    5    0    0 -0.36965789957E+01  0.17502194054E+02 -0.85427876463E+01  0.19823488939E+02  0.00000000000E+00 0. -1.
          4    1    6    6  503    0  0.81147823742E+02 -0.40017881769E+03 -0.52537497088E+03  0.66539230192E+03  0.00000000000E+00 0.  1.
         -4    1    6    6    0  503 -0.11108415268E+02 -0.99966522616E+02 -0.18940849378E+03  0.21445810791E+03  0.00000000000E+00 0. -1.
<mgrwt>
<rscale>  0 0.14300234E+04</rscale>
<asrwt>0</asrwt>
<pdfrwt beam="1">  1        2 0.21178051E+00 0.14300234E+04</pdfrwt>
<pdfrwt beam="2">  1       -1 0.57136498E-01 0.14300234E+04</pdfrwt>
<totfact> 0.51240007E+01</totfact>
</mgrwt>
</event>
<event>
12    6  0.1395358E-007  0.1505981E+04  0.7818608E-02  0.8880485E-01
          2   -1    0    0  501    0  0.00000000000E+00  0.00000000000E+00  0.30642469375E+03  0.30642469375E+03  0.00000000000E+00 0. -1.
         -1   -1    0    0    0  501 -0.00000000000E+00 -0.00000000000E+00 -0.18503558728E+04  0.18503558728E+04  0.00000000000E+00 0.  1.
         24    2    1    2    0    0  0.38006705588E+03  0.20723088129E+02 -0.81532898423E+02  0.39810294311E+03  0.83414186087E+02 0.  0.
        254    2    1    2    0    0 -0.38006705588E+03 -0.20723088129E+02 -0.14623982806E+04  0.17586776235E+04  0.89969874885E+03 0.  0.
         23    2    4    4    0    0 -0.37080867216E+03  0.35791907190E+02 -0.10617973447E+03  0.39811107523E+03  0.91859459155E+02 0.  0.
         23    2    4    4    0    0 -0.92583837152E+01 -0.56514995319E+02 -0.13562185462E+04  0.13605665482E+04  0.92373831909E+02 0.  0.
          4    1    3    3  502    0  0.34968476434E+03  0.13952002537E+02 -0.97261650611E+02  0.36322709351E+03  0.00000000000E+00 0. -1.
         -3    1    3    3    0  502  0.30382291544E+02  0.67710855922E+01  0.15728752189E+02  0.34875849595E+02  0.00000000000E+00 0.  1.
         11    1    5    5    0    0 -0.25408329872E+02  0.13556298275E+02 -0.33986110894E+02  0.44546741559E+02  0.00000000000E+00 0.  1.
        -11    1    5    5    0    0 -0.34540034229E+03  0.22235608915E+02 -0.72193623577E+02  0.35356433367E+03  0.00000000000E+00 0. -1.
          1    1    6    6  503    0 -0.37501784757E+02 -0.19335861538E+02 -0.10463311827E+04  0.10471815522E+04  0.00000000000E+00 0. -1.
         -1    1    6    6    0  503  0.28243401042E+02 -0.37179133781E+02 -0.30988736348E+03  0.31338499602E+03  0.00000000000E+00 0.  1.
<mgrwt>
<rscale>  0 0.15059811E+04</rscale>
<asrwt>0</asrwt>
<pdfrwt beam="1">  1        2 0.47142261E-01 0.15059811E+04</pdfrwt>
<pdfrwt beam="2">  1       -1 0.28467013E+00 0.15059811E+04</pdfrwt>
<totfact> 0.49312105E+00</totfact>
</mgrwt>
</event>
<event>
12    6  0.1395358E-007  0.1468701E+04  0.7818608E-02  0.8905537E-01
         -1   -1    0    0    0  501 -0.00000000000E+00  0.00000000000E+00  0.39412291067E+03  0.39412291067E+03  0.00000000000E+00 0.  1.
          2   -1    0    0  501    0  0.00000000000E+00 -0.00000000000E+00 -0.13682802185E+04  0.13682802185E+04  0.00000000000E+00 0. -1.
         24    2    1    2    0    0  0.82542310955E+02  0.30437124330E+03  0.73287564367E+02  0.33376425607E+03  0.81070492125E+02 0.  0.
        254    2    1    2    0    0 -0.82542310955E+02 -0.30437124330E+03 -0.10474448722E+04  0.14286388731E+04  0.91891957354E+03 0.  0.
         23    2    4    4    0    0 -0.30237050076E+02 -0.14515669386E+03 -0.11819207852E+04  0.11951536168E+04  0.97317421309E+02 0.  0.
         23    2    4    4    0    0 -0.52305260879E+02 -0.15921454944E+03  0.13447591294E+03  0.23348525629E+03  0.91359075482E+02 0.  0.
          2    1    3    3  502    0  0.20943710876E+01  0.48683295936E+02 -0.15922168993E+02  0.51263682651E+02  0.00000000000E+00 0. -1.
         -1    1    3    3    0  502  0.80447939867E+02  0.25568794736E+03  0.89209733360E+02  0.28250057342E+03  0.00000000000E+00 0.  1.
         11    1    5    5    0    0 -0.58472909946E+02 -0.96091312071E+02 -0.59736540810E+03  0.60786351449E+03  0.00000000000E+00 0. -1.
        -11    1    5    5    0    0  0.28235859870E+02 -0.49065381788E+02 -0.58455537706E+03  0.58729010235E+03  0.00000000000E+00 0.  1.
          3    1    6    6  503    0 -0.25340755118E+01 -0.21793666486E+01  0.46711643201E+02  0.46831066486E+02  0.00000000000E+00 0. -1.
         -3    1    6    6    0  503 -0.49771185367E+02 -0.15703518279E+03  0.87764269741E+02  0.18665418980E+03  0.00000000000E+00 0.  1.
<mgrwt>
<rscale>  0 0.14687009E+04</rscale>
<asrwt>0</asrwt>
<pdfrwt beam="1">  1        2 0.21050465E+00 0.14687009E+04</pdfrwt>
<pdfrwt beam="2">  1       -1 0.60634293E-01 0.14687009E+04</pdfrwt>
<totfact> 0.45945003E+01</totfact>
</mgrwt>
</event>
<event>
12    6  0.1395358E-007  0.1431293E+04  0.7818608E-02  0.8931473E-01
         -1   -1    0    0    0  501 -0.00000000000E+00  0.00000000000E+00  0.13281916723E+03  0.13281916723E+03  0.00000000000E+00 0.  1.
          2   -1    0    0  501    0  0.00000000000E+00 -0.00000000000E+00 -0.38559946542E+04  0.38559946542E+04  0.00000000000E+00 0. -1.
         24    2    1    2    0    0 -0.29562997364E+03  0.88248337914E+02 -0.30327247018E+03  0.43868261906E+03  0.72686990829E+02 0.  0.
        254    2    1    2    0    0  0.29562997364E+03 -0.88248337914E+02 -0.34199030168E+04  0.35501312024E+04  0.90139339882E+03 0.  0.
         23    2    4    4    0    0  0.60141786430E+03 -0.14299780275E+03 -0.24452423984E+04  0.25237858945E+04  0.90183342715E+02 0.  0.
         23    2    4    4    0    0 -0.30578789067E+03  0.54749464839E+02 -0.97466061833E+03  0.10263453078E+04  0.83172302921E+02 0.  0.
          2    1    3    3  502    0 -0.11426847092E+03 -0.67559144381E+00 -0.12384609899E+03  0.16850992880E+03  0.00000000000E+00 0. -1.
         -1    1    3    3    0  502 -0.18136150272E+03  0.88923929357E+02 -0.17942637119E+03  0.27017269025E+03  0.00000000000E+00 0.  1.
         11    1    5    5    0    0  0.26903308457E+02 -0.20263569374E+02 -0.82671634520E+02  0.89269252288E+02  0.00000000000E+00 0. -1.
        -11    1    5    5    0    0  0.57451455585E+03 -0.12273423338E+03 -0.23625707639E+04  0.24345166423E+04  0.00000000000E+00 0.  1.
          2    1    6    6  503    0 -0.13153312470E+03  0.33354420875E+02 -0.55689814971E+03  0.57319196561E+03  0.00000000000E+00 0. -1.
         -2    1    6    6    0  503 -0.17425476596E+03  0.21395043964E+02 -0.41776246862E+03  0.45315334221E+03  0.00000000000E+00 0.  1.
<mgrwt>
<rscale>  0 0.14312931E+04</rscale>
<asrwt>0</asrwt>
<pdfrwt beam="1">  1        2 0.59323002E+00 0.14312931E+04</pdfrwt>
<pdfrwt beam="2">  1       -1 0.20433716E-01 0.14312931E+04</pdfrwt>
<totfact> 0.99366399E+00</totfact>
</mgrwt>
</event>
<event>
12    6  0.1395358E-007  0.1276197E+04  0.7818608E-02  0.9048657E-01
         -1   -1    0    0    0  501 -0.00000000000E+00  0.00000000000E+00  0.48798217767E+03  0.48798217767E+03  0.00000000000E+00 0.  1.
          2   -1    0    0  501    0  0.00000000000E+00 -0.00000000000E+00 -0.83439432453E+03  0.83439432453E+03  0.00000000000E+00 0. -1.
         24    2    1    2    0    0 -0.28249697525E+03  0.95551185319E+02 -0.18134600352E+03  0.35759683046E+03  0.77810989732E+02 0.  0.
        254    2    1    2    0    0  0.28249697525E+03 -0.95551185319E+02 -0.16506614335E+03  0.96477967174E+03  0.90256213819E+03 0.  0.
         23    2    4    4    0    0 -0.19255013535E+03 -0.34194835280E+03 -0.10720844723E+03  0.41716016884E+03  0.92329435748E+02 0.  0.
         23    2    4    4    0    0  0.47504711060E+03  0.24639716748E+03 -0.57857696121E+02  0.54761950290E+03  0.10078832038E+03 0.  0.
          2    1    3    3  502    0 -0.13370655764E+03  0.46344456114E+02 -0.13141326901E+03  0.19311835604E+03  0.00000000000E+00 0. -1.
         -1    1    3    3    0  502 -0.14879041761E+03  0.49206729205E+02 -0.49932734503E+02  0.16447847441E+03  0.00000000000E+00 0.  1.
         11    1    5    5    0    0 -0.29953087566E+01  0.42466431175E+01 -0.90647849450E+01  0.10448740518E+02  0.00000000000E+00 0.  1.
        -11    1    5    5    0    0 -0.18955482659E+03 -0.34619499592E+03 -0.98143662281E+02  0.40671142832E+03  0.00000000000E+00 0. -1.
          3    1    6    6  503    0  0.33661946843E+03  0.22396780288E+03 -0.42302308049E+02  0.40652641798E+03  0.00000000000E+00 0. -1.
         -3    1    6    6    0  503  0.13842764217E+03  0.22429364600E+02 -0.15555388072E+02  0.14109308491E+03  0.00000000000E+00 0.  1.
<mgrwt>
<rscale>  0 0.12761968E+04</rscale>
<asrwt>0</asrwt>
<pdfrwt beam="1">  1        2 0.12836836E+00 0.12761968E+04</pdfrwt>
<pdfrwt beam="2">  1       -1 0.75074182E-01 0.12761968E+04</pdfrwt>
<totfact> 0.65108616E+01</totfact>
</mgrwt>
</event>
<event>
12    6  0.1395358E-007  0.2575298E+04  0.7818608E-02  0.8376641E-01
         -1   -1    0    0    0  501 -0.00000000000E+00  0.00000000000E+00  0.41101886037E+03  0.41101886037E+03  0.00000000000E+00 0.  1.
          2   -1    0    0  501    0  0.00000000000E+00 -0.00000000000E+00 -0.40339748681E+04  0.40339748681E+04  0.00000000000E+00 0. -1.
         24    2    1    2    0    0 -0.47706974479E+03  0.10139128373E+04 -0.18390910555E+04  0.21550121618E+04  0.78782765855E+02 0.  0.
        254    2    1    2    0    0  0.47706974479E+03 -0.10139128373E+04 -0.17838649523E+04  0.22899815666E+04  0.89790123317E+03 0.  0.
         23    2    4    4    0    0 -0.37432190158E+02 -0.82342939282E+03 -0.76077099118E+03  0.11254114181E+04  0.91330308210E+02 0.  0.
         23    2    4    4    0    0  0.51450193495E+03 -0.19048344451E+03 -0.10230939611E+04  0.11645701485E+04  0.92229029673E+02 0.  0.
          2    1    3    3  502    0 -0.75112817935E+02  0.23614889315E+03 -0.40939967548E+03  0.47855650600E+03  0.00000000000E+00 0. -1.
         -1    1    3    3    0  502 -0.40195692686E+03  0.77776394419E+03 -0.14296913800E+04  0.16764556558E+04  0.00000000000E+00 0.  1.
         11    1    5    5    0    0  0.14740133543E+02 -0.49841168984E+02 -0.68516637803E+02  0.85999670455E+02  0.00000000000E+00 0. -1.
        -11    1    5    5    0    0 -0.52172323701E+02 -0.77358822384E+03 -0.69225435338E+03  0.10394117477E+04  0.00000000000E+00 0.  1.
          3    1    6    6  503    0  0.16622494963E+02 -0.86287628491E+01 -0.85430070722E+02  0.87458903896E+02  0.00000000000E+00 0. -1.
         -3    1    6    6    0  503  0.49787943999E+03 -0.18185468166E+03 -0.93766389035E+03  0.10771112446E+04  0.00000000000E+00 0.  1.
<mgrwt>
<rscale>  0 0.25752978E+04</rscale>
<asrwt>0</asrwt>
<pdfrwt beam="1">  1        2 0.62061150E+00 0.25752978E+04</pdfrwt>
<pdfrwt beam="2">  1       -1 0.63233673E-01 0.25752978E+04</pdfrwt>
<totfact> 0.82294265E-01</totfact>
</mgrwt>
</event>
<event>
12    6  0.1395358E-007  0.1271309E+04  0.7818608E-02  0.9052632E-01
          2   -1    0    0  501    0  0.00000000000E+00  0.00000000000E+00  0.77714392461E+03  0.77714392461E+03  0.00000000000E+00 0. -1.
         -1   -1    0    0    0  501 -0.00000000000E+00 -0.00000000000E+00 -0.51992480702E+03  0.51992480702E+03  0.00000000000E+00 0.  1.
         24    2    1    2    0    0 -0.48834809500E+02 -0.28432748633E+03  0.17594987001E+03  0.34769355700E+03  0.81887085183E+02 0.  0.
        254    2    1    2    0    0  0.48834809500E+02  0.28432748633E+03  0.81269247579E+02  0.94937517463E+03  0.90082272035E+03 0.  0.
         23    2    4    4    0    0  0.92433854209E+01 -0.31970761752E+03  0.71614407380E+01  0.33246317841E+03  0.90454838946E+02 0.  0.
         23    2    4    4    0    0  0.39591424079E+02  0.60403510385E+03  0.74107806841E+02  0.61691199622E+03  0.93072855857E+02 0.  0.
          2    1    3    3  502    0  0.15498621449E+02 -0.14858114990E+03  0.95251560717E+02  0.17717061041E+03  0.00000000000E+00 0. -1.
         -1    1    3    3    0  502 -0.64333430949E+02 -0.13574633643E+03  0.80698309293E+02  0.17052294659E+03  0.00000000000E+00 0.  1.
         11    1    5    5    0    0 -0.39012491808E+02 -0.17907849991E+03  0.12352346245E+02  0.18369448578E+03  0.00000000000E+00 0.  1.
        -11    1    5    5    0    0  0.48255877229E+02 -0.14062911761E+03 -0.51909055067E+01  0.14876869263E+03  0.00000000000E+00 0. -1.
          1    1    6    6  503    0 -0.28939736366E+02  0.13065833907E+03  0.81347775895E+01  0.13407193784E+03  0.00000000000E+00 0. -1.
         -1    1    6    6    0  503  0.68531160445E+02  0.47337676479E+03  0.65973029251E+02  0.48284005838E+03  0.00000000000E+00 0.  1.
<mgrwt>
<rscale>  0 0.12713086E+04</rscale>
<asrwt>0</asrwt>
<pdfrwt beam="1">  1        2 0.11956060E+00 0.12713086E+04</pdfrwt>
<pdfrwt beam="2">  1       -1 0.79988432E-01 0.12713086E+04</pdfrwt>
<totfact> 0.62658897E+01</totfact>
</mgrwt>
</event>
<event>
12    6  0.1395358E-007  0.1560736E+04  0.7818608E-02  0.8845039E-01
          2   -1    0    0  501    0  0.00000000000E+00  0.00000000000E+00  0.67778354695E+03  0.67778354695E+03  0.00000000000E+00 0. -1.
         -1   -1    0    0    0  501 -0.00000000000E+00 -0.00000000000E+00 -0.89847935685E+03  0.89847935685E+03  0.00000000000E+00 0.  1.
         24    2    1    2    0    0  0.39635801145E+03 -0.21041868586E+03  0.18748601933E+03  0.49233832984E+03  0.76618059097E+02 0.  0.
        254    2    1    2    0    0 -0.39635801145E+03  0.21041868586E+03 -0.40818182923E+03  0.10839245740E+04  0.89827856465E+03 0.  0.
         23    2    4    4    0    0 -0.23845616124E+03 -0.20576497580E+03  0.15252666378E+03  0.36192730693E+03  0.92338649752E+02 0.  0.
         23    2    4    4    0    0 -0.15790185021E+03  0.41618366167E+03 -0.56070849300E+03  0.72199726702E+03  0.93510453564E+02 0.  0.
          2    1    3    3  502    0  0.15369850841E+03 -0.86655968655E+02  0.11447199975E+03  0.21032433791E+03  0.00000000000E+00 0. -1.
         -1    1    3    3    0  502  0.24265950304E+03 -0.12376271721E+03  0.73014019580E+02  0.28201399193E+03  0.00000000000E+00 0.  1.
         11    1    5    5    0    0 -0.57266950369E+02 -0.50780484829E+01  0.33184664408E+02  0.66381564706E+02  0.00000000000E+00 0. -1.
        -11    1    5    5    0    0 -0.18118921088E+03 -0.20068692732E+03  0.11934199937E+03  0.29554574223E+03  0.00000000000E+00 0.  1.
          3    1    6    6  503    0  0.43193936502E+01  0.73867392925E+02 -0.11869824721E+03  0.13987252336E+03  0.00000000000E+00 0. -1.
         -3    1    6    6    0  503 -0.16222124386E+03  0.34231626874E+03 -0.44201024579E+03  0.58212474367E+03  0.00000000000E+00 0.  1.
<mgrwt>
<rscale>  0 0.15607364E+04</rscale>
<asrwt>0</asrwt>
<pdfrwt beam="1">  1        2 0.10427439E+00 0.15607364E+04</pdfrwt>
<pdfrwt beam="2">  1       -1 0.13822759E+00 0.15607364E+04</pdfrwt>
<totfact> 0.20319354E+01</totfact>
</mgrwt>
</event>
<event>
12    6  0.1395358E-007  0.1823695E+04  0.7818608E-02  0.8693800E-01
         -1   -1    0    0    0  501 -0.00000000000E+00  0.00000000000E+00  0.13545745399E+04  0.13545745399E+04  0.00000000000E+00 0.  1.
          2   -1    0    0  501    0  0.00000000000E+00 -0.00000000000E+00 -0.61382036355E+03  0.61382036355E+03  0.00000000000E+00 0. -1.
         24    2    1    2    0    0  0.57817783688E+03  0.36778669278E+03  0.24739884609E+03  0.73284664066E+03  0.79381025719E+02 0.  0.
        254    2    1    2    0    0 -0.57817783688E+03 -0.36778669278E+03  0.49335533026E+03  0.12355482628E+04  0.90201073459E+03 0.  0.
         23    2    4    4    0    0 -0.36307194352E+03 -0.11152511321E+03  0.72127843844E+03  0.82046682605E+03  0.93081361389E+02 0.  0.
         23    2    4    4    0    0 -0.21510589335E+03 -0.25626157956E+03 -0.22792310818E+03  0.41508143673E+03  0.91668497087E+02 0.  0.
          2    1    3    3  502    0  0.48531537395E+03  0.33845791113E+03  0.20023523632E+03  0.62464303379E+03  0.00000000000E+00 0. -1.
         -1    1    3    3    0  502  0.92862462925E+02  0.29328781649E+02  0.47163609770E+02  0.10820360687E+03  0.00000000000E+00 0.  1.
         11    1    5    5    0    0 -0.14705562633E+03 -0.12159124953E+02  0.34669230119E+03  0.37678741123E+03  0.00000000000E+00 0. -1.
        -11    1    5    5    0    0 -0.21601631719E+03 -0.99365988262E+02  0.37458613725E+03  0.44367941482E+03  0.00000000000E+00 0.  1.
          1    1    6    6  503    0 -0.91165327065E+02 -0.17105314889E+03 -0.10261968752E+03  0.21931962263E+03  0.00000000000E+00 0. -1.
         -1    1    6    6    0  503 -0.12394056629E+03 -0.85208430671E+02 -0.12530342066E+03  0.19576181410E+03  0.00000000000E+00 0.  1.
<mgrwt>
<rscale>  0 0.18236945E+04</rscale>
<asrwt>0</asrwt>
<pdfrwt beam="1">  1        2 0.94433902E-01 0.18236945E+04</pdfrwt>
<pdfrwt beam="2">  1       -1 0.20839608E+00 0.18236945E+04</pdfrwt>
<totfact> 0.68433098E+00</totfact>
</mgrwt>
</event>
<event>
12    6  0.1395358E-007  0.1820889E+04  0.7818608E-02  0.8695269E-01
         -1   -1    0    0    0  501 -0.00000000000E+00  0.00000000000E+00  0.16019618401E+04  0.16019618401E+04  0.00000000000E+00 0.  1.
          2   -1    0    0  501    0  0.00000000000E+00 -0.00000000000E+00 -0.51743389840E+03  0.51743389840E+03  0.00000000000E+00 0. -1.
         24    2    1    2    0    0 -0.36773231763E+03  0.56377523104E+03  0.56588378987E+03  0.88205501531E+03  0.68753311519E+02 0.  0.
        254    2    1    2    0    0  0.36773231763E+03 -0.56377523104E+03  0.51864415179E+03  0.12373407231E+04  0.89941688910E+03 0.  0.
         23    2    4    4    0    0 -0.10280425179E+03  0.10924525287E+03 -0.10241382818E+03  0.20369318420E+03  0.92190463844E+02 0.  0.
         23    2    4    4    0    0  0.47053656942E+03 -0.67302048391E+03  0.62105797997E+03  0.10336475389E+04  0.91394668121E+02 0.  0.
          2    1    3    3  502    0 -0.23566757284E+03  0.37110360085E+03  0.41077368623E+03  0.60165780037E+03  0.00000000000E+00 0. -1.
         -1    1    3    3    0  502 -0.13206474479E+03  0.19267163019E+03  0.15511010364E+03  0.28039721494E+03  0.00000000000E+00 0.  1.
         11    1    5    5    0    0 -0.67043647113E+01  0.18228041842E+02 -0.62495958241E+02  0.65444287849E+02  0.00000000000E+00 0. -1.
        -11    1    5    5    0    0 -0.96099887081E+02  0.91017211029E+02 -0.39917869939E+02  0.13824889635E+03  0.00000000000E+00 0.  1.
          2    1    6    6  503    0  0.28672576335E+03 -0.41329134171E+03  0.43523502652E+03  0.66516984659E+03  0.00000000000E+00 0. -1.
         -2    1    6    6    0  503  0.18381080607E+03 -0.25972914219E+03  0.18582295345E+03  0.36847769236E+03  0.00000000000E+00 0.  1.
<mgrwt>
<rscale>  0 0.18208892E+04</rscale>
<asrwt>0</asrwt>
<pdfrwt beam="1">  1        2 0.79605216E-01 0.18208892E+04</pdfrwt>
<pdfrwt beam="2">  1       -1 0.24645566E+00 0.18208892E+04</pdfrwt>
<totfact> 0.46858906E+00</totfact>
</mgrwt>
</event>
<event>
12    6  0.1395358E-007  0.4450973E+04  0.7818608E-02  0.7919277E-01
          2   -1    0    0  501    0  0.00000000000E+00  0.00000000000E+00  0.33677446125E+04  0.33677446125E+04  0.00000000000E+00 0. -1.
         -1   -1    0    0    0  501 -0.00000000000E+00 -0.00000000000E+00 -0.14706547928E+04  0.14706547928E+04  0.00000000000E+00 0.  1.
         24    2    1    2    0    0 -0.52523031652E+03  0.18897463948E+04  0.18239494159E+04  0.26795589340E+04  0.78970164631E+02 0.  0.
        254    2    1    2    0    0  0.52523031652E+03 -0.18897463948E+04  0.73140403855E+02  0.21588404713E+04  0.89901854237E+03 0.  0.
         23    2    4    4    0    0  0.45243903443E+03 -0.19613694357E+04  0.10788394605E+03  0.20177768882E+04  0.90074865489E+02 0.  0.
         23    2    4    4    0    0  0.72791282086E+02  0.71623040875E+02 -0.34743542192E+02  0.14106358310E+03  0.90903190383E+02 0.  0.
          4    1    3    3  502    0 -0.18685012326E+03  0.78872117800E+03  0.72174962799E+03  0.10853186586E+04  0.00000000000E+00 0. -1.
         -3    1    3    3    0  502 -0.33838019326E+03  0.11010252168E+04  0.11021997879E+04  0.15942402754E+04  0.00000000000E+00 0.  1.
         11    1    5    5    0    0  0.41444421252E+03 -0.17027839247E+04  0.72104246962E+02  0.17539772296E+04  0.00000000000E+00 0. -1.
        -11    1    5    5    0    0  0.37994821910E+02 -0.25858551096E+03  0.35779699084E+02  0.26379965853E+03  0.00000000000E+00 0.  1.
          2    1    6    6  503    0  0.68593346397E+02  0.92625367291E+02 -0.28022803327E+02  0.11861611755E+03  0.00000000000E+00 0. -1.
         -2    1    6    6    0  503  0.41979356891E+01 -0.21002326416E+02 -0.67207388642E+01  0.22447465555E+02  0.00000000000E+00 0.  1.
<mgrwt>
<rscale>  0 0.44509728E+04</rscale>
<asrwt>0</asrwt>
<pdfrwt beam="1">  1        2 0.51811456E+00 0.44509728E+04</pdfrwt>
<pdfrwt beam="2">  1       -1 0.22625458E+00 0.44509728E+04</pdfrwt>
<totfact> 0.86451111E-02</totfact>
</mgrwt>
</event>
<event>
12    6  0.1395358E-007  0.1332899E+04  0.7818608E-02  0.9003875E-01
          2   -1    0    0  501    0  0.00000000000E+00  0.00000000000E+00  0.11682760475E+04  0.11682760475E+04  0.00000000000E+00 0. -1.
         -1   -1    0    0    0  501 -0.00000000000E+00 -0.00000000000E+00 -0.38017999608E+03  0.38017999608E+03  0.00000000000E+00 0.  1.
         24    2    1    2    0    0  0.19681327999E+02  0.90105035219E+02 -0.18430775869E+03  0.22114091776E+03  0.80172835497E+02 0.  0.
        254    2    1    2    0    0 -0.19681327999E+02 -0.90105035219E+02  0.97240381010E+03  0.13273151258E+04  0.89871575111E+03 0.  0.
         23    2    4    4    0    0 -0.38565171987E+03  0.17918049840E+03  0.54657829874E+03  0.69868177650E+03  0.92603931396E+02 0.  0.
         23    2    4    4    0    0  0.36597039187E+03 -0.26928553362E+03  0.42582551135E+03  0.62863334932E+03  0.86043566967E+02 0.  0.
          2    1    3    3  502    0 -0.12693770950E+02  0.88184924917E+01  0.17318308104E+01  0.15553034068E+02  0.00000000000E+00 0. -1.
         -1    1    3    3    0  502  0.32375098949E+02  0.81286542727E+02 -0.18603958950E+03  0.20558788369E+03  0.00000000000E+00 0.  1.
         11    1    5    5    0    0 -0.62461238931E+02  0.21115456809E+02  0.39243072277E+02  0.76728662225E+02  0.00000000000E+00 0.  1.
        -11    1    5    5    0    0 -0.32319048094E+03  0.15806504159E+03  0.50733522646E+03  0.62195311427E+03  0.00000000000E+00 0. -1.
          2    1    6    6  503    0  0.27894454105E+03 -0.19595525536E+03  0.26581010668E+03  0.43227714709E+03  0.00000000000E+00 0. -1.
         -2    1    6    6    0  503  0.87025850820E+02 -0.73330278259E+02  0.16001540468E+03  0.19635620223E+03  0.00000000000E+00 0.  1.
<mgrwt>
<rscale>  0 0.13328994E+04</rscale>
<asrwt>0</asrwt>
<pdfrwt beam="1">  1        2 0.17973477E+00 0.13328994E+04</pdfrwt>
<pdfrwt beam="2">  1       -1 0.58489231E-01 0.13328994E+04</pdfrwt>
<totfact> 0.65369737E+01</totfact>
</mgrwt>
</event>
<event>
12    6  0.1395358E-007  0.1361045E+04  0.7818608E-02  0.8982509E-01
         -1   -1    0    0    0  501 -0.00000000000E+00  0.00000000000E+00  0.68516211399E+03  0.68516211399E+03  0.00000000000E+00 0.  1.
          2   -1    0    0  501    0  0.00000000000E+00 -0.00000000000E+00 -0.67591404611E+03  0.67591404611E+03  0.00000000000E+00 0. -1.
         24    2    1    2    0    0 -0.34440149560E+03  0.10801772104E+03 -0.10889504028E+03  0.38540934081E+03  0.80012573743E+02 0.  0.
        254    2    1    2    0    0  0.34440149560E+03 -0.10801772104E+03  0.11814310815E+03  0.97566681929E+03  0.89871448749E+03 0.  0.
         23    2    4    4    0    0 -0.27830094581E+03 -0.16341907718E+03  0.65041595920E+02  0.34157276689E+03  0.91018320448E+02 0.  0.
         23    2    4    4    0    0  0.62270244141E+03  0.55401356136E+02  0.53101512234E+02  0.63409405240E+03  0.91803354452E+02 0.  0.
          2    1    3    3  502    0 -0.15741241175E+03  0.67283377896E+02 -0.89170644824E+02  0.19302104603E+03  0.00000000000E+00 0. -1.
         -1    1    3    3    0  502 -0.18698908386E+03  0.40734343148E+02 -0.19724395452E+02  0.19238829478E+03  0.00000000000E+00 0.  1.
         11    1    5    5    0    0 -0.19046299079E+02 -0.25843676289E+02 -0.17668961022E+02  0.36644908192E+02  0.00000000000E+00 0. -1.
        -11    1    5    5    0    0 -0.25925464673E+03 -0.13757540089E+03  0.82710556942E+02  0.30492785870E+03  0.00000000000E+00 0.  1.
          1    1    6    6  503    0  0.35500536822E+03  0.70489148673E+02  0.54189067702E+02  0.36596992582E+03  0.00000000000E+00 0. -1.
         -1    1    6    6    0  503  0.26769707319E+03 -0.15087792537E+02 -0.10875554683E+01  0.26812412658E+03  0.00000000000E+00 0.  1.
<mgrwt>
<rscale>  0 0.13610447E+04</rscale>
<asrwt>0</asrwt>
<pdfrwt beam="1">  1        2 0.10398678E+00 0.13610447E+04</pdfrwt>
<pdfrwt beam="2">  1       -1 0.10540956E+00 0.13610447E+04</pdfrwt>
<totfact> 0.40299942E+01</totfact>
</mgrwt>
</event>
<event>
12    6  0.1395358E-007  0.2037828E+04  0.7818608E-02  0.8589136E-01
          2   -1    0    0  501    0  0.00000000000E+00  0.00000000000E+00  0.11913394827E+04  0.11913394827E+04  0.00000000000E+00 0. -1.
         -1   -1    0    0    0  501 -0.00000000000E+00 -0.00000000000E+00 -0.87144390401E+03  0.87144390401E+03  0.00000000000E+00 0.  1.
         24    2    1    2    0    0 -0.77708519939E+03  0.20387758026E+03  0.28408110812E+03  0.85619567830E+03  0.83315596998E+02 0.  0.
        254    2    1    2    0    0  0.77708519939E+03 -0.20387758026E+03  0.35814470525E+02  0.12065877084E+04  0.89952417801E+03 0.  0.
         23    2    4    4    0    0  0.37276918021E+03 -0.14170477450E+03 -0.42158140946E+03  0.58617562321E+03  0.82667234246E+02 0.  0.
         23    2    4    4    0    0  0.40431601918E+03 -0.62172805760E+02  0.45739587999E+03  0.62041208515E+03  0.91450878753E+02 0.  0.
          4    1    3    3  502    0 -0.54972015146E+03  0.15400327397E+03  0.24003136876E+03  0.61929339678E+03  0.00000000000E+00 0. -1.
         -3    1    3    3    0  502 -0.22736504793E+03  0.49874306298E+02  0.44049739360E+02  0.23690228152E+03  0.00000000000E+00 0.  1.
         11    1    5    5    0    0  0.53748435098E+02 -0.51885359802E+00 -0.90247007175E+02  0.10504135276E+03  0.00000000000E+00 0. -1.
        -11    1    5    5    0    0  0.31902074511E+03 -0.14118592091E+03 -0.33133440228E+03  0.48113427046E+03  0.00000000000E+00 0.  1.
          1    1    6    6  503    0  0.27160451591E+03 -0.84792963174E+02  0.31226128690E+03  0.42245232981E+03  0.00000000000E+00 0. -1.
         -1    1    6    6    0  503  0.13271150328E+03  0.22620157414E+02  0.14513459309E+03  0.19795975534E+03  0.00000000000E+00 0.  1.
<mgrwt>
<rscale>  0 0.20378278E+04</rscale>
<asrwt>0</asrwt>
<pdfrwt beam="1">  1        2 0.18328300E+00 0.20378278E+04</pdfrwt>
<pdfrwt beam="2">  1       -1 0.13406829E+00 0.20378278E+04</pdfrwt>
<totfact> 0.94924112E+00</totfact>
</mgrwt>
</event>
<event>
12    6  0.1395358E-007  0.2292465E+04  0.7818608E-02  0.8480898E-01
          2   -1    0    0  501    0  0.00000000000E+00  0.00000000000E+00  0.28011079375E+04  0.28011079375E+04  0.00000000000E+00 0. -1.
         -1   -1    0    0    0  501 -0.00000000000E+00 -0.00000000000E+00 -0.46904615475E+03  0.46904615475E+03  0.00000000000E+00 0.  1.
         24    2    1    2    0    0  0.86443326822E+03  0.30702823542E+02  0.36807585312E+03  0.94347595999E+03  0.80495433695E+02 0.  0.
        254    2    1    2    0    0 -0.86443326822E+03 -0.30702823542E+02  0.19639859296E+04  0.23266781322E+04  0.89888979343E+03 0.  0.
         23    2    4    4    0    0 -0.88770901395E+03  0.23385137651E+03  0.17311890556E+04  0.19616617510E+04  0.91583400256E+02 0.  0.
         23    2    4    4    0    0  0.23275745730E+02 -0.26455420005E+03  0.23279687397E+03  0.36501638124E+03  0.92259898859E+02 0.  0.
          2    1    3    3  502    0  0.41975202208E+03  0.22574617796E+02  0.22178546363E+03  0.47527903939E+03  0.00000000000E+00 0. -1.
         -1    1    3    3    0  502  0.44468124615E+03  0.81282057453E+01  0.14629038950E+03  0.46819692060E+03  0.00000000000E+00 0.  1.
         11    1    5    5    0    0 -0.83018202169E+03  0.23912868190E+03  0.16008605822E+04  0.18191039880E+04  0.00000000000E+00 0.  1.
        -11    1    5    5    0    0 -0.57526992263E+02 -0.52773053859E+01  0.13032847346E+03  0.14255776298E+03  0.00000000000E+00 0. -1.
          3    1    6    6  503    0 -0.91751475101E+01 -0.40942332872E+02  0.19686015270E+01  0.42003968203E+02  0.00000000000E+00 0. -1.
         -3    1    6    6    0  503  0.32450893240E+02 -0.22361186718E+03  0.23082827244E+03  0.32301241304E+03  0.00000000000E+00 0.  1.
<mgrwt>
<rscale>  0 0.22924650E+04</rscale>
<asrwt>0</asrwt>
<pdfrwt beam="1">  1        2 0.43093967E+00 0.22924650E+04</pdfrwt>
<pdfrwt beam="2">  1       -1 0.72160949E-01 0.22924650E+04</pdfrwt>
<totfact> 0.46191047E+00</totfact>
</mgrwt>
</event>
<event>
12    6  0.1395358E-007  0.1590459E+04  0.7818608E-02  0.8826431E-01
          2   -1    0    0  501    0  0.00000000000E+00  0.00000000000E+00  0.12499699279E+04  0.12499699279E+04  0.00000000000E+00 0. -1.
         -1   -1    0    0    0  501 -0.00000000000E+00 -0.00000000000E+00 -0.50592409384E+03  0.50592409384E+03  0.00000000000E+00 0.  1.
         24    2    1    2    0    0 -0.39749300988E+03 -0.35265183907E+03  0.33797355775E+03  0.63482379780E+03  0.80069444913E+02 0.  0.
        254    2    1    2    0    0  0.39749300988E+03  0.35265183907E+03  0.40607227633E+03  0.11210702240E+04  0.89974426419E+03 0.  0.
         23    2    4    4    0    0  0.18564468544E+03 -0.87031335108E+02 -0.22504394840E+03  0.31709500992E+03  0.88690834244E+02 0.  0.
         23    2    4    4    0    0  0.21184832444E+03  0.43968317418E+03  0.63111622474E+03  0.80397521404E+03  0.99335036343E+02 0.  0.
          4    1    3    3  502    0 -0.14420260717E+03 -0.13115872394E+03  0.17050535157E+03  0.25897698294E+03  0.00000000000E+00 0. -1.
         -3    1    3    3    0  502 -0.25329040271E+03 -0.22149311513E+03  0.16746820618E+03  0.37584681485E+03  0.00000000000E+00 0.  1.
         11    1    5    5    0    0  0.17568534076E+03 -0.77644194864E+02 -0.15812831654E+03  0.24879414070E+03  0.00000000000E+00 0.  1.
        -11    1    5    5    0    0  0.99593446791E+01 -0.93871402446E+01 -0.66915631863E+02  0.68300869218E+02  0.00000000000E+00 0. -1.
          2    1    6    6  503    0  0.85811864979E+02  0.27483647616E+03  0.32548147120E+03  0.43455373994E+03  0.00000000000E+00 0.  1.
         -2    1    6    6    0  503  0.12603645946E+03  0.16484669802E+03  0.30563475353E+03  0.36942147410E+03  0.00000000000E+00 0. -1.
<mgrwt>
<rscale>  0 0.15904589E+04</rscale>
<asrwt>0</asrwt>
<pdfrwt beam="1">  1        2 0.19230307E+00 0.15904589E+04</pdfrwt>
<pdfrwt beam="2">  1       -1 0.77834476E-01 0.15904589E+04</pdfrwt>
<totfact> 0.32003760E+01</totfact>
</mgrwt>
</event>
<event>
12    6  0.1395358E-007  0.1692068E+04  0.7818608E-02  0.8765902E-01
         -1   -1    0    0    0  501 -0.00000000000E+00  0.00000000000E+00  0.53640388211E+03  0.53640388211E+03  0.00000000000E+00 0.  1.
          2   -1    0    0  501    0  0.00000000000E+00 -0.00000000000E+00 -0.13343921199E+04  0.13343921199E+04  0.00000000000E+00 0. -1.
         24    2    1    2    0    0 -0.53656120115E+03  0.14817706737E+03 -0.54143442013E+03  0.78067699432E+03  0.80317945029E+02 0.  0.
        254    2    1    2    0    0  0.53656120115E+03 -0.14817706737E+03 -0.25655381766E+03  0.10901190077E+04  0.90149055663E+03 0.  0.
         23    2    4    4    0    0  0.13098784336E+03  0.28434417222E+03  0.15566962590E+03  0.36177937679E+03  0.92961613915E+02 0.  0.
         23    2    4    4    0    0  0.40557335779E+03 -0.43252123959E+03 -0.41222344355E+03  0.72833963089E+03  0.94794932712E+02 0.  0.
          4    1    3    3  502    0 -0.44946127428E+03  0.15072476003E+03 -0.47515404622E+03  0.67119651221E+03  0.00000000000E+00 0. -1.
         -3    1    3    3    0  502 -0.87099926869E+02 -0.25476926606E+01 -0.66280373914E+02  0.10948048212E+03  0.00000000000E+00 0.  1.
         11    1    5    5    0    0  0.13009165196E+03  0.26728395917E+03  0.16730542404E+03  0.34110945113E+03  0.00000000000E+00 0. -1.
        -11    1    5    5    0    0  0.89619139886E+00  0.17060213046E+02 -0.11635798143E+02  0.20669925656E+02  0.00000000000E+00 0.  1.
          3    1    6    6  503    0  0.18349973952E+03 -0.14047517711E+03 -0.12752787669E+03  0.26394845921E+03  0.00000000000E+00 0. -1.
         -3    1    6    6    0  503  0.22207361827E+03 -0.29204606248E+03 -0.28469556686E+03  0.46439117168E+03  0.00000000000E+00 0.  1.
<mgrwt>
<rscale>  0 0.16920675E+04</rscale>
<asrwt>0</asrwt>
<pdfrwt beam="1">  1        2 0.20529109E+00 0.16920675E+04</pdfrwt>
<pdfrwt beam="2">  1       -1 0.82523675E-01 0.16920675E+04</pdfrwt>
<totfact> 0.25008354E+01</totfact>
</mgrwt>
</event>
<event>
12    6  0.1395358E-007  0.1254776E+04  0.7818608E-02  0.9066217E-01
          2   -1    0    0  501    0  0.00000000000E+00  0.00000000000E+00  0.41355083199E+03  0.41355083199E+03  0.00000000000E+00 0. -1.
         -1   -1    0    0    0  501 -0.00000000000E+00 -0.00000000000E+00 -0.95179538989E+03  0.95179538989E+03  0.00000000000E+00 0.  1.
         24    2    1    2    0    0 -0.18400207338E+03 -0.79960501259E+02 -0.36831918157E+03  0.42613713961E+03  0.75388311230E+02 0.  0.
        254    2    1    2    0    0  0.18400207338E+03  0.79960501259E+02 -0.16992537633E+03  0.93920908228E+03  0.90165881681E+03 0.  0.
         23    2    4    4    0    0  0.57603997460E+02  0.19666580689E+03  0.33263812958E+03  0.40055606141E+03  0.88325381192E+02 0.  0.
         23    2    4    4    0    0  0.12639807592E+03 -0.11670530563E+03 -0.50256350591E+03  0.53865302086E+03  0.89333070344E+02 0.  0.
          4    1    3    3  502    0 -0.80008629159E+02 -0.41848180635E+02 -0.94185362132E+02  0.13047426337E+03  0.00000000000E+00 0. -1.
         -3    1    3    3    0  502 -0.10399344423E+03 -0.38112320624E+02 -0.27413381944E+03  0.29566287624E+03  0.00000000000E+00 0.  1.
         11    1    5    5    0    0 -0.18767305235E+02  0.85659577483E+02  0.14708865747E+03  0.17124499442E+03  0.00000000000E+00 0.  1.
        -11    1    5    5    0    0  0.76371302695E+02  0.11100622941E+03  0.18554947211E+03  0.22931106699E+03  0.00000000000E+00 0. -1.
          2    1    6    6  503    0  0.17685849219E+02 -0.75474744395E+02 -0.20765589675E+03  0.22165332787E+03  0.00000000000E+00 0. -1.
         -2    1    6    6    0  503  0.10871222671E+03 -0.41230561234E+02 -0.29490760916E+03  0.31699969299E+03  0.00000000000E+00 0.  1.
<mgrwt>
<rscale>  0 0.12547761E+04</rscale>
<asrwt>0</asrwt>
<pdfrwt beam="1">  1        2 0.63623205E-01 0.12547761E+04</pdfrwt>
<pdfrwt beam="2">  1       -1 0.14643006E+00 0.12547761E+04</pdfrwt>
<totfact> 0.32071674E+01</totfact>
</mgrwt>
</event>
<event>
12    6  0.1395358E-007  0.2691039E+04  0.7818608E-02  0.8337918E-01
         -1   -1    0    0    0  501 -0.00000000000E+00  0.00000000000E+00  0.10146239552E+04  0.10146239552E+04  0.00000000000E+00 0.  1.
          2   -1    0    0  501    0  0.00000000000E+00 -0.00000000000E+00 -0.17843288395E+04  0.17843288395E+04  0.00000000000E+00 0. -1.
         24    2    1    2    0    0  0.99606794878E+03 -0.13236081007E+01 -0.10307540967E+04  0.14357209096E+04  0.81776597901E+02 0.  0.
        254    2    1    2    0    0 -0.99606794878E+03  0.13236081007E+01  0.26104921246E+03  0.13632318851E+04  0.89336519443E+03 0.  0.
         23    2    4    4    0    0 -0.33526787645E+03  0.12483476205E+03 -0.30591428034E+03  0.47917277371E+03  0.89636674171E+02 0.  0.
         23    2    4    4    0    0 -0.66080007234E+03 -0.12351115395E+03  0.56696349280E+03  0.88405911136E+03  0.90560308393E+02 0.  0.
          4    1    3    3  502    0  0.42289707719E+03 -0.83593026208E+01 -0.49513496965E+03  0.65120692104E+03  0.00000000000E+00 0. -1.
         -3    1    3    3    0  502  0.57317087160E+03  0.70356945201E+01 -0.53561912702E+03  0.78451398858E+03  0.00000000000E+00 0.  1.
         11    1    5    5    0    0 -0.22700349978E+03  0.82987172693E+02 -0.14878265638E+03  0.28381990519E+03  0.00000000000E+00 0.  1.
        -11    1    5    5    0    0 -0.10826437667E+03  0.41847589357E+02 -0.15713162396E+03  0.19535286852E+03  0.00000000000E+00 0. -1.
          1    1    6    6  503    0 -0.17504005894E+03 -0.73977941844E+02  0.16055638200E+03  0.24877722949E+03  0.00000000000E+00 0. -1.
         -1    1    6    6    0  503 -0.48576001340E+03 -0.49533212106E+02  0.40640711080E+03  0.63528188187E+03  0.00000000000E+00 0.  1.
<mgrwt>
<rscale>  0 0.26910390E+04</rscale>
<asrwt>0</asrwt>
<pdfrwt beam="1">  1        2 0.27451213E+00 0.26910390E+04</pdfrwt>
<pdfrwt beam="2">  1       -1 0.15609599E+00 0.26910390E+04</pdfrwt>
<totfact> 0.27534149E+00</totfact>
</mgrwt>
</event>
<event>
12    6  0.1395358E-007  0.2320217E+04  0.7818608E-02  0.8469992E-01
          2   -1    0    0  501    0  0.00000000000E+00  0.00000000000E+00  0.49240285788E+03  0.49240285788E+03  0.00000000000E+00 0. -1.
         -1   -1    0    0    0  501 -0.00000000000E+00 -0.00000000000E+00 -0.27332331527E+04  0.27332331527E+04  0.00000000000E+00 0.  1.
         24    2    1    2    0    0 -0.78219604821E+03 -0.33617240153E+02 -0.17803853763E+04  0.19465667789E+04  0.79933472934E+02 0.  0.
        254    2    1    2    0    0  0.78219604821E+03  0.33617240153E+02 -0.46044491854E+03  0.12790692316E+04  0.90058192279E+03 0.  0.
         23    2    4    4    0    0  0.24318457021E+03 -0.38743788720E+03 -0.32789869342E+02  0.46722792222E+03  0.89330309219E+02 0.  0.
         23    2    4    4    0    0  0.53901147800E+03  0.42105512735E+03 -0.42765504920E+03  0.81184130942E+03  0.91524187475E+02 0.  0.
          2    1    3    3  502    0 -0.61918274912E+03 -0.58448855996E+02 -0.13911416634E+04  0.15238368263E+04  0.00000000000E+00 0. -1.
         -1    1    3    3    0  502 -0.16301329909E+03  0.24831615843E+02 -0.38924371284E+03  0.42272995258E+03  0.00000000000E+00 0.  1.
         11    1    5    5    0    0  0.22102263783E+03 -0.28495657117E+03 -0.15478721591E+02  0.36095823125E+03  0.00000000000E+00 0.  1.
        -11    1    5    5    0    0  0.22161932378E+02 -0.10248131603E+03 -0.17311147752E+02  0.10626969097E+03  0.00000000000E+00 0. -1.
          2    1    6    6  503    0  0.34809614468E+03  0.25414660397E+03 -0.21901829955E+03  0.48345675897E+03  0.00000000000E+00 0. -1.
         -2    1    6    6    0  503  0.19091533332E+03  0.16690852338E+03 -0.20863674965E+03  0.32838455046E+03  0.00000000000E+00 0.  1.
<mgrwt>
<rscale>  0 0.23202171E+04</rscale>
<asrwt>0</asrwt>
<pdfrwt beam="1">  1        2 0.75754286E-01 0.23202171E+04</pdfrwt>
<pdfrwt beam="2">  1       -1 0.42049741E+00 0.23202171E+04</pdfrwt>
<totfact> 0.33517833E-01</totfact>
</mgrwt>
</event>
<event>
12    6  0.1395358E-007  0.1155850E+04  0.7818608E-02  0.9152404E-01
          2   -1    0    0  501    0  0.00000000000E+00  0.00000000000E+00  0.89601805303E+03  0.89601805303E+03  0.00000000000E+00 0. -1.
         -1   -1    0    0    0  501 -0.00000000000E+00 -0.00000000000E+00 -0.37275731100E+03  0.37275731100E+03  0.00000000000E+00 0.  1.
         24    2    1    2    0    0  0.77693727353E+02 -0.19811313330E+03  0.14892876684E+03  0.27196502452E+03  0.80622999910E+02 0.  0.
        254    2    1    2    0    0 -0.77693727353E+02  0.19811313330E+03  0.37433197519E+03  0.99681033951E+03  0.89901128828E+03 0.  0.
         23    2    4    4    0    0 -0.36431834712E+02  0.53255220505E+03  0.35168763574E+03  0.64616005327E+03  0.94337116857E+02 0.  0.
         23    2    4    4    0    0 -0.41261892641E+02 -0.33443907176E+03  0.22644339442E+02  0.35065028624E+03  0.94291148217E+02 0.  0.
          4    1    3    3  502    0  0.92856012039E+02 -0.15695268846E+03  0.13119299547E+03  0.22465081226E+03  0.00000000000E+00 0. -1.
         -3    1    3    3    0  502 -0.15162284687E+02 -0.41160444832E+02  0.17735771370E+02  0.47314212260E+02  0.00000000000E+00 0.  1.
         11    1    5    5    0    0 -0.28618700413E+02  0.42362274865E+02  0.43152671798E+02  0.66901012162E+02  0.00000000000E+00 0.  1.
        -11    1    5    5    0    0 -0.78131342990E+01  0.49018993019E+03  0.30853496395E+03  0.57925904111E+03  0.00000000000E+00 0. -1.
          3    1    6    6  503    0 -0.59810376559E+02 -0.25796967708E+03 -0.11072825260E+02  0.26504385090E+03  0.00000000000E+00 0. -1.
         -3    1    6    6    0  503  0.18548483918E+02 -0.76469394674E+02  0.33717164702E+02  0.85606435348E+02  0.00000000000E+00 0.  1.
<mgrwt>
<rscale>  0 0.11558500E+04</rscale>
<asrwt>0</asrwt>
<pdfrwt beam="1">  1        2 0.13784893E+00 0.11558500E+04</pdfrwt>
<pdfrwt beam="2">  1       -1 0.57347279E-01 0.11558500E+04</pdfrwt>
<totfact> 0.10258011E+02</totfact>
</mgrwt>
</event>
<event>
12    6  0.1395358E-007  0.2443107E+04  0.7818608E-02  0.8423539E-01
          2   -1    0    0  501    0  0.00000000000E+00  0.00000000000E+00  0.12944215944E+04  0.12944215944E+04  0.00000000000E+00 0. -1.
         -1   -1    0    0    0  501 -0.00000000000E+00 -0.00000000000E+00 -0.11527872215E+04  0.11527872215E+04  0.00000000000E+00 0.  1.
         24    2    1    2    0    0  0.59321591647E+03  0.37215704500E+03  0.85058272967E+03  0.11046570034E+04  0.79813064994E+02 0.  0.
        254    2    1    2    0    0 -0.59321591647E+03 -0.37215704500E+03 -0.70894835669E+03  0.13425518125E+04  0.89968417080E+03 0.  0.
         23    2    4    4    0    0 -0.62245936183E+03 -0.36048268888E+03 -0.88395906903E+03  0.11437400874E+04  0.96717763517E+02 0.  0.
         23    2    4    4    0    0  0.29243445367E+02 -0.11674356122E+02  0.17501071234E+03  0.19881172509E+03  0.88915031973E+02 0.  0.
          2    1    3    3  502    0  0.45513477427E+03  0.27326292689E+03  0.69303885768E+03  0.87299664846E+03  0.00000000000E+00 0. -1.
         -3    1    3    3    0  502  0.13808114220E+03  0.98894118114E+02  0.15754387199E+03  0.23166035489E+03  0.00000000000E+00 0.  1.
         11    1    5    5    0    0 -0.34308820462E+03 -0.25368775980E+03 -0.51942066216E+03  0.67220891091E+03  0.00000000000E+00 0. -1.
        -11    1    5    5    0    0 -0.27937115722E+03 -0.10679492908E+03 -0.36453840687E+03  0.47153117654E+03  0.00000000000E+00 0.  1.
          2    1    6    6  503    0 -0.21024742393E+02 -0.25377056630E+02  0.11356417961E+03  0.11824913398E+03  0.00000000000E+00 0. -1.
         -2    1    6    6    0  503  0.50268187760E+02  0.13702700508E+02  0.61446532730E+02  0.80562591111E+02  0.00000000000E+00 0.  1.
<mgrwt>
<rscale>  0 0.24431068E+04</rscale>
<asrwt>0</asrwt>
<pdfrwt beam="1">  1        2 0.19914178E+00 0.24431068E+04</pdfrwt>
<pdfrwt beam="2">  1       -1 0.17735188E+00 0.24431068E+04</pdfrwt>
<totfact> 0.36986684E+00</totfact>
</mgrwt>
</event>
<event>
12    6  0.1395358E-007  0.1874556E+04  0.7818608E-02  0.8667626E-01
         -1   -1    0    0    0  501 -0.00000000000E+00  0.00000000000E+00  0.81317241264E+03  0.81317241264E+03  0.00000000000E+00 0.  1.
          2   -1    0    0  501    0  0.00000000000E+00 -0.00000000000E+00 -0.10803249869E+04  0.10803249869E+04  0.00000000000E+00 0. -1.
         24    2    1    2    0    0  0.20044236017E+02 -0.43133837783E+03 -0.68312015176E+03  0.81202470569E+03  0.79223817955E+02 0.  0.
        254    2    1    2    0    0 -0.20044236017E+02  0.43133837783E+03  0.41596757747E+03  0.10814726939E+04  0.90005532857E+03 0.  0.
         23    2    4    4    0    0  0.19843293462E+03  0.60716489123E+03  0.44721825294E+03  0.78503502370E+03  0.90834949170E+02 0.  0.
         23    2    4    4    0    0 -0.21847717064E+03 -0.17582651340E+03 -0.31250675476E+02  0.29643767016E+03  0.90837495945E+02 0.  0.
          4    1    3    3  502    0  0.15619704883E+00 -0.30961293802E+03 -0.54535556345E+03  0.62711473143E+03  0.00000000000E+00 0. -1.
         -3    1    3    3    0  502  0.19888038969E+02 -0.12172543981E+03 -0.13776458830E+03  0.18490997426E+03  0.00000000000E+00 0.  1.
         11    1    5    5    0    0  0.22920560055E+02  0.14953900696E+02  0.22548336693E+02  0.35459818201E+02  0.00000000000E+00 0. -1.
        -11    1    5    5    0    0  0.17551237457E+03  0.59221099053E+03  0.42466991625E+03  0.74957520550E+03  0.00000000000E+00 0.  1.
          2    1    6    6  503    0 -0.86553056566E+01 -0.28073258281E+02 -0.26814139968E+02  0.39774618148E+02  0.00000000000E+00 0. -1.
         -2    1    6    6    0  503 -0.20982186498E+03 -0.14775325512E+03 -0.44365355074E+01  0.25666305202E+03  0.00000000000E+00 0.  1.
<mgrwt>
<rscale>  0 0.18745565E+04</rscale>
<asrwt>0</asrwt>
<pdfrwt beam="1">  1        2 0.16620384E+00 0.18745565E+04</pdfrwt>
<pdfrwt beam="2">  1       -1 0.12510345E+00 0.18745565E+04</pdfrwt>
<totfact> 0.13396143E+01</totfact>
</mgrwt>
</event>
<event>
12    6  0.1395358E-007  0.2737360E+04  0.7818608E-02  0.8322984E-01
          2   -1    0    0  501    0  0.00000000000E+00  0.00000000000E+00  0.24446846229E+04  0.24446846229E+04  0.00000000000E+00 0. -1.
         -1   -1    0    0    0  501 -0.00000000000E+00 -0.00000000000E+00 -0.76626869347E+03  0.76626869347E+03  0.00000000000E+00 0.  1.
         24    2    1    2    0    0  0.11640953314E+04 -0.25342186083E+03  0.10132335906E+04  0.15659829310E+04  0.79496231950E+02 0.  0.
        254    2    1    2    0    0 -0.11640953314E+04  0.25342186083E+03  0.66518233885E+03  0.16449703854E+04  0.91875973174E+03 0.  0.
         23    2    4    4    0    0 -0.10578028016E+04 -0.54273115602E+02  0.74341712204E+03  0.12978217311E+04  0.98893326685E+02 0.  0.
         23    2    4    4    0    0 -0.10629252981E+03  0.30769497644E+03 -0.78234783185E+02  0.34714865433E+03  0.91745334969E+02 0.  0.
          4    1    3    3  502    0  0.81204426046E+03 -0.17064905726E+03  0.75212352230E+03  0.11199226645E+04  0.00000000000E+00 0. -1.
         -3    1    3    3    0  502  0.35205107097E+03 -0.82772803575E+02  0.26111006830E+03  0.44606026650E+03  0.00000000000E+00 0.  1.
         11    1    5    5    0    0 -0.15381002611E+03  0.26961314810E+02  0.11115326392E+03  0.19167546715E+03  0.00000000000E+00 0.  1.
        -11    1    5    5    0    0 -0.90399277551E+03 -0.81234430412E+02  0.63226385811E+03  0.11061462639E+04  0.00000000000E+00 0. -1.
          1    1    6    6  503    0 -0.11295329201E+03  0.24307210493E+03 -0.37952304415E+02  0.27070809331E+03  0.00000000000E+00 0. -1.
         -1    1    6    6    0  503  0.66607621948E+01  0.64622871503E+02 -0.40282478769E+02  0.76440561027E+02  0.00000000000E+00 0.  1.
<mgrwt>
<rscale>  0 0.27373603E+04</rscale>
<asrwt>0</asrwt>
<pdfrwt beam="1">  1        2 0.37610532E+00 0.27373603E+04</pdfrwt>
<pdfrwt beam="2">  1       -1 0.11788749E+00 0.27373603E+04</pdfrwt>
<totfact> 0.24086806E+00</totfact>
</mgrwt>
</event>
<event>
12    6  0.1395358E-007  0.1142393E+04  0.7818608E-02  0.9164830E-01
         -1   -1    0    0    0  501 -0.00000000000E+00  0.00000000000E+00  0.53246245475E+03  0.53246245475E+03  0.00000000000E+00 0.  1.
          2   -1    0    0  501    0  0.00000000000E+00 -0.00000000000E+00 -0.61274784589E+03  0.61274784589E+03  0.00000000000E+00 0. -1.
         24    2    1    2    0    0 -0.15532529771E+03 -0.61733447172E+02  0.10255472842E+03  0.21180277644E+03  0.80037348627E+02 0.  0.
        254    2    1    2    0    0  0.15532529771E+03  0.61733447172E+02 -0.18284011956E+03  0.93340752421E+03  0.89993451446E+03 0.  0.
         23    2    4    4    0    0 -0.25300120448E+03 -0.25955139296E+03  0.58939071398E+01  0.37338240903E+03  0.89460327397E+02 0.  0.
         23    2    4    4    0    0  0.40832650220E+03  0.32128484013E+03 -0.18873402670E+03  0.56002511517E+03  0.89739154764E+02 0.  0.
          2    1    3    3  502    0 -0.51477992242E+02  0.59575957692E+01  0.14552451986E+01  0.51842013572E+02  0.00000000000E+00 0. -1.
         -1    1    3    3    0  502 -0.10384730547E+03 -0.67691042941E+02  0.10109948322E+03  0.15996076286E+03  0.00000000000E+00 0.  1.
         11    1    5    5    0    0 -0.25152476663E+03 -0.24396961141E+03 -0.10700245611E+02  0.35057149738E+03  0.00000000000E+00 0.  1.
        -11    1    5    5    0    0 -0.14764378543E+01 -0.15581781547E+02  0.16594152751E+02  0.22810911653E+02  0.00000000000E+00 0. -1.
          1    1    6    6  503    0  0.12897793792E+03  0.10912794762E+03 -0.18014447010E+02  0.16990802725E+03  0.00000000000E+00 0. -1.
         -1    1    6    6    0  503  0.27934856428E+03  0.21215689251E+03 -0.17071957969E+03  0.39011708793E+03  0.00000000000E+00 0.  1.
<mgrwt>
<rscale>  0 0.11423926E+04</rscale>
<asrwt>0</asrwt>
<pdfrwt beam="1">  1        2 0.94268899E-01 0.11423926E+04</pdfrwt>
<pdfrwt beam="2">  1       -1 0.81917301E-01 0.11423926E+04</pdfrwt>
<totfact> 0.81170041E+01</totfact>
</mgrwt>
</event>
<event>
12    6  0.1395358E-007  0.1799262E+04  0.7818608E-02  0.8706692E-01
         -1   -1    0    0    0  501 -0.00000000000E+00  0.00000000000E+00  0.25270910147E+03  0.25270910147E+03  0.00000000000E+00 0.  1.
          2   -1    0    0  501    0  0.00000000000E+00 -0.00000000000E+00 -0.32026400554E+04  0.32026400554E+04  0.00000000000E+00 0. -1.
         24    2    1    2    0    0  0.92556981901E+02  0.55957547949E+03 -0.41779117704E+03  0.70901811739E+03  0.80409645137E+02 0.  0.
        254    2    1    2    0    0 -0.92556981901E+02 -0.55957547949E+03 -0.25321397769E+04  0.27463310395E+04  0.89939469453E+03 0.  0.
         23    2    4    4    0    0 -0.23282270056E+03 -0.55854995777E+03 -0.25035557405E+04  0.25773532294E+04  0.93668873481E+02 0.  0.
         23    2    4    4    0    0  0.14026571866E+03 -0.10255217151E+01 -0.28584036375E+02  0.16897781011E+03  0.89782680106E+02 0.  0.
          2    1    3    3  502    0  0.62457897768E+02  0.40307192762E+03 -0.34317011713E+03  0.53304192811E+03  0.00000000000E+00 0. -1.
         -1    1    3    3    0  502  0.30099084132E+02  0.15650355186E+03 -0.74621059917E+02  0.17597618928E+03  0.00000000000E+00 0.  1.
         11    1    5    5    0    0 -0.14091622777E+03 -0.33778363162E+03 -0.17009222910E+04  0.17398539609E+04  0.00000000000E+00 0.  1.
        -11    1    5    5    0    0 -0.91906472791E+02 -0.22076632615E+03 -0.80263344948E+03  0.83749926849E+03  0.00000000000E+00 0. -1.
          4    1    6    6  503    0  0.71156545708E+01 -0.28521552199E+02 -0.12951976827E+02  0.32122658413E+02  0.00000000000E+00 0.  1.
         -4    1    6    6    0  503  0.13315006409E+03  0.27496030484E+02 -0.15632059548E+02  0.13685515169E+03  0.00000000000E+00 0. -1.
<mgrwt>
<rscale>  0 0.17992624E+04</rscale>
<asrwt>0</asrwt>
<pdfrwt beam="1">  1        2 0.49271383E+00 0.17992624E+04</pdfrwt>
<pdfrwt beam="2">  1       -1 0.38878325E-01 0.17992624E+04</pdfrwt>
<totfact> 0.89560122E+00</totfact>
</mgrwt>
</event>
<event>
12    6  0.1395358E-007  0.1279367E+04  0.7818608E-02  0.9046090E-01
          2   -1    0    0  501    0  0.00000000000E+00  0.00000000000E+00  0.10960621212E+04  0.10960621212E+04  0.00000000000E+00 0. -1.
         -1   -1    0    0    0  501 -0.00000000000E+00 -0.00000000000E+00 -0.37333166425E+03  0.37333166425E+03  0.00000000000E+00 0.  1.
         24    2    1    2    0    0 -0.59736406844E+02  0.56094827229E+02 -0.16595703906E+03  0.20198012898E+03  0.80865108339E+02 0.  0.
        254    2    1    2    0    0  0.59736406844E+02 -0.56094827229E+02  0.88868749604E+03  0.12674136565E+04  0.89992046487E+03 0.  0.
         23    2    4    4    0    0  0.98933570595E+02  0.30868188557E+03  0.81442657481E+03  0.88132104460E+03  0.91453704316E+02 0.  0.
         23    2    4    4    0    0 -0.39197163751E+02 -0.36477671279E+03  0.74260921237E+02  0.38609261189E+03  0.94627441540E+02 0.  0.
          4    1    3    3  502    0 -0.57513842222E+02  0.49936452428E+02 -0.63085098255E+02  0.98900055359E+02  0.00000000000E+00 0. -1.
         -3    1    3    3    0  502 -0.22225646222E+01  0.61583748009E+01 -0.10287194080E+03  0.10308007362E+03  0.00000000000E+00 0.  1.
         11    1    5    5    0    0 -0.29666705529E+01  0.33417337468E+02  0.35110868360E+02  0.48562255452E+02  0.00000000000E+00 0.  1.
        -11    1    5    5    0    0  0.10190024115E+03  0.27526454810E+03  0.77931570645E+03  0.83275878915E+03  0.00000000000E+00 0. -1.
          2    1    6    6  503    0 -0.36558260023E+02 -0.23724753415E+03  0.92471376893E+02  0.25724279267E+03  0.00000000000E+00 0.  1.
         -2    1    6    6    0  503 -0.26389037283E+01 -0.12752917865E+03 -0.18210455656E+02  0.12884981923E+03  0.00000000000E+00 0. -1.
<mgrwt>
<rscale>  0 0.12793666E+04</rscale>
<asrwt>0</asrwt>
<pdfrwt beam="1">  1        2 0.16862494E+00 0.12793666E+04</pdfrwt>
<pdfrwt beam="2">  1       -1 0.57435641E-01 0.12793666E+04</pdfrwt>
<totfact> 0.75285338E+01</totfact>
</mgrwt>
</event>
<event>
12    6  0.1395358E-007  0.1804916E+04  0.7818608E-02  0.8703689E-01
         -1   -1    0    0    0  501 -0.00000000000E+00  0.00000000000E+00  0.12187019065E+04  0.12187019065E+04  0.00000000000E+00 0.  1.
          2   -1    0    0  501    0  0.00000000000E+00 -0.00000000000E+00 -0.66827709982E+03  0.66827709982E+03  0.00000000000E+00 0. -1.
         24    2    1    2    0    0 -0.40649831281E+03  0.19143855060E+03  0.73784924455E+03  0.86752520057E+03  0.79302389410E+02 0.  0.
        254    2    1    2    0    0  0.40649831281E+03 -0.19143855060E+03 -0.18742443789E+03  0.10194538057E+04  0.89569444853E+03 0.  0.
         23    2    4    4    0    0  0.21300691240E+02 -0.44221938474E+03  0.10784794590E+03  0.46543147554E+03  0.94781724519E+02 0.  0.
         23    2    4    4    0    0  0.38519762157E+03  0.25078083413E+03 -0.29527238379E+03  0.55402233019E+03  0.92123435093E+02 0.  0.
          2    1    3    3  502    0 -0.30432093265E+03  0.17965515510E+03  0.57465895933E+03  0.67462591437E+03  0.00000000000E+00 0. -1.
         -1    1    3    3    0  502 -0.10217738016E+03  0.11783395505E+02  0.16319028522E+03  0.19289928620E+03  0.00000000000E+00 0.  1.
         11    1    5    5    0    0  0.53817571407E+02 -0.36050188928E+03  0.93740238475E+02  0.37635777590E+03  0.00000000000E+00 0. -1.
        -11    1    5    5    0    0 -0.32516880167E+02 -0.81717495454E+02  0.14107707424E+02  0.89073699641E+02  0.00000000000E+00 0.  1.
          4    1    6    6  503    0  0.16172437939E+03  0.56518212964E+02 -0.88129213994E+02  0.19265472132E+03  0.00000000000E+00 0.  1.
         -4    1    6    6    0  503  0.22347324218E+03  0.19426262117E+03 -0.20714316979E+03  0.36136760888E+03  0.00000000000E+00 0. -1.
<mgrwt>
<rscale>  0 0.18049161E+04</rscale>
<asrwt>0</asrwt>
<pdfrwt beam="1">  1        2 0.10281186E+00 0.18049161E+04</pdfrwt>
<pdfrwt beam="2">  1       -1 0.18749260E+00 0.18049161E+04</pdfrwt>
<totfact> 0.86136755E+00</totfact>
</mgrwt>
</event>
<event>
12    6  0.1395358E-007  0.1317189E+04  0.7818608E-02  0.9016044E-01
          2   -1    0    0  501    0  0.00000000000E+00  0.00000000000E+00  0.18939579069E+04  0.18939579069E+04  0.00000000000E+00 0. -1.
         -1   -1    0    0    0  501 -0.00000000000E+00 -0.00000000000E+00 -0.22901592770E+03  0.22901592770E+03  0.00000000000E+00 0.  1.
         24    2    1    2    0    0  0.74500746160E+02 -0.15503381059E+03 -0.31417312523E+02  0.19488499324E+03  0.86065495178E+02 0.  0.
        254    2    1    2    0    0 -0.74500746160E+02  0.15503381059E+03  0.16963592918E+04  0.19280888414E+04  0.90016992283E+03 0.  0.
         23    2    4    4    0    0  0.16783673045E+03 -0.25704982190E+03  0.11617766440E+04  0.12052213598E+04  0.92681047612E+02 0.  0.
         23    2    4    4    0    0 -0.24233747661E+03  0.41208363249E+03  0.53458264781E+03  0.72286748163E+03  0.90655479259E+02 0.  0.
          4    1    3    3  502    0 -0.16368907474E+01  0.44907817906E+01  0.11958303924E+02  0.12878181748E+02  0.00000000000E+00 0. -1.
         -3    1    3    3    0  502  0.76137636908E+02 -0.15952459238E+03 -0.43375616447E+02  0.18200681149E+03  0.00000000000E+00 0.  1.
         11    1    5    5    0    0  0.92606159988E+02 -0.20085122730E+03  0.91032643564E+03  0.93680912452E+03  0.00000000000E+00 0. -1.
        -11    1    5    5    0    0  0.75230570462E+02 -0.56198594604E+02  0.25145020832E+03  0.26841223525E+03  0.00000000000E+00 0.  1.
          2    1    6    6  503    0 -0.10391929942E+03  0.26248452631E+03  0.29487867050E+03  0.40822883002E+03  0.00000000000E+00 0. -1.
         -2    1    6    6    0  503 -0.13841817719E+03  0.14959910617E+03  0.23970397731E+03  0.31463865160E+03  0.00000000000E+00 0.  1.
<mgrwt>
<rscale>  0 0.13171887E+04</rscale>
<asrwt>0</asrwt>
<pdfrwt beam="1">  1        2 0.29137813E+00 0.13171887E+04</pdfrwt>
<pdfrwt beam="2">  1       -1 0.35233221E-01 0.13171887E+04</pdfrwt>
<totfact> 0.65466546E+01</totfact>
</mgrwt>
</event>
<event>
12    6  0.1395358E-007  0.2077827E+04  0.7818608E-02  0.8571074E-01
          2   -1    0    0  501    0  0.00000000000E+00  0.00000000000E+00  0.16434943664E+04  0.16434943664E+04  0.00000000000E+00 0. -1.
         -1   -1    0    0    0  501 -0.00000000000E+00 -0.00000000000E+00 -0.65673532230E+03  0.65673532230E+03  0.00000000000E+00 0.  1.
         24    2    1    2    0    0  0.78707754961E+03  0.29961225530E+03  0.40260114101E+03  0.93692504010E+03  0.80512603967E+02 0.  0.
        254    2    1    2    0    0 -0.78707754961E+03 -0.29961225530E+03  0.58415790305E+03  0.13633046486E+04  0.89894412310E+03 0.  0.
         23    2    4    4    0    0  0.95035562816E+02  0.14424750352E+03 -0.30355171510E+02  0.19674705091E+03  0.89156408253E+02 0.  0.
         23    2    4    4    0    0 -0.88211311243E+03 -0.44385975883E+03  0.61451307456E+03  0.11665575976E+04  0.89973780659E+02 0.  0.
          2    1    3    3  502    0  0.27763461267E+03  0.11744694534E+03  0.18551934343E+03  0.35396636833E+03  0.00000000000E+00 0. -1.
         -1    1    3    3    0  502  0.50944293695E+03  0.18216530996E+03  0.21708179758E+03  0.58295867178E+03  0.00000000000E+00 0.  1.
         11    1    5    5    0    0  0.22066805051E+02  0.71098841512E+02 -0.52481122361E+02  0.91083793036E+02  0.00000000000E+00 0. -1.
        -11    1    5    5    0    0  0.72968757765E+02  0.73148662012E+02  0.22125950851E+02  0.10566325788E+03  0.00000000000E+00 0.  1.
          1    1    6    6  503    0 -0.82995448920E+03 -0.42841103674E+03  0.60048509658E+03  0.11103795845E+04  0.00000000000E+00 0. -1.
         -1    1    6    6    0  503 -0.52158623225E+02 -0.15448722088E+02  0.14027977983E+02  0.56178013112E+02  0.00000000000E+00 0.  1.
<mgrwt>
<rscale>  0 0.20778266E+04</rscale>
<asrwt>0</asrwt>
<pdfrwt beam="1">  1        2 0.25284528E+00 0.20778266E+04</pdfrwt>
<pdfrwt beam="2">  1       -1 0.10103620E+00 0.20778266E+04</pdfrwt>
<totfact> 0.10320654E+01</totfact>
</mgrwt>
</event>
<event>
12    6  0.1395358E-007  0.3327419E+04  0.7818608E-02  0.8155953E-01
         -1   -1    0    0    0  501 -0.00000000000E+00  0.00000000000E+00  0.90255289058E+03  0.90255289058E+03  0.00000000000E+00 0.  1.
          2   -1    0    0  501    0  0.00000000000E+00 -0.00000000000E+00 -0.30667788393E+04  0.30667788393E+04  0.00000000000E+00 0. -1.
         24    2    1    2    0    0  0.12630352387E+04 -0.76137682853E+03 -0.15367028614E+04  0.21313453564E+04  0.78896483242E+02 0.  0.
        254    2    1    2    0    0 -0.12630352387E+04  0.76137682853E+03 -0.62752308740E+03  0.18379863735E+04  0.89969772403E+03 0.  0.
         23    2    4    4    0    0 -0.92708333481E+03  0.95019334980E+03 -0.46830493104E+03  0.14107921465E+04  0.93134636771E+02 0.  0.
         23    2    4    4    0    0 -0.33595190390E+03 -0.18881652127E+03 -0.15921815636E+03  0.42719422695E+03  0.92893087945E+02 0.  0.
          4    1    3    3  502    0  0.68569627300E+03 -0.45074246308E+03 -0.88676485362E+03  0.12081804718E+04  0.00000000000E+00 0. -1.
         -3    1    3    3    0  502  0.57733896571E+03 -0.31063436545E+03 -0.64993800774E+03  0.92316488463E+03  0.00000000000E+00 0.  1.
         11    1    5    5    0    0 -0.75090021566E+03  0.80991731562E+03 -0.41062572174E+03  0.11783168824E+04  0.00000000000E+00 0. -1.
        -11    1    5    5    0    0 -0.17618311915E+03  0.14027603418E+03 -0.57679209303E+02  0.23247526411E+03  0.00000000000E+00 0.  1.
          4    1    6    6  503    0 -0.28472600986E+03 -0.18491515222E+03 -0.11223027402E+03  0.35757257811E+03  0.00000000000E+00 0. -1.
         -4    1    6    6    0  503 -0.51225894034E+02 -0.39013690546E+01 -0.46987882338E+02  0.69621648836E+02  0.00000000000E+00 0.  1.
<mgrwt>
<rscale>  0 0.33274195E+04</rscale>
<asrwt>0</asrwt>
<pdfrwt beam="1">  1        2 0.47181214E+00 0.33274195E+04</pdfrwt>
<pdfrwt beam="2">  1       -1 0.13885429E+00 0.33274195E+04</pdfrwt>
<totfact> 0.63990098E-01</totfact>
</mgrwt>
</event>
<event>
12    6  0.1395358E-007  0.4203098E+04  0.7818608E-02  0.7964783E-01
         -1   -1    0    0    0  501 -0.00000000000E+00  0.00000000000E+00  0.14227812112E+04  0.14227812112E+04  0.00000000000E+00 0.  1.
          2   -1    0    0  501    0  0.00000000000E+00 -0.00000000000E+00 -0.31041366629E+04  0.31041366629E+04  0.00000000000E+00 0. -1.
         24    2    1    2    0    0  0.19509281325E+04  0.20726889939E+03 -0.12435487288E+04  0.23241932091E+04  0.79872756341E+02 0.  0.
        254    2    1    2    0    0 -0.19509281325E+04 -0.20726889939E+03 -0.43780672282E+03  0.22027246650E+04  0.90068876344E+03 0.  0.
         23    2    4    4    0    0  0.54567095505E+02 -0.91697682069E+02 -0.76202599455E+02  0.15959359682E+03  0.90979377744E+02 0.  0.
         23    2    4    4    0    0 -0.20054952280E+04 -0.11557121732E+03 -0.36160412336E+03  0.20431310682E+04  0.90880163067E+02 0.  0.
          2    1    3    3  502    0  0.13796439719E+04  0.13281804058E+03 -0.91795998645E+03  0.16624405727E+04  0.00000000000E+00 0. -1.
         -1    1    3    3    0  502  0.57128416060E+03  0.74450858808E+02 -0.32558874237E+03  0.66175263633E+03  0.00000000000E+00 0.  1.
         11    1    5    5    0    0  0.25940004594E+02 -0.41673558294E+02  0.15330828955E+02  0.51425709675E+02  0.00000000000E+00 0.  1.
        -11    1    5    5    0    0  0.28627090911E+02 -0.50024123775E+02 -0.91533428410E+02  0.10816788715E+03  0.00000000000E+00 0. -1.
          4    1    6    6  503    0 -0.40133868277E+03 -0.53905395898E+02 -0.92809251067E+02  0.41544203817E+03  0.00000000000E+00 0.  1.
         -4    1    6    6    0  503 -0.16041565452E+04 -0.61665821424E+02 -0.26879487230E+03  0.16276890300E+04  0.00000000000E+00 0. -1.
<mgrwt>
<rscale>  0 0.42030976E+04</rscale>
<asrwt>0</asrwt>
<pdfrwt beam="1">  1        2 0.47755948E+00 0.42030976E+04</pdfrwt>
<pdfrwt beam="2">  1       -1 0.21888942E+00 0.42030976E+04</pdfrwt>
<totfact> 0.14746205E-01</totfact>
</mgrwt>
</event>
<event>
12    6  0.1395358E-007  0.2397405E+04  0.7818608E-02  0.8440476E-01
         -1   -1    0    0    0  501 -0.00000000000E+00  0.00000000000E+00  0.34614302190E+03  0.34614302190E+03  0.00000000000E+00 0.  1.
          2   -1    0    0  501    0  0.00000000000E+00 -0.00000000000E+00 -0.41511398532E+04  0.41511398532E+04  0.00000000000E+00 0. -1.
         24    2    1    2    0    0  0.86844412167E+03 -0.54141031955E+03 -0.14968996396E+04  0.18150159388E+04  0.79082237806E+02 0.  0.
        254    2    1    2    0    0 -0.86844412167E+03  0.54141031955E+03 -0.23080971917E+04  0.26822669363E+04  0.90549596624E+03 0.  0.
         23    2    4    4    0    0 -0.85398823858E+03  0.49826931279E+02 -0.13332971755E+04  0.15866775709E+04  0.89920638386E+02 0.  0.
         23    2    4    4    0    0 -0.14455883085E+02  0.49158338828E+03 -0.97480001624E+03  0.10955893654E+04  0.90652003912E+02 0.  0.
          4    1    3    3  502    0  0.10044545225E+03 -0.79117459062E+02 -0.22836024838E+03  0.26171982012E+03  0.00000000000E+00 0. -1.
         -3    1    3    3    0  502  0.76799866941E+03 -0.46229286049E+03 -0.12685393913E+04  0.15532961187E+04  0.00000000000E+00 0.  1.
         11    1    5    5    0    0 -0.66257409154E+03  0.40692373694E+02 -0.10998330861E+04  0.12846373470E+04  0.00000000000E+00 0. -1.
        -11    1    5    5    0    0 -0.19141414704E+03  0.91345575851E+01 -0.23346408938E+03  0.30204022391E+03  0.00000000000E+00 0.  1.
          2    1    6    6  503    0  0.81112872068E+01  0.20669588739E+03 -0.31862321803E+03  0.37988121553E+03  0.00000000000E+00 0. -1.
         -2    1    6    6    0  503 -0.22567170292E+02  0.28488750089E+03 -0.65617679821E+03  0.71570814991E+03  0.00000000000E+00 0.  1.
<mgrwt>
<rscale>  0 0.23974053E+04</rscale>
<asrwt>0</asrwt>
<pdfrwt beam="1">  1        2 0.63863691E+00 0.23974053E+04</pdfrwt>
<pdfrwt beam="2">  1       -1 0.53252772E-01 0.23974053E+04</pdfrwt>
<totfact> 0.93735998E-01</totfact>
</mgrwt>
</event>
<event>
12    6  0.1395358E-007  0.4876917E+04  0.7818608E-02  0.7847780E-01
          2   -1    0    0  501    0  0.00000000000E+00  0.00000000000E+00  0.20346702594E+04  0.20346702594E+04  0.00000000000E+00 0. -1.
         -1   -1    0    0    0  501 -0.00000000000E+00 -0.00000000000E+00 -0.29223799049E+04  0.29223799049E+04  0.00000000000E+00 0.  1.
         24    2    1    2    0    0 -0.20305988393E+04  0.97066609922E+03 -0.11366629591E+04  0.25226723541E+04  0.79679366014E+02 0.  0.
        254    2    1    2    0    0  0.20305988393E+04 -0.97066609922E+03  0.24895331368E+03  0.24343778102E+04  0.89369639600E+03 0.  0.
         23    2    4    4    0    0  0.51617518945E+03 -0.69768203516E+03  0.18264271947E+03  0.89148852362E+03  0.90533841126E+02 0.  0.
         23    2    4    4    0    0  0.15144236498E+04 -0.27298406406E+03  0.66310594202E+02  0.15428892866E+04  0.90060898223E+02 0.  0.
          2    1    3    3  502    0 -0.91071489699E+03  0.46697968044E+03 -0.54760916986E+03  0.11607529662E+04  0.00000000000E+00 0. -1.
         -1    1    3    3    0  502 -0.11198839423E+04  0.50368641878E+03 -0.58905378927E+03  0.13619193880E+04  0.00000000000E+00 0.  1.
         11    1    5    5    0    0  0.18401263498E+03 -0.27729282300E+03  0.11166555145E+03  0.35102870951E+03  0.00000000000E+00 0. -1.
        -11    1    5    5    0    0  0.33216255448E+03 -0.42038921215E+03  0.70977168027E+02  0.54045981411E+03  0.00000000000E+00 0.  1.
          3    1    6    6  503    0  0.14847651545E+04 -0.28005795730E+03  0.63737534343E+02  0.15122904803E+04  0.00000000000E+00 0. -1.
         -3    1    6    6    0  503  0.29658495350E+02  0.70738932384E+01  0.25730598595E+01  0.30598806333E+02  0.00000000000E+00 0.  1.
<mgrwt>
<rscale>  0 0.48769168E+04</rscale>
<asrwt>0</asrwt>
<pdfrwt beam="1">  1        2 0.31302620E+00 0.48769168E+04</pdfrwt>
<pdfrwt beam="2">  1       -1 0.44959691E+00 0.48769168E+04</pdfrwt>
<totfact> 0.17458130E-02</totfact>
</mgrwt>
</event>
<event>
12    6  0.1395358E-007  0.2616228E+04  0.7818608E-02  0.8362710E-01
          2   -1    0    0  501    0  0.00000000000E+00  0.00000000000E+00  0.14813209992E+04  0.14813209992E+04  0.00000000000E+00 0. -1.
         -1   -1    0    0    0  501 -0.00000000000E+00 -0.00000000000E+00 -0.11551592924E+04  0.11551592924E+04  0.00000000000E+00 0.  1.
         24    2    1    2    0    0  0.52096981667E+03  0.10226839137E+04  0.24009612642E+03  0.11753198880E+04  0.80241834681E+02 0.  0.
        254    2    1    2    0    0 -0.52096981667E+03 -0.10226839137E+04  0.86065580387E+02  0.14611604036E+04  0.90016137652E+03 0.  0.
         23    2    4    4    0    0  0.13113442940E+03 -0.14983543679E+03  0.27520450550E+03  0.35159325793E+03  0.90738098275E+02 0.  0.
         23    2    4    4    0    0 -0.65210424607E+03 -0.87284847689E+03 -0.18913892512E+03  0.11095671457E+04  0.90891729200E+02 0.  0.
          2    1    3    3  502    0  0.18508796691E+03  0.31573417726E+03  0.10781530923E+03  0.38153606263E+03  0.00000000000E+00 0. -1.
         -1    1    3    3    0  502  0.33588184976E+03  0.70694973642E+03  0.13228081718E+03  0.79378382536E+03  0.00000000000E+00 0.  1.
         11    1    5    5    0    0  0.32384938762E+02 -0.65459271772E+02  0.16796673023E+03  0.18315709919E+03  0.00000000000E+00 0. -1.
        -11    1    5    5    0    0  0.98749490636E+02 -0.84376165016E+02  0.10723777527E+03  0.16843615873E+03  0.00000000000E+00 0.  1.
          3    1    6    6  503    0 -0.45740308901E+03 -0.66017090929E+03 -0.11062947832E+03  0.81072936100E+03  0.00000000000E+00 0. -1.
         -3    1    6    6    0  503 -0.19470115706E+03 -0.21267756759E+03 -0.78509446795E+02  0.29883778468E+03  0.00000000000E+00 0.  1.
<mgrwt>
<rscale>  0 0.26162276E+04</rscale>
<asrwt>0</asrwt>
<pdfrwt beam="1">  1        2 0.22789554E+00 0.26162276E+04</pdfrwt>
<pdfrwt beam="2">  1       -1 0.17771681E+00 0.26162276E+04</pdfrwt>
<totfact> 0.28287068E+00</totfact>
</mgrwt>
</event>
<event>
12    6  0.1395358E-007  0.1678852E+04  0.7818608E-02  0.8773519E-01
         -1   -1    0    0    0  501 -0.00000000000E+00  0.00000000000E+00  0.77879798301E+03  0.77879798301E+03  0.00000000000E+00 0.  1.
          2   -1    0    0  501    0  0.00000000000E+00 -0.00000000000E+00 -0.90477383013E+03  0.90477383013E+03  0.00000000000E+00 0. -1.
         24    2    1    2    0    0 -0.50622877111E+03 -0.27303450282E+03 -0.19456654130E+03  0.61229505376E+03  0.78953691720E+02 0.  0.
        254    2    1    2    0    0  0.50622877111E+03  0.27303450282E+03  0.68590694166E+02  0.10712767594E+04  0.90117357009E+03 0.  0.
         23    2    4    4    0    0  0.15672633406E+03  0.53504244468E+03  0.21088577508E+03  0.60298682746E+03  0.91031547027E+02 0.  0.
         23    2    4    4    0    0  0.34950243706E+03 -0.26200794186E+03 -0.14229508092E+03  0.46828993192E+03  0.90815500771E+02 0.  0.
          4    1    3    3  502    0 -0.27906676340E+03 -0.15796761011E+03 -0.14902999024E+03  0.35361272922E+03  0.00000000000E+00 0. -1.
         -3    1    3    3    0  502 -0.22716200771E+03 -0.11506689271E+03 -0.45536551057E+02  0.25868232454E+03  0.00000000000E+00 0.  1.
         11    1    5    5    0    0  0.80031716439E+02  0.27552476865E+03  0.59886796152E+02  0.29309623356E+03  0.00000000000E+00 0. -1.
        -11    1    5    5    0    0  0.76694617617E+02  0.25951767604E+03  0.15099897893E+03  0.30989059390E+03  0.00000000000E+00 0.  1.
          3    1    6    6  503    0  0.71307655516E+02 -0.87577612869E+02 -0.70037639249E+01  0.11315331511E+03  0.00000000000E+00 0. -1.
         -3    1    6    6    0  503  0.27819478154E+03 -0.17443032899E+03 -0.13529131699E+03  0.35513661682E+03  0.00000000000E+00 0.  1.
<mgrwt>
<rscale>  0 0.16788520E+04</rscale>
<asrwt>0</asrwt>
<pdfrwt beam="1">  1        2 0.13919597E+00 0.16788520E+04</pdfrwt>
<pdfrwt beam="2">  1       -1 0.11981507E+00 0.16788520E+04</pdfrwt>
<totfact> 0.19676892E+01</totfact>
</mgrwt>
</event>
<event>
12    6  0.1395358E-007  0.2092079E+04  0.7818608E-02  0.8564741E-01
          2   -1    0    0  501    0  0.00000000000E+00  0.00000000000E+00  0.30811704745E+04  0.30811704745E+04  0.00000000000E+00 0. -1.
         -1   -1    0    0    0  501 -0.00000000000E+00 -0.00000000000E+00 -0.35512430445E+03  0.35512430445E+03  0.00000000000E+00 0.  1.
         24    2    1    2    0    0 -0.31874142093E+03  0.20504047101E+03 -0.13734985175E+03  0.41122020471E+03  0.81236610061E+02 0.  0.
        254    2    1    2    0    0  0.31874142093E+03 -0.20504047101E+03  0.28633960218E+04  0.30250745742E+04  0.89911162484E+03 0.  0.
         23    2    4    4    0    0 -0.93724698514E+02 -0.35859071640E+03  0.56290654652E+03  0.68111594315E+03  0.98404912955E+02 0.  0.
         23    2    4    4    0    0  0.41246611945E+03  0.15355024539E+03  0.23004894753E+04  0.23439586311E+04  0.90466904956E+02 0.  0.
          2    1    3    3  502    0 -0.10076357575E+03  0.81351655147E+02 -0.94580488353E+01  0.12984931529E+03  0.00000000000E+00 0. -1.
         -1    1    3    3    0  502 -0.21797784518E+03  0.12368881586E+03 -0.12789180292E+03  0.28137088942E+03  0.00000000000E+00 0.  1.
         11    1    5    5    0    0 -0.11420062279E+03 -0.29054375801E+03  0.44904536833E+03  0.54689962551E+03  0.00000000000E+00 0. -1.
        -11    1    5    5    0    0  0.20475924276E+02 -0.68046958392E+02  0.11386117820E+03  0.13421631764E+03  0.00000000000E+00 0.  1.
          4    1    6    6  503    0 -0.43061339426E+01  0.48714286936E+01  0.45639542162E+02  0.46100340735E+02  0.00000000000E+00 0.  1.
         -4    1    6    6    0  503  0.41677225339E+03  0.14867881670E+03  0.22548499331E+04  0.22978582904E+04  0.00000000000E+00 0. -1.
<mgrwt>
<rscale>  0 0.20920789E+04</rscale>
<asrwt>0</asrwt>
<pdfrwt beam="1">  1        2 0.47402621E+00 0.20920789E+04</pdfrwt>
<pdfrwt beam="2">  1       -1 0.54634511E-01 0.20920789E+04</pdfrwt>
<totfact> 0.55073554E+00</totfact>
</mgrwt>
</event>
<event>
12    6  0.1395358E-007  0.1994524E+04  0.7818608E-02  0.8609185E-01
         -3   -1    0    0    0  501 -0.00000000000E+00  0.00000000000E+00  0.12479043371E+04  0.12479043371E+04  0.00000000000E+00 0.  1.
          2   -1    0    0  501    0  0.00000000000E+00 -0.00000000000E+00 -0.79696123417E+03  0.79696123417E+03  0.00000000000E+00 0. -1.
         24    2    1    2    0    0 -0.11587940565E+03  0.70549810403E+03  0.52872940079E+03  0.89275077209E+03  0.79331900117E+02 0.  0.
        254    2    1    2    0    0  0.11587940565E+03 -0.70549810403E+03 -0.77786297840E+02  0.11521147992E+04  0.90009010159E+03 0.  0.
         23    2    4    4    0    0  0.37631336993E+03 -0.16053403659E+03  0.21963638766E+03  0.47261025934E+03  0.87962407638E+02 0.  0.
         23    2    4    4    0    0 -0.26043396428E+03 -0.54496406744E+03 -0.29742268550E+03  0.67950453986E+03  0.91948253343E+02 0.  0.
          4    1    3    3  502    0 -0.98091418086E+02  0.61369238210E+03  0.42395926273E+03  0.75231756766E+03  0.00000000000E+00 0. -1.
         -3    1    3    3    0  502 -0.17787987560E+02  0.91805721928E+02  0.10477013805E+03  0.14043320443E+03  0.00000000000E+00 0.  1.
         11    1    5    5    0    0  0.80298189852E+02 -0.21329695230E+00  0.26818255864E+02  0.84658511897E+02  0.00000000000E+00 0. -1.
        -11    1    5    5    0    0  0.29601518008E+03 -0.16032073964E+03  0.19281813180E+03  0.38795174744E+03  0.00000000000E+00 0.  1.
          4    1    6    6  503    0  0.15607522288E+01 -0.60695302564E+01  0.52659816077E+01  0.81857013960E+01  0.00000000000E+00 0. -1.
         -4    1    6    6    0  503 -0.26199471651E+03 -0.53889453718E+03 -0.30268866711E+03  0.67131883847E+03  0.00000000000E+00 0.  1.
<mgrwt>
<rscale>  0 0.19945239E+04</rscale>
<asrwt>0</asrwt>
<pdfrwt beam="1">  1        2 0.12260942E+00 0.19945239E+04</pdfrwt>
<pdfrwt beam="2">  1       -3 0.19198528E+00 0.19945239E+04</pdfrwt>
<totfact> 0.33332539E+00</totfact>
</mgrwt>
</event>
<event>
12    6  0.1395358E-007  0.1691350E+04  0.7818608E-02  0.8766313E-01
          2   -1    0    0  501    0  0.00000000000E+00  0.00000000000E+00  0.10633626412E+04  0.10633626412E+04  0.00000000000E+00 0. -1.
         -1   -1    0    0    0  501 -0.00000000000E+00 -0.00000000000E+00 -0.67255129057E+03  0.67255129057E+03  0.00000000000E+00 0.  1.
         24    2    1    2    0    0  0.42391298376E+02  0.51463419607E+03  0.46199790214E+03  0.69689453534E+03  0.74662935017E+02 0.  0.
        254    2    1    2    0    0 -0.42391298376E+02 -0.51463419607E+03 -0.71186551525E+02  0.10390193964E+04  0.89880387351E+03 0.  0.
         23    2    4    4    0    0 -0.23245263616E+03 -0.19108897978E+03  0.34748084199E+03  0.46941314189E+03  0.95165834076E+02 0.  0.
         23    2    4    4    0    0  0.19006133779E+03 -0.32354521629E+03 -0.41866739351E+03  0.56960625451E+03  0.91455342592E+02 0.  0.
          4    1    3    3  502    0  0.20447911898E+02  0.47611438588E+03  0.43326055079E+03  0.64406345216E+03  0.00000000000E+00 0. -1.
         -3    1    3    3    0  502  0.21943386477E+02  0.38519810191E+02  0.28737351353E+02  0.52831083181E+02  0.00000000000E+00 0.  1.
         11    1    5    5    0    0 -0.23961042074E+03 -0.19324869770E+03  0.33579058619E+03  0.45553653055E+03  0.00000000000E+00 0. -1.
        -11    1    5    5    0    0  0.71577845836E+01  0.21597179150E+01  0.11690255793E+02  0.13876611334E+02  0.00000000000E+00 0.  1.
          1    1    6    6  503    0  0.11032217898E+03 -0.26460907539E+03 -0.29979961787E+03  0.41481171250E+03  0.00000000000E+00 0. -1.
         -1    1    6    6    0  503  0.79739158810E+02 -0.58936140902E+02 -0.11886777564E+03  0.15479454201E+03  0.00000000000E+00 0.  1.
<mgrwt>
<rscale>  0 0.16913497E+04</rscale>
<asrwt>0</asrwt>
<pdfrwt beam="1">  1        2 0.16359425E+00 0.16913497E+04</pdfrwt>
<pdfrwt beam="2">  1       -1 0.10346943E+00 0.16913497E+04</pdfrwt>
<totfact> 0.21973752E+01</totfact>
</mgrwt>
</event>
<event>
12    6  0.1395358E-007  0.5859185E+04  0.7818608E-02  0.7708110E-01
          2   -1    0    0  501    0  0.00000000000E+00  0.00000000000E+00  0.28562403055E+04  0.28562403055E+04  0.00000000000E+00 0. -1.
         -1   -1    0    0    0  501 -0.00000000000E+00 -0.00000000000E+00 -0.30048284305E+04  0.30048284305E+04  0.00000000000E+00 0.  1.
         24    2    1    2    0    0  0.17736008197E+04 -0.17174842914E+04  0.13774537759E+04  0.28281259641E+04  0.74198416378E+02 0.  0.
        254    2    1    2    0    0 -0.17736008197E+04  0.17174842914E+04 -0.15260419009E+04  0.30329427720E+04  0.88007148354E+03 0.  0.
         23    2    4    4    0    0 -0.13582097478E+03  0.49392950704E+03 -0.78637693356E+02  0.52636145695E+03  0.91971742581E+02 0.  0.
         23    2    4    4    0    0 -0.16377798449E+04  0.12235547844E+04 -0.14474042075E+04  0.25065813151E+04  0.92530093817E+02 0.  0.
          2    1    3    3  502    0  0.95967147910E+03 -0.90332411542E+03  0.69859721206E+03  0.14916440158E+04  0.00000000000E+00 0. -1.
         -1    1    3    3    0  502  0.81392934057E+03 -0.81416017603E+03  0.67885656381E+03  0.13364819482E+04  0.00000000000E+00 0.  1.
         11    1    5    5    0    0 -0.13447690669E+03  0.36569121181E+03 -0.81580972199E+02  0.39808234808E+03  0.00000000000E+00 0.  1.
        -11    1    5    5    0    0 -0.13440680889E+01  0.12823829523E+03  0.29432788430E+01  0.12827910887E+03  0.00000000000E+00 0. -1.
          2    1    6    6  503    0 -0.84549177608E+03  0.68227005718E+03 -0.79561993002E+03  0.13466105032E+04  0.00000000000E+00 0. -1.
         -2    1    6    6    0  503 -0.79228806881E+03  0.54128472723E+03 -0.65178427751E+03  0.11599708118E+04  0.00000000000E+00 0.  1.
<mgrwt>
<rscale>  0 0.58591850E+04</rscale>
<asrwt>0</asrwt>
<pdfrwt beam="1">  1        2 0.43942159E+00 0.58591850E+04</pdfrwt>
<pdfrwt beam="2">  1       -1 0.46228130E+00 0.58591850E+04</pdfrwt>
<totfact> 0.44325039E-03</totfact>
</mgrwt>
</event>
<event>
12    6  0.1395358E-007  0.2165172E+04  0.7818608E-02  0.8533066E-01
         -1   -1    0    0    0  501 -0.00000000000E+00  0.00000000000E+00  0.44306984863E+03  0.44306984863E+03  0.00000000000E+00 0.  1.
          2   -1    0    0  501    0  0.00000000000E+00 -0.00000000000E+00 -0.26451636722E+04  0.26451636722E+04  0.00000000000E+00 0. -1.
         24    2    1    2    0    0  0.32391456949E+03 -0.73216958167E+03 -0.34647170030E+03  0.87589735212E+03  0.78489411315E+02 0.  0.
        254    2    1    2    0    0 -0.32391456949E+03  0.73216958167E+03 -0.18556221233E+04  0.22123361687E+04  0.90005828389E+03 0.  0.
         23    2    4    4    0    0 -0.54625671231E+03  0.67561550457E+03 -0.10300399769E+04  0.13506992569E+04  0.92484717078E+02 0.  0.
         23    2    4    4    0    0  0.22234214281E+03  0.56554077098E+02 -0.82558214639E+03  0.86163691181E+03  0.90542229077E+02 0.  0.
          4    1    3    3  502    0  0.20977726463E+03 -0.44100535837E+03 -0.24995042866E+03  0.54860499784E+03  0.00000000000E+00 0. -1.
         -3    1    3    3    0  502  0.11413730486E+03 -0.29116422330E+03 -0.96521271636E+02  0.32729235428E+03  0.00000000000E+00 0.  1.
         11    1    5    5    0    0 -0.30789974823E+03  0.32933348981E+03 -0.58391706985E+03  0.73771400077E+03  0.00000000000E+00 0.  1.
        -11    1    5    5    0    0 -0.23835696408E+03  0.34628201476E+03 -0.44612290706E+03  0.61298525616E+03  0.00000000000E+00 0. -1.
          3    1    6    6  503    0  0.12923087655E+03  0.33857199488E+02 -0.62782312550E+03  0.64187912127E+03  0.00000000000E+00 0. -1.
         -3    1    6    6    0  503  0.93111266268E+02  0.22696877610E+02 -0.19775902089E+03  0.21975779054E+03  0.00000000000E+00 0.  1.
<mgrwt>
<rscale>  0 0.21651718E+04</rscale>
<asrwt>0</asrwt>
<pdfrwt beam="1">  1        2 0.40694826E+00 0.21651718E+04</pdfrwt>
<pdfrwt beam="2">  1       -1 0.68164592E-01 0.21651718E+04</pdfrwt>
<totfact> 0.65080003E+00</totfact>
</mgrwt>
</event>
<event>
12    6  0.1395358E-007  0.1195446E+04  0.7818608E-02  0.9116852E-01
         -1   -1    0    0    0  501 -0.00000000000E+00  0.00000000000E+00  0.28713676226E+03  0.28713676226E+03  0.00000000000E+00 0.  1.
          2   -1    0    0  501    0  0.00000000000E+00 -0.00000000000E+00 -0.12442597890E+04  0.12442597890E+04  0.00000000000E+00 0. -1.
         24    2    1    2    0    0 -0.21536700299E+03  0.12439673908E+03 -0.20317587191E+03  0.33140218198E+03  0.81789220690E+02 0.  0.
        254    2    1    2    0    0  0.21536700299E+03 -0.12439673908E+03 -0.75394715487E+03  0.11999943693E+04  0.89982925013E+03 0.  0.
         23    2    4    4    0    0  0.20671994184E+02 -0.34292662940E+02  0.19924162969E+03  0.21878908393E+03  0.81043927409E+02 0.  0.
         23    2    4    4    0    0  0.19469500881E+03 -0.90104076142E+02 -0.95318878456E+03  0.98120528539E+03  0.90388395693E+02 0.  0.
          2    1    3    3  502    0 -0.50871611776E+02  0.63615524991E+02 -0.35776274008E+02  0.88965148718E+02  0.00000000000E+00 0. -1.
         -1    1    3    3    0  502 -0.16449539122E+03  0.60781214091E+02 -0.16739959790E+03  0.24243703326E+03  0.00000000000E+00 0.  1.
         11    1    5    5    0    0  0.29207500191E+02 -0.46846652661E+02  0.19551221987E+03  0.20315687301E+03  0.00000000000E+00 0. -1.
        -11    1    5    5    0    0 -0.85355060065E+01  0.12553989721E+02  0.37294098254E+01  0.15632210924E+02  0.00000000000E+00 0.  1.
          3    1    6    6  503    0  0.16260311058E+03 -0.35891616331E+02 -0.61200820269E+03  0.63425706133E+03  0.00000000000E+00 0. -1.
         -3    1    6    6    0  503  0.32091898229E+02 -0.54212459811E+02 -0.34118058187E+03  0.34694822406E+03  0.00000000000E+00 0.  1.
<mgrwt>
<rscale>  0 0.11954459E+04</rscale>
<asrwt>0</asrwt>
<pdfrwt beam="1">  1        2 0.19142458E+00 0.11954459E+04</pdfrwt>
<pdfrwt beam="2">  1       -1 0.44174887E-01 0.11954459E+04</pdfrwt>
<totfact> 0.10162907E+02</totfact>
</mgrwt>
</event>
<event>
12    6  0.1395358E-007  0.1717459E+04  0.7818608E-02  0.8751469E-01
         -1   -1    0    0    0  501 -0.00000000000E+00  0.00000000000E+00  0.70901121645E+03  0.70901121645E+03  0.00000000000E+00 0.  1.
          2   -1    0    0  501    0  0.00000000000E+00 -0.00000000000E+00 -0.10400632865E+04  0.10400632865E+04  0.00000000000E+00 0. -1.
         24    2    1    2    0    0  0.51480813354E+03  0.29999091164E+03 -0.29269842429E+03  0.66907515694E+03  0.83469974387E+02 0.  0.
        254    2    1    2    0    0 -0.51480813354E+03 -0.29999091164E+03 -0.38353645794E+02  0.10799993460E+04  0.89994756729E+03 0.  0.
         23    2    4    4    0    0  0.10748286243E+03 -0.47703504064E+02 -0.31522271678E+03  0.34879702252E+03  0.92009845820E+02 0.  0.
         23    2    4    4    0    0 -0.62229099597E+03 -0.25228740758E+03  0.27686907099E+03  0.73120232352E+03  0.84293153736E+02 0.  0.
          2    1    3    3  502    0  0.66019937451E+02  0.50084664361E+02 -0.12074741927E+02  0.83743090090E+02  0.00000000000E+00 0. -1.
         -1    1    3    3    0  502  0.44878819609E+03  0.24990624728E+03 -0.28062368236E+03  0.58533206685E+03  0.00000000000E+00 0.  1.
         11    1    5    5    0    0  0.64645163529E+02  0.22748849306E+00 -0.69981343872E+02  0.95270338557E+02  0.00000000000E+00 0.  1.
        -11    1    5    5    0    0  0.42837698899E+02 -0.47930992557E+02 -0.24524137291E+03  0.25352668396E+03  0.00000000000E+00 0. -1.
          2    1    6    6  503    0 -0.16281165096E+03 -0.37760212540E+02  0.96470169478E+02  0.19297658132E+03  0.00000000000E+00 0. -1.
         -2    1    6    6    0  503 -0.45947934501E+03 -0.21452719504E+03  0.18039890151E+03  0.53822574220E+03  0.00000000000E+00 0.  1.
<mgrwt>
<rscale>  0 0.17174592E+04</rscale>
<asrwt>0</asrwt>
<pdfrwt beam="1">  1        2 0.16000973E+00 0.17174592E+04</pdfrwt>
<pdfrwt beam="2">  1       -1 0.10907865E+00 0.17174592E+04</pdfrwt>
<totfact> 0.20045593E+01</totfact>
</mgrwt>
</event>
<event>
12    6  0.1395358E-007  0.1378718E+04  0.7818608E-02  0.8969369E-01
         -1   -1    0    0    0  501 -0.00000000000E+00  0.00000000000E+00  0.70087137892E+03  0.70087137892E+03  0.00000000000E+00 0.  1.
          2   -1    0    0  501    0  0.00000000000E+00 -0.00000000000E+00 -0.67803576137E+03  0.67803576137E+03  0.00000000000E+00 0. -1.
         24    2    1    2    0    0 -0.25979743688E+03 -0.29067768617E+03 -0.30973587159E+02  0.39899102942E+03  0.79033239893E+02 0.  0.
        254    2    1    2    0    0  0.25979743688E+03  0.29067768617E+03  0.53809204710E+02  0.97991611086E+03  0.89741402283E+03 0.  0.
         23    2    4    4    0    0 -0.19189537850E+03 -0.15459972507E+03  0.19102348504E+03  0.32444392986E+03  0.89716110633E+02 0.  0.
         23    2    4    4    0    0  0.45169281538E+03  0.44527741123E+03 -0.13721428033E+03  0.65547218101E+03  0.92291109680E+02 0.  0.
          4    1    3    3  502    0 -0.25073525722E+03 -0.26991121553E+03 -0.46786103748E+02  0.37136124325E+03  0.00000000000E+00 0. -1.
         -3    1    3    3    0  502 -0.90621796633E+01 -0.20766470635E+02  0.15812516589E+02  0.27629786169E+02  0.00000000000E+00 0.  1.
         11    1    5    5    0    0 -0.11252290098E+03 -0.11367746094E+03  0.71395557257E+02  0.17516076606E+03  0.00000000000E+00 0.  1.
        -11    1    5    5    0    0 -0.79372477516E+02 -0.40922264124E+02  0.11962792778E+03  0.14928316380E+03  0.00000000000E+00 0. -1.
          1    1    6    6  503    0  0.12412863330E+03  0.10308257435E+03 -0.74204764403E+02  0.17759583835E+03  0.00000000000E+00 0. -1.
         -1    1    6    6    0  503  0.32756418208E+03  0.34219483689E+03 -0.63009515924E+02  0.47787634266E+03  0.00000000000E+00 0.  1.
<mgrwt>
<rscale>  0 0.13787180E+04</rscale>
<asrwt>0</asrwt>
<pdfrwt beam="1">  1        2 0.10431319E+00 0.13787180E+04</pdfrwt>
<pdfrwt beam="2">  1       -1 0.10782637E+00 0.13787180E+04</pdfrwt>
<totfact> 0.38015172E+01</totfact>
</mgrwt>
</event>
<event>
12    6  0.1395358E-007  0.2372538E+04  0.7818608E-02  0.8449857E-01
          2   -1    0    0  501    0  0.00000000000E+00  0.00000000000E+00  0.17741114067E+04  0.17741114067E+04  0.00000000000E+00 0. -1.
         -1   -1    0    0    0  501 -0.00000000000E+00 -0.00000000000E+00 -0.79320482156E+03  0.79320482156E+03  0.00000000000E+00 0.  1.
         24    2    1    2    0    0 -0.27065386317E+03 -0.66413333795E+03  0.11955288553E+04  0.13964101095E+04  0.79657678660E+02 0.  0.
        254    2    1    2    0    0  0.27065386317E+03  0.66413333795E+03 -0.21462227017E+03  0.11709061188E+04  0.90035094043E+03 0.  0.
         23    2    4    4    0    0 -0.92043182454E+02  0.30913945359E+03  0.29513824089E+03  0.44639871491E+03  0.90144784859E+02 0.  0.
         23    2    4    4    0    0  0.36269704562E+03  0.35499388436E+03 -0.50976051105E+03  0.72450740388E+03  0.86518176178E+02 0.  0.
          4    1    3    3  502    0 -0.20703494406E+03 -0.42080788620E+03  0.81424305978E+03  0.93964594691E+03  0.00000000000E+00 0. -1.
         -3    1    3    3    0  502 -0.63618919112E+02 -0.24332545174E+03  0.38128579552E+03  0.45676416256E+03  0.00000000000E+00 0.  1.
         11    1    5    5    0    0 -0.58911210320E+02  0.20265553333E+03  0.13247215656E+03  0.24917597828E+03  0.00000000000E+00 0. -1.
        -11    1    5    5    0    0 -0.33131972134E+02  0.10648392026E+03  0.16266608433E+03  0.19722273663E+03  0.00000000000E+00 0.  1.
          1    1    6    6  503    0  0.14230002762E+03  0.10563485159E+03 -0.22569018296E+03  0.28695657932E+03  0.00000000000E+00 0. -1.
         -1    1    6    6    0  503  0.22039701800E+03  0.24935903277E+03 -0.28407032810E+03  0.43755082456E+03  0.00000000000E+00 0.  1.
<mgrwt>
<rscale>  0 0.23725376E+04</rscale>
<asrwt>0</asrwt>
<pdfrwt beam="1">  1        2 0.27294022E+00 0.23725376E+04</pdfrwt>
<pdfrwt beam="2">  1       -1 0.12203151E+00 0.23725376E+04</pdfrwt>
<totfact> 0.54360412E+00</totfact>
</mgrwt>
</event>
<event>
12    6  0.1395358E-007  0.1627951E+04  0.7818608E-02  0.8803558E-01
          2   -1    0    0  501    0  0.00000000000E+00  0.00000000000E+00  0.59737223489E+03  0.59737223489E+03  0.00000000000E+00 0. -1.
         -1   -1    0    0    0  501 -0.00000000000E+00 -0.00000000000E+00 -0.11091173202E+04  0.11091173202E+04  0.00000000000E+00 0.  1.
         24    2    1    2    0    0 -0.28505636139E+03 -0.44734621419E+03 -0.34724595008E+03  0.64290946433E+03  0.10666332529E+03 0.  0.
        254    2    1    2    0    0  0.28505636139E+03  0.44734621419E+03 -0.16449913523E+03  0.10635800908E+04  0.90706498083E+03 0.  0.
         23    2    4    4    0    0 -0.22831877324E+03 -0.89517979372E+02  0.83604881280E+02  0.27517089416E+03  0.92662365447E+02 0.  0.
         23    2    4    4    0    0  0.51337513463E+03  0.53686419356E+03 -0.24810401651E+03  0.78840919661E+03  0.90864003329E+02 0.  0.
          2    1    3    3  502    0 -0.60009721568E+02 -0.13050884280E+03 -0.44823570691E+02  0.15047550372E+03  0.00000000000E+00 0. -1.
         -1    1    3    3    0  502 -0.22504663982E+03 -0.31683737139E+03 -0.30242237939E+03  0.49243396060E+03  0.00000000000E+00 0.  1.
         11    1    5    5    0    0 -0.42458746950E+02  0.14292865195E+02 -0.39697071744E+01  0.44975435107E+02  0.00000000000E+00 0. -1.
        -11    1    5    5    0    0 -0.18586002629E+03 -0.10381084457E+03  0.87574588454E+02  0.23019545905E+03  0.00000000000E+00 0.  1.
          1    1    6    6  503    0  0.11231809887E+03  0.96328651330E+02 -0.15183837393E+02  0.14874512872E+03  0.00000000000E+00 0. -1.
         -1    1    6    6    0  503  0.40105703576E+03  0.44053554223E+03 -0.23292017912E+03  0.63966406788E+03  0.00000000000E+00 0.  1.
<mgrwt>
<rscale>  0 0.16279507E+04</rscale>
<asrwt>0</asrwt>
<pdfrwt beam="1">  1        2 0.91903421E-01 0.16279507E+04</pdfrwt>
<pdfrwt beam="2">  1       -1 0.17063343E+00 0.16279507E+04</pdfrwt>
<totfact> 0.13269055E+01</totfact>
</mgrwt>
</event>
<event>
12    6  0.1395358E-007  0.2559520E+04  0.7818608E-02  0.8382083E-01
         -1   -1    0    0    0  501 -0.00000000000E+00  0.00000000000E+00  0.65676198693E+03  0.65676198693E+03  0.00000000000E+00 0.  1.
          2   -1    0    0  501    0  0.00000000000E+00 -0.00000000000E+00 -0.24937273690E+04  0.24937273690E+04  0.00000000000E+00 0. -1.
         24    2    1    2    0    0 -0.31169924635E+03 -0.87954528950E+03 -0.43339458996E+02  0.93750522203E+03  0.79255259471E+02 0.  0.
        254    2    1    2    0    0  0.31169924635E+03  0.87954528950E+03 -0.17936259230E+04  0.22129841339E+04  0.89969355254E+03 0.  0.
         23    2    4    4    0    0  0.59507265414E+03  0.70011050813E+03 -0.14824897531E+04  0.17465347700E+04  0.91332620993E+02 0.  0.
         23    2    4    4    0    0 -0.28337340779E+03  0.17943478138E+03 -0.31113616996E+03  0.46644936384E+03  0.90950336749E+02 0.  0.
          4    1    3    3  502    0 -0.97744325265E+02 -0.24551249293E+03 -0.46634659569E+02  0.26833771405E+03  0.00000000000E+00 0. -1.
         -3    1    3    3    0  502 -0.21395492108E+03 -0.63403279657E+03  0.32952005731E+01  0.66916750798E+03  0.00000000000E+00 0.  1.
         11    1    5    5    0    0  0.48054762725E+03  0.51564657298E+03 -0.10915042245E+04  0.12993070777E+04  0.00000000000E+00 0. -1.
        -11    1    5    5    0    0  0.11452502689E+03  0.18446393515E+03 -0.39098552861E+03  0.44722769228E+03  0.00000000000E+00 0.  1.
          2    1    6    6  503    0 -0.22970533002E+03  0.15028776245E+03 -0.19998367808E+03  0.33962394156E+03  0.00000000000E+00 0. -1.
         -2    1    6    6    0  503 -0.53668077767E+02  0.29147018923E+02 -0.11115249188E+03  0.12682542227E+03  0.00000000000E+00 0.  1.
<mgrwt>
<rscale>  0 0.25595198E+04</rscale>
<asrwt>0</asrwt>
<pdfrwt beam="1">  1        2 0.38365037E+00 0.25595198E+04</pdfrwt>
<pdfrwt beam="2">  1       -1 0.10104030E+00 0.25595198E+04</pdfrwt>
<totfact> 0.32970134E+00</totfact>
</mgrwt>
</event>
<event>
12    6  0.1395358E-007  0.1489436E+04  0.7818608E-02  0.8891509E-01
         -1   -1    0    0    0  501 -0.00000000000E+00  0.00000000000E+00  0.23681071428E+03  0.23681071428E+03  0.00000000000E+00 0.  1.
          2   -1    0    0  501    0  0.00000000000E+00 -0.00000000000E+00 -0.23419747733E+04  0.23419747733E+04  0.00000000000E+00 0. -1.
         24    2    1    2    0    0 -0.29252220852E+02 -0.13867278933E+03  0.10099673311E+03  0.19204418022E+03  0.81208325503E+02 0.  0.
        254    2    1    2    0    0  0.29252220852E+02  0.13867278933E+03 -0.22061607921E+04  0.23867413073E+04  0.89961257919E+03 0.  0.
         23    2    4    4    0    0 -0.21885941799E+03 -0.25519162982E+03 -0.46312527251E+03  0.58017594285E+03  0.95377638077E+02 0.  0.
         23    2    4    4    0    0  0.24811163884E+03  0.39386441915E+03 -0.17430355196E+04  0.18065653645E+04  0.93899028916E+02 0.  0.
          2    1    3    3  502    0  0.21583189492E+02 -0.76130736386E+02  0.29966998491E+02  0.84615271021E+02  0.00000000000E+00 0. -1.
         -1    1    3    3    0  502 -0.50835410343E+02 -0.62542052946E+02  0.71029734617E+02  0.10742890920E+03  0.00000000000E+00 0.  1.
         11    1    5    5    0    0 -0.12486413965E+03 -0.17757398158E+03 -0.22491110113E+03  0.31258370993E+03  0.00000000000E+00 0. -1.
        -11    1    5    5    0    0 -0.93995278337E+02 -0.77617648248E+02 -0.23821417138E+03  0.26759223291E+03  0.00000000000E+00 0.  1.
          4    1    6    6  503    0  0.18417059212E+03  0.23944409044E+03 -0.12495324141E+04  0.12855285035E+04  0.00000000000E+00 0. -1.
         -4    1    6    6    0  503  0.63941046719E+02  0.15442032872E+03 -0.49350310551E+03  0.52103686100E+03  0.00000000000E+00 0.  1.
<mgrwt>
<rscale>  0 0.14894358E+04</rscale>
<asrwt>0</asrwt>
<pdfrwt beam="1">  1        2 0.36030380E+00 0.14894358E+04</pdfrwt>
<pdfrwt beam="2">  1       -1 0.36432419E-01 0.14894358E+04</pdfrwt>
<totfact> 0.34178833E+01</totfact>
</mgrwt>
</event>
<event>
12    6  0.1395358E-007  0.1493185E+04  0.7818608E-02  0.8888998E-01
          2   -1    0    0  501    0  0.00000000000E+00  0.00000000000E+00  0.13387530590E+04  0.13387530590E+04  0.00000000000E+00 0. -1.
         -1   -1    0    0    0  501 -0.00000000000E+00 -0.00000000000E+00 -0.41635778019E+03  0.41635778019E+03  0.00000000000E+00 0.  1.
         24    2    1    2    0    0  0.66625110954E+02 -0.41207531154E+03  0.54863275226E+03  0.69416702214E+03  0.81394041503E+02 0.  0.
        254    2    1    2    0    0 -0.66625110954E+02  0.41207531154E+03  0.37376252651E+03  0.10609438170E+04  0.90092085602E+03 0.  0.
         23    2    4    4    0    0  0.10208383055E+03 -0.24949946500E+03  0.20947839648E+03  0.35252912668E+03  0.87889106667E+02 0.  0.
         23    2    4    4    0    0 -0.16870894150E+03  0.66157477654E+03  0.16428413003E+03  0.70841469032E+03  0.93371334917E+02 0.  0.
          4    1    3    3  502    0  0.33498881701E+02 -0.22438004144E+03  0.36331411739E+03  0.42832899268E+03  0.00000000000E+00 0. -1.
         -1    1    3    3    0  502  0.33126229254E+02 -0.18769527010E+03  0.18531863486E+03  0.26583802946E+03  0.00000000000E+00 0.  1.
         11    1    5    5    0    0  0.25275049873E+02 -0.14941220277E+02  0.52115760052E+02  0.59817394254E+02  0.00000000000E+00 0. -1.
        -11    1    5    5    0    0  0.76808780676E+02 -0.23455824472E+03  0.15736263643E+03  0.29271173243E+03  0.00000000000E+00 0.  1.
          1    1    6    6  503    0 -0.82602701830E+02  0.22838201157E+03  0.97610680372E+02  0.26174299319E+03  0.00000000000E+00 0. -1.
         -1    1    6    6    0  503 -0.86106239673E+02  0.43319276497E+03  0.66673449659E+02  0.44667169713E+03  0.00000000000E+00 0.  1.
<mgrwt>
<rscale>  0 0.14931849E+04</rscale>
<asrwt>0</asrwt>
<pdfrwt beam="1">  1        2 0.20596201E+00 0.14931849E+04</pdfrwt>
<pdfrwt beam="2">  1       -1 0.64055044E-01 0.14931849E+04</pdfrwt>
<totfact> 0.42744660E+01</totfact>
</mgrwt>
</event>
<event>
12    6  0.1395358E-007  0.2798587E+04  0.7818608E-02  0.8303707E-01
          2   -1    0    0  501    0  0.00000000000E+00  0.00000000000E+00  0.49044094647E+04  0.49044094647E+04  0.00000000000E+00 0. -1.
         -1   -1    0    0    0  501 -0.00000000000E+00 -0.00000000000E+00 -0.39923711850E+03  0.39923711850E+03  0.00000000000E+00 0.  1.
         24    2    1    2    0    0  0.12129174931E+04  0.14333107375E+03  0.15005190208E+04  0.19364597950E+04  0.81280771355E+02 0.  0.
        254    2    1    2    0    0 -0.12129174931E+04 -0.14333107375E+03  0.30046533253E+04  0.33671867882E+04  0.90459527940E+03 0.  0.
         23    2    4    4    0    0 -0.67553502415E+03  0.33816153748E+03  0.11931467655E+04  0.14151628813E+04  0.91575009320E+02 0.  0.
         23    2    4    4    0    0 -0.53738246897E+03 -0.48149261123E+03  0.18115065599E+04  0.19520239069E+04  0.90698755172E+02 0.  0.
          2    1    3    3  502    0  0.53936360018E+03  0.10435740618E+03  0.67762244716E+03  0.87233923580E+03  0.00000000000E+00 0. -1.
         -1    1    3    3    0  502  0.67355389294E+03  0.38973667571E+02  0.82289657368E+03  0.10641205592E+04  0.00000000000E+00 0.  1.
         11    1    5    5    0    0 -0.13411407492E+02  0.74316557838E+01  0.65724882770E+01  0.16682114997E+02  0.00000000000E+00 0.  1.
        -11    1    5    5    0    0 -0.66212361665E+03  0.33072988170E+03  0.11865742772E+04  0.13984807663E+04  0.00000000000E+00 0. -1.
          1    1    6    6  503    0 -0.15108178970E+03 -0.18035636767E+03  0.51968866447E+03  0.57046510368E+03  0.00000000000E+00 0. -1.
         -1    1    6    6    0  503 -0.38630067927E+03 -0.30113624356E+03  0.12918178954E+04  0.13815588033E+04  0.00000000000E+00 0.  1.
<mgrwt>
<rscale>  0 0.27985870E+04</rscale>
<asrwt>0</asrwt>
<pdfrwt beam="1">  1        2 0.75452449E+00 0.27985870E+04</pdfrwt>
<pdfrwt beam="2">  1       -1 0.61421099E-01 0.27985870E+04</pdfrwt>
<totfact> 0.12001560E-01</totfact>
</mgrwt>
</event>
<event>
12    6  0.1395358E-007  0.2963419E+04  0.7818608E-02  0.8254255E-01
         -1   -1    0    0    0  501 -0.00000000000E+00  0.00000000000E+00  0.13948469974E+04  0.13948469974E+04  0.00000000000E+00 0.  1.
          2   -1    0    0  501    0  0.00000000000E+00 -0.00000000000E+00 -0.15739809517E+04  0.15739809517E+04  0.00000000000E+00 0. -1.
         24    2    1    2    0    0 -0.28600480868E+03  0.13024965174E+04  0.81019197768E+02  0.13385817222E+04  0.83312592021E+02 0.  0.
        254    2    1    2    0    0  0.28600480868E+03 -0.13024965174E+04 -0.26015315208E+03  0.16302462269E+04  0.90095902751E+03 0.  0.
         23    2    4    4    0    0  0.90193592012E+02 -0.12576853695E+04  0.32469929659E+02  0.12645091892E+04  0.89564616135E+02 0.  0.
         23    2    4    4    0    0  0.19581121667E+03 -0.44811147930E+02 -0.29262308174E+03  0.36573703772E+03  0.88234014090E+02 0.  0.
          4    1    3    3  502    0 -0.25233108255E+03  0.12098545016E+04  0.57404152425E+02  0.12372203227E+04  0.00000000000E+00 0. -1.
         -3    1    3    3    0  502 -0.33673726128E+02  0.92642015886E+02  0.23615045343E+02  0.10136139948E+03  0.00000000000E+00 0.  1.
         11    1    5    5    0    0  0.67530767440E+02 -0.80665943156E+03  0.62683979560E+02  0.81190462763E+03  0.00000000000E+00 0. -1.
        -11    1    5    5    0    0  0.22662824572E+02 -0.45102593796E+03 -0.30214049900E+02  0.45260456155E+03  0.00000000000E+00 0.  1.
          3    1    6    6  503    0  0.11832498825E+03 -0.67020330155E+02 -0.15457181623E+03  0.20587611292E+03  0.00000000000E+00 0. -1.
         -3    1    6    6    0  503  0.77486228422E+02  0.22209182224E+02 -0.13805126551E+03  0.15986092480E+03  0.00000000000E+00 0.  1.
<mgrwt>
<rscale>  0 0.29634187E+04</rscale>
<asrwt>0</asrwt>
<pdfrwt beam="1">  1        2 0.24215092E+00 0.29634187E+04</pdfrwt>
<pdfrwt beam="2">  1       -1 0.21459184E+00 0.29634187E+04</pdfrwt>
<totfact> 0.13491299E+00</totfact>
</mgrwt>
</event>
<event>
12    6  0.1395358E-007  0.1238111E+04  0.7818608E-02  0.9080136E-01
         -1   -1    0    0    0  501 -0.00000000000E+00  0.00000000000E+00  0.73027896971E+03  0.73027896971E+03  0.00000000000E+00 0.  1.
          2   -1    0    0  501    0  0.00000000000E+00 -0.00000000000E+00 -0.52477205300E+03  0.52477205300E+03  0.00000000000E+00 0. -1.
         24    2    1    2    0    0 -0.14181252455E+03  0.12259633323E+03 -0.16723396178E+03  0.26379080578E+03  0.80484397259E+02 0.  0.
        254    2    1    2    0    0  0.14181252455E+03 -0.12259633323E+03  0.37274087848E+03  0.99126021692E+03  0.89917762546E+03 0.  0.
         23    2    4    4    0    0 -0.31976473985E+03 -0.34336575403E+02  0.38652029466E+03  0.51183621834E+03  0.95655041457E+02 0.  0.
         23    2    4    4    0    0  0.46157726440E+03 -0.88259757828E+02 -0.13779416181E+02  0.47942399859E+03  0.93883663359E+02 0.  0.
          2    1    3    3  502    0 -0.62223640127E+02  0.58090382036E+01 -0.46176233279E+02  0.77703094117E+02  0.00000000000E+00 0. -1.
         -1    1    3    3    0  502 -0.79588884427E+02  0.11678729503E+03 -0.12105772850E+03  0.18608771167E+03  0.00000000000E+00 0.  1.
         11    1    5    5    0    0 -0.16201260700E+03 -0.42613914851E+02  0.13650377808E+03  0.21609560847E+03  0.00000000000E+00 0.  1.
        -11    1    5    5    0    0 -0.15775213284E+03  0.82773394478E+01  0.25001651658E+03  0.29574060987E+03  0.00000000000E+00 0. -1.
          3    1    6    6  503    0  0.12403786688E+03 -0.65402657448E+02 -0.15746864985E+02  0.14110586018E+03  0.00000000000E+00 0. -1.
         -3    1    6    6    0  503  0.33753939752E+03 -0.22857100381E+02  0.19674488041E+01  0.33831813840E+03  0.00000000000E+00 0.  1.
<mgrwt>
<rscale>  0 0.12381115E+04</rscale>
<asrwt>0</asrwt>
<pdfrwt beam="1">  1        2 0.80734161E-01 0.12381115E+04</pdfrwt>
<pdfrwt beam="2">  1       -1 0.11235061E+00 0.12381115E+04</pdfrwt>
<totfact> 0.47553788E+01</totfact>
</mgrwt>
</event>
<event>
12    6  0.1395358E-007  0.1628394E+04  0.7818608E-02  0.8803292E-01
          2   -1    0    0  501    0  0.00000000000E+00  0.00000000000E+00  0.93473765505E+03  0.93473765505E+03  0.00000000000E+00 0. -1.
         -1   -1    0    0    0  501 -0.00000000000E+00 -0.00000000000E+00 -0.70920072185E+03  0.70920072185E+03  0.00000000000E+00 0.  1.
         24    2    1    2    0    0  0.49207822126E+03  0.12306586862E+03  0.32209050198E+03  0.60619337732E+03  0.80261668224E+02 0.  0.
        254    2    1    2    0    0 -0.49207822126E+03 -0.12306586862E+03 -0.96553568779E+02  0.10377449996E+04  0.90016993321E+03 0.  0.
         23    2    4    4    0    0  0.10304267615E+03  0.24049644427E+03  0.12096553559E+03  0.30170627680E+03  0.89093680173E+02 0.  0.
         23    2    4    4    0    0 -0.59512089741E+03 -0.36356231289E+03 -0.21751910437E+03  0.73603872278E+03  0.89955560083E+02 0.  0.
          2    1    3    3  502    0  0.30873808104E+03  0.38451071905E+02  0.20828930876E+03  0.37440903269E+03  0.00000000000E+00 0. -1.
         -1    1    3    3    0  502  0.18334014022E+03  0.84614796714E+02  0.11380119322E+03  0.23178434463E+03  0.00000000000E+00 0.  1.
         11    1    5    5    0    0  0.10901226711E+03  0.21957225065E+03  0.13076751967E+03  0.27784130693E+03  0.00000000000E+00 0. -1.
        -11    1    5    5    0    0 -0.59695909611E+01  0.20924193617E+02 -0.98019840851E+01  0.23864969867E+02  0.00000000000E+00 0.  1.
          1    1    6    6  503    0 -0.51342363155E+03 -0.28776402095E+03 -0.20779091368E+03  0.62417066656E+03  0.00000000000E+00 0. -1.
         -1    1    6    6    0  503 -0.81697265854E+02 -0.75798291933E+02 -0.97281906871E+01  0.11186805622E+03  0.00000000000E+00 0.  1.
<mgrwt>
<rscale>  0 0.16283938E+04</rscale>
<asrwt>0</asrwt>
<pdfrwt beam="1">  1        2 0.14380579E+00 0.16283938E+04</pdfrwt>
<pdfrwt beam="2">  1       -1 0.10910780E+00 0.16283938E+04</pdfrwt>
<totfact> 0.23613077E+01</totfact>
</mgrwt>
</event>
<event>
12    6  0.1395358E-007  0.3799601E+04  0.7818608E-02  0.8046241E-01
          2   -1    0    0  501    0  0.00000000000E+00  0.00000000000E+00  0.26953272594E+04  0.26953272594E+04  0.00000000000E+00 0. -1.
         -1   -1    0    0    0  501 -0.00000000000E+00 -0.00000000000E+00 -0.13390737129E+04  0.13390737129E+04  0.00000000000E+00 0.  1.
         24    2    1    2    0    0 -0.70600776171E+03 -0.16361002732E+04  0.84559184620E+03  0.19739883732E+04  0.79583061728E+02 0.  0.
        254    2    1    2    0    0  0.70600776171E+03  0.16361002732E+04  0.51066170028E+03  0.20604125991E+04  0.89958526168E+03 0.  0.
         23    2    4    4    0    0  0.75139807606E+03  0.95182144094E+03  0.27023131048E+02  0.12162485271E+04  0.89258646335E+02 0.  0.
         23    2    4    4    0    0 -0.45390314352E+02  0.68427883222E+03  0.48363856923E+03  0.84416407200E+03  0.91700130628E+02 0.  0.
          4    1    3    3  502    0 -0.40324297345E+03 -0.89335521722E+03  0.50490318870E+03  0.11025496223E+04  0.00000000000E+00 0. -1.
         -3    1    3    3    0  502 -0.30276478826E+03 -0.74274505594E+03  0.34068865750E+03  0.87143875085E+03  0.00000000000E+00 0.  1.
         11    1    5    5    0    0  0.40126193335E+03  0.49355122198E+03 -0.29471544648E+02  0.63676724148E+03  0.00000000000E+00 0. -1.
        -11    1    5    5    0    0  0.35013614271E+03  0.45827021895E+03  0.56494675696E+02  0.57948128563E+03  0.00000000000E+00 0.  1.
          1    1    6    6  503    0 -0.60387645297E+02  0.51757254180E+03  0.32878827589E+03  0.61614100179E+03  0.00000000000E+00 0. -1.
         -1    1    6    6    0  503  0.14997330945E+02  0.16670629042E+03  0.15485029334E+03  0.22802307021E+03  0.00000000000E+00 0.  1.
<mgrwt>
<rscale>  0 0.37996010E+04</rscale>
<asrwt>0</asrwt>
<pdfrwt beam="1">  1        2 0.41466573E+00 0.37996010E+04</pdfrwt>
<pdfrwt beam="2">  1       -1 0.20601134E+00 0.37996010E+04</pdfrwt>
<totfact> 0.33313150E-01</totfact>
</mgrwt>
</event>
<event>
12    6  0.1395358E-007  0.2186536E+04  0.7818608E-02  0.8524053E-01
         -1   -1    0    0    0  501 -0.00000000000E+00  0.00000000000E+00  0.50465134920E+03  0.50465134920E+03  0.00000000000E+00 0.  1.
          2   -1    0    0  501    0  0.00000000000E+00 -0.00000000000E+00 -0.23684374103E+04  0.23684374103E+04  0.00000000000E+00 0. -1.
         24    2    1    2    0    0  0.56393443489E+03  0.69614618692E+03 -0.62361688634E+03  0.10945093072E+04  0.80068984150E+02 0.  0.
        254    2    1    2    0    0 -0.56393443489E+03 -0.69614618692E+03 -0.12401691748E+04  0.17785794523E+04  0.90701914297E+03 0.  0.
         23    2    4    4    0    0 -0.42383525981E+03 -0.52728531908E+02 -0.84568625954E+02  0.44519147035E+03  0.92881468805E+02 0.  0.
         23    2    4    4    0    0 -0.14009917508E+03 -0.64341765501E+03 -0.11556005488E+04  0.13333879820E+04  0.94322978952E+02 0.  0.
          2    1    3    3  502    0  0.30790962185E+03  0.31682209978E+03 -0.31116557685E+03  0.54037819567E+03  0.00000000000E+00 0. -1.
         -1    1    3    3    0  502  0.25602481304E+03  0.37932408714E+03 -0.31245130949E+03  0.55413111154E+03  0.00000000000E+00 0.  1.
         11    1    5    5    0    0 -0.24241739296E+03  0.15156239864E+02 -0.36548138587E+02  0.24562506071E+03  0.00000000000E+00 0. -1.
        -11    1    5    5    0    0 -0.18141786684E+03 -0.67884771771E+02 -0.48020487367E+02  0.19956640964E+03  0.00000000000E+00 0.  1.
          4    1    6    6  503    0 -0.13351423037E+03 -0.40873085114E+03 -0.72377662859E+03  0.84186671539E+03  0.00000000000E+00 0. -1.
         -4    1    6    6    0  503 -0.65849447145E+01 -0.23468680387E+03 -0.43182392024E+03  0.49152126658E+03  0.00000000000E+00 0.  1.
<mgrwt>
<rscale>  0 0.21865362E+04</rscale>
<asrwt>0</asrwt>
<pdfrwt beam="1">  1        2 0.36437499E+00 0.21865362E+04</pdfrwt>
<pdfrwt beam="2">  1       -1 0.77638669E-01 0.21865362E+04</pdfrwt>
<totfact> 0.71745077E+00</totfact>
</mgrwt>
</event>
<event>
12    6  0.1395358E-007  0.2160348E+04  0.7818608E-02  0.8535116E-01
         -1   -1    0    0    0  501 -0.00000000000E+00  0.00000000000E+00  0.99053313978E+03  0.99053313978E+03  0.00000000000E+00 0.  1.
          2   -1    0    0  501    0  0.00000000000E+00 -0.00000000000E+00 -0.11779270396E+04  0.11779270396E+04  0.00000000000E+00 0. -1.
         24    2    1    2    0    0  0.60434499090E+02  0.77579054291E+03  0.35656090622E+03  0.85986701580E+03  0.82050654300E+02 0.  0.
        254    2    1    2    0    0 -0.60434499090E+02 -0.77579054291E+03 -0.54395480605E+03  0.13085931636E+04  0.90056978721E+03 0.  0.
         23    2    4    4    0    0 -0.13100985705E+03 -0.70291274315E+03 -0.76356155817E+03  0.10498818165E+04  0.89306597924E+02 0.  0.
         23    2    4    4    0    0  0.70575357958E+02 -0.72877799753E+02  0.21960675213E+03  0.25871134706E+03  0.91719031121E+02 0.  0.
          2    1    3    3  502    0  0.67507259458E+02  0.42591651283E+03  0.17235982109E+03  0.46440285734E+03  0.00000000000E+00 0. -1.
         -1    1    3    3    0  502 -0.70727603680E+01  0.34987403008E+03  0.18420108513E+03  0.39546415846E+03  0.00000000000E+00 0.  1.
         11    1    5    5    0    0 -0.32142286162E+02 -0.65033046059E+02 -0.10595674475E+03  0.12841049567E+03  0.00000000000E+00 0.  1.
        -11    1    5    5    0    0 -0.98867570887E+02 -0.63787969710E+03 -0.65760481342E+03  0.92147132086E+03  0.00000000000E+00 0. -1.
          1    1    6    6  503    0  0.89089892403E+02 -0.51293041021E+02  0.19764278894E+03  0.22277939089E+03  0.00000000000E+00 0. -1.
         -1    1    6    6    0  503 -0.18514534445E+02 -0.21584758732E+02  0.21963963186E+02  0.35931956168E+02  0.00000000000E+00 0.  1.
<mgrwt>
<rscale>  0 0.21603479E+04</rscale>
<asrwt>0</asrwt>
<pdfrwt beam="1">  1        2 0.18121954E+00 0.21603479E+04</pdfrwt>
<pdfrwt beam="2">  1       -1 0.15238971E+00 0.21603479E+04</pdfrwt>
<totfact> 0.68248558E+00</totfact>
</mgrwt>
</event>
<event>
12    6  0.1395358E-007  0.2656225E+04  0.7818608E-02  0.8349350E-01
         -1   -1    0    0    0  501 -0.00000000000E+00  0.00000000000E+00  0.84899891937E+03  0.84899891937E+03  0.00000000000E+00 0.  1.
          2   -1    0    0  501    0  0.00000000000E+00 -0.00000000000E+00 -0.20776023907E+04  0.20776023907E+04  0.00000000000E+00 0. -1.
         24    2    1    2    0    0 -0.66135003788E+03 -0.40675764401E+03 -0.15144667123E+04  0.17036233739E+04  0.76730200615E+02 0.  0.
        254    2    1    2    0    0  0.66135003788E+03  0.40675764401E+03  0.28586324099E+03  0.12229779362E+04  0.90062288796E+03 0.  0.
         23    2    4    4    0    0  0.48662200663E+03  0.33992068150E+01 -0.22636071028E+03  0.54279922662E+03  0.81112867780E+02 0.  0.
         23    2    4    4    0    0  0.17472803126E+03  0.40335843719E+03  0.51222395127E+03  0.68017870958E+03  0.83915355829E+02 0.  0.
          4    1    3    3  502    0 -0.11019702900E+03 -0.10269853150E+03 -0.28114875466E+03  0.31895923849E+03  0.00000000000E+00 0. -1.
         -3    1    3    3    0  502 -0.55115300888E+03 -0.30405911251E+03 -0.12333179576E+04  0.13846641354E+04  0.00000000000E+00 0.  1.
         11    1    5    5    0    0  0.38274381909E+03 -0.30712773471E+02 -0.17896963881E+03  0.42363455610E+03  0.00000000000E+00 0.  1.
        -11    1    5    5    0    0  0.10387818753E+03  0.34111980286E+02 -0.47391071475E+02  0.11916467052E+03  0.00000000000E+00 0. -1.
          3    1    6    6  503    0  0.76743362906E+02  0.25141053561E+03  0.34643577083E+03  0.43487302110E+03  0.00000000000E+00 0. -1.
         -3    1    6    6    0  503  0.97984668351E+02  0.15194790158E+03  0.16578818044E+03  0.24530568848E+03  0.00000000000E+00 0.  1.
<mgrwt>
<rscale>  0 0.26562245E+04</rscale>
<asrwt>0</asrwt>
<pdfrwt beam="1">  1        2 0.31963114E+00 0.26562245E+04</pdfrwt>
<pdfrwt beam="2">  1       -1 0.13061522E+00 0.26562245E+04</pdfrwt>
<totfact> 0.30352623E+00</totfact>
</mgrwt>
</event>
<event>
12    6  0.1395358E-007  0.1671988E+04  0.7818608E-02  0.8777504E-01
          2   -1    0    0  501    0  0.00000000000E+00  0.00000000000E+00  0.69036881417E+03  0.69036881417E+03  0.00000000000E+00 0. -1.
         -1   -1    0    0    0  501 -0.00000000000E+00 -0.00000000000E+00 -0.10123376036E+04  0.10123376036E+04  0.00000000000E+00 0.  1.
         24    2    1    2    0    0  0.55415755583E+03 -0.18347953830E+03 -0.18878288543E+03  0.61898119204E+03  0.82118211161E+02 0.  0.
        254    2    1    2    0    0 -0.55415755583E+03  0.18347953830E+03 -0.13318590403E+03  0.10837252258E+04  0.90330866389E+03 0.  0.
         23    2    4    4    0    0 -0.56596364472E+03  0.29868576291E+03  0.23478109635E+03  0.68779016190E+03  0.91679395143E+02 0.  0.
         23    2    4    4    0    0  0.11806088885E+02 -0.11520622461E+03 -0.36796700038E+03  0.39593506387E+03  0.89179613751E+02 0.  0.
          2    1    3    3  502    0  0.33715328716E+03 -0.87393084832E+02 -0.77276586399E+02  0.35676541470E+03  0.00000000000E+00 0. -1.
         -1    1    3    3    0  502  0.21700426867E+03 -0.96086453472E+02 -0.11150629903E+03  0.26221577734E+03  0.00000000000E+00 0.  1.
         11    1    5    5    0    0 -0.15644396358E+03  0.37896629301E+02  0.59132106677E+02  0.17148607610E+03  0.00000000000E+00 0.  1.
        -11    1    5    5    0    0 -0.40951968113E+03  0.26078913361E+03  0.17564898967E+03  0.51630408580E+03  0.00000000000E+00 0. -1.
          2    1    6    6  503    0 -0.22901658840E+02 -0.10553324982E+03 -0.30265635690E+03  0.32134502201E+03  0.00000000000E+00 0. -1.
         -2    1    6    6    0  503  0.34707747724E+02 -0.96729747858E+01 -0.65310643472E+02  0.74590041856E+02  0.00000000000E+00 0.  1.
<mgrwt>
<rscale>  0 0.16719884E+04</rscale>
<asrwt>0</asrwt>
<pdfrwt beam="1">  1        2 0.10621059E+00 0.16719884E+04</pdfrwt>
<pdfrwt beam="2">  1       -1 0.15574425E+00 0.16719884E+04</pdfrwt>
<totfact> 0.14302977E+01</totfact>
</mgrwt>
</event>
<event>
12    6  0.1395358E-007  0.2219097E+04  0.7818608E-02  0.8510522E-01
         -1   -1    0    0    0  501 -0.00000000000E+00  0.00000000000E+00  0.80254398642E+03  0.80254398642E+03  0.00000000000E+00 0.  1.
          2   -1    0    0  501    0  0.00000000000E+00 -0.00000000000E+00 -0.15339936222E+04  0.15339936222E+04  0.00000000000E+00 0. -1.
         24    2    1    2    0    0  0.71805351041E+03 -0.27588050051E+01  0.30805289651E+03  0.78554610103E+03  0.81102620114E+02 0.  0.
        254    2    1    2    0    0 -0.71805351041E+03  0.27588050051E+01 -0.10395025323E+04  0.15509915076E+04  0.89966698682E+03 0.  0.
         23    2    4    4    0    0  0.12598960996E+03 -0.16604380368E+03 -0.40185834865E+02  0.22894931941E+03  0.85784398200E+02 0.  0.
         23    2    4    4    0    0 -0.84404312036E+03  0.16880260869E+03 -0.99931669746E+03  0.13220421882E+04  0.90876706827E+02 0.  0.
          2    1    3    3  502    0  0.40267699639E+03 -0.41540538903E+02  0.16762570401E+03  0.43814695758E+03  0.00000000000E+00 0. -1.
         -1    1    3    3    0  502  0.31537651401E+03  0.38781733897E+02  0.14042719250E+03  0.34739914345E+03  0.00000000000E+00 0.  1.
         11    1    5    5    0    0  0.11640840475E+02 -0.66928050048E+01  0.19732106770E+02  0.23867526964E+02  0.00000000000E+00 0.  1.
        -11    1    5    5    0    0  0.11434876948E+03 -0.15935099868E+03 -0.59917941635E+02  0.20508179244E+03  0.00000000000E+00 0. -1.
          3    1    6    6  503    0 -0.77057556582E+03  0.17974917112E+03 -0.91373609873E+03  0.12087225179E+04  0.00000000000E+00 0. -1.
         -3    1    6    6    0  503 -0.73467554540E+02 -0.10946562427E+02 -0.85580598724E+02  0.11331967030E+03  0.00000000000E+00 0.  1.
<mgrwt>
<rscale>  0 0.22190965E+04</rscale>
<asrwt>0</asrwt>
<pdfrwt beam="1">  1        2 0.23599902E+00 0.22190965E+04</pdfrwt>
<pdfrwt beam="2">  1       -1 0.12346831E+00 0.22190965E+04</pdfrwt>
<totfact> 0.72860861E+00</totfact>
</mgrwt>
</event>
<event>
12    6  0.1395358E-007  0.1317300E+04  0.7818608E-02  0.9015958E-01
         -1   -1    0    0    0  501 -0.00000000000E+00  0.00000000000E+00  0.12777280391E+03  0.12777280391E+03  0.00000000000E+00 0.  1.
          2   -1    0    0  501    0  0.00000000000E+00 -0.00000000000E+00 -0.33952425842E+04  0.33952425842E+04  0.00000000000E+00 0. -1.
         24    2    1    2    0    0  0.15668898775E+03  0.32214775521E+02 -0.60899869833E+02  0.18895239695E+03  0.80031140964E+02 0.  0.
        254    2    1    2    0    0 -0.15668898775E+03 -0.32214775521E+02 -0.32065699104E+04  0.33340629911E+04  0.89905295043E+03 0.  0.
         23    2    4    4    0    0  0.12057295218E+03  0.37112485101E+03 -0.11547561273E+04  0.12227373158E+04  0.96712657180E+02 0.  0.
         23    2    4    4    0    0 -0.27726193993E+03 -0.40333962653E+03 -0.20518137831E+04  0.21113256753E+04  0.90549815116E+02 0.  0.
          2    1    3    3  502    0  0.45702773786E+02 -0.16310359257E+02 -0.46079422364E+02  0.66918491587E+02  0.00000000000E+00 0. -1.
         -1    1    3    3    0  502  0.11098621396E+03  0.48525134778E+02 -0.14820447468E+02  0.12203390536E+03  0.00000000000E+00 0.  1.
         11    1    5    5    0    0  0.39304919810E+02  0.26674366133E+03 -0.78828538983E+03  0.83312118770E+03  0.00000000000E+00 0.  1.
        -11    1    5    5    0    0  0.81268032374E+02  0.10438118967E+03 -0.36647073747E+03  0.38961612808E+03  0.00000000000E+00 0. -1.
          4    1    6    6  503    0 -0.76010506996E+02 -0.79028985255E+02 -0.61400813669E+03  0.62372202912E+03  0.00000000000E+00 0. -1.
         -4    1    6    6    0  503 -0.20125143294E+03 -0.32431064127E+03 -0.14378056464E+04  0.14876036462E+04  0.00000000000E+00 0.  1.
<mgrwt>
<rscale>  0 0.13172998E+04</rscale>
<asrwt>0</asrwt>
<pdfrwt beam="1">  1        2 0.52234493E+00 0.13172998E+04</pdfrwt>
<pdfrwt beam="2">  1       -1 0.19657358E-01 0.13172998E+04</pdfrwt>
<totfact> 0.22960829E+01</totfact>
</mgrwt>
</event>
<event>
12    6  0.1395358E-007  0.2509735E+04  0.7818608E-02  0.8399526E-01
         -1   -1    0    0    0  501 -0.00000000000E+00  0.00000000000E+00  0.13171879897E+04  0.13171879897E+04  0.00000000000E+00 0.  1.
          2   -1    0    0  501    0  0.00000000000E+00 -0.00000000000E+00 -0.11954953163E+04  0.11954953163E+04  0.00000000000E+00 0. -1.
         24    2    1    2    0    0  0.74188625727E+03 -0.13141444863E+03 -0.73610511331E+03  0.10560370289E+04  0.75488360953E+02 0.  0.
        254    2    1    2    0    0 -0.74188625727E+03  0.13141444863E+03  0.85779778673E+03  0.14566462770E+04  0.90461945446E+03 0.  0.
         23    2    4    4    0    0 -0.14531978773E+03 -0.35999305161E+03  0.34509927673E+03  0.52537663074E+03  0.78830548748E+02 0.  0.
         23    2    4    4    0    0 -0.59656646954E+03  0.49140750024E+03  0.51269850999E+03  0.93126964627E+03  0.83848124913E+02 0.  0.
          2    1    3    3  502    0  0.33239362184E+03 -0.95748345034E+02 -0.32274143174E+03  0.47309121444E+03  0.00000000000E+00 0. -1.
         -1    1    3    3    0  502  0.40949263543E+03 -0.35666103595E+02 -0.41336368157E+03  0.58294581451E+03  0.00000000000E+00 0.  1.
         11    1    5    5    0    0 -0.89519162798E+02 -0.12366722119E+03  0.14797805549E+03  0.21261412703E+03  0.00000000000E+00 0. -1.
        -11    1    5    5    0    0 -0.55800624934E+02 -0.23632583042E+03  0.19712122124E+03  0.31276250371E+03  0.00000000000E+00 0.  1.
          1    1    6    6  503    0 -0.42135360444E+03  0.35507805116E+03  0.31932708432E+03  0.63685875135E+03  0.00000000000E+00 0. -1.
         -1    1    6    6    0  503 -0.17521286510E+03  0.13632944908E+03  0.19337142568E+03  0.29441089492E+03  0.00000000000E+00 0.  1.
<mgrwt>
<rscale>  0 0.25097347E+04</rscale>
<asrwt>0</asrwt>
<pdfrwt beam="1">  1        2 0.18392236E+00 0.25097347E+04</pdfrwt>
<pdfrwt beam="2">  1       -1 0.20264431E+00 0.25097347E+04</pdfrwt>
<totfact> 0.27936813E+00</totfact>
</mgrwt>
</event>
<event>
12    6  0.1395358E-007  0.1552878E+04  0.7818608E-02  0.8850031E-01
          2   -1    0    0  501    0  0.00000000000E+00  0.00000000000E+00  0.22524112717E+04  0.22524112717E+04  0.00000000000E+00 0. -1.
         -1   -1    0    0    0  501 -0.00000000000E+00 -0.00000000000E+00 -0.26764999559E+03  0.26764999559E+03  0.00000000000E+00 0.  1.
         24    2    1    2    0    0  0.18700813120E+03  0.37307204596E+03  0.18187834084E+03  0.46243930689E+03  0.81336271654E+02 0.  0.
        254    2    1    2    0    0 -0.18700813120E+03 -0.37307204596E+03  0.18028829352E+04  0.20576219604E+04  0.89959238602E+03 0.  0.
         23    2    4    4    0    0  0.60764744987E+02 -0.40658319081E+03  0.17319122783E+04  0.17823322289E+04  0.90475349615E+02 0.  0.
         23    2    4    4    0    0 -0.24777287618E+03  0.33511144849E+02  0.70970656892E+02  0.27528973150E+03  0.90737021813E+02 0.  0.
          2    1    3    3  502    0  0.11125300168E+03  0.19725201039E+03  0.55893510266E+02  0.23325880579E+03  0.00000000000E+00 0. -1.
         -1    1    3    3    0  502  0.75755129518E+02  0.17582003556E+03  0.12598483057E+03  0.22918050111E+03  0.00000000000E+00 0.  1.
         11    1    5    5    0    0  0.73324928642E+02 -0.20245159887E+03  0.82381000262E+03  0.85148465369E+03  0.00000000000E+00 0. -1.
        -11    1    5    5    0    0 -0.12560183655E+02 -0.20413159193E+03  0.90810227572E+03  0.93084757517E+03  0.00000000000E+00 0.  1.
          3    1    6    6  503    0 -0.17309816133E+03  0.24761890783E+02  0.91497805643E+02  0.19735240847E+03  0.00000000000E+00 0. -1.
         -3    1    6    6    0  503 -0.74674714855E+02  0.87492540662E+01 -0.20527148751E+02  0.77937323031E+02  0.00000000000E+00 0.  1.
<mgrwt>
<rscale>  0 0.15528784E+04</rscale>
<asrwt>0</asrwt>
<pdfrwt beam="1">  1        2 0.34652480E+00 0.15528784E+04</pdfrwt>
<pdfrwt beam="2">  1       -1 0.41176924E-01 0.15528784E+04</pdfrwt>
<totfact> 0.30567473E+01</totfact>
</mgrwt>
</event>
<event>
12    6  0.1395358E-007  0.3502426E+04  0.7818608E-02  0.8113215E-01
          2   -1    0    0  501    0  0.00000000000E+00  0.00000000000E+00  0.32633082593E+04  0.32633082593E+04  0.00000000000E+00 0. -1.
         -1   -1    0    0    0  501 -0.00000000000E+00 -0.00000000000E+00 -0.93976610952E+03  0.93976610952E+03  0.00000000000E+00 0.  1.
         24    2    1    2    0    0  0.76347036314E+03 -0.14426557409E+04  0.98018627802E+03  0.19056186914E+04  0.80466610108E+02 0.  0.
        254    2    1    2    0    0 -0.76347036314E+03  0.14426557409E+04  0.13433558718E+04  0.22974556774E+04  0.89975274887E+03 0.  0.
         23    2    4    4    0    0 -0.94012047523E+03  0.11491336206E+04  0.93508018926E+03  0.17565482687E+04  0.82172221226E+02 0.  0.
         23    2    4    4    0    0  0.17665011209E+03  0.29352212035E+03  0.40827568251E+03  0.54090740871E+03  0.92365007611E+02 0.  0.
          2    1    3    3  502    0  0.10120147336E+03 -0.14782738635E+03  0.12508912254E+03  0.21849934312E+03  0.00000000000E+00 0. -1.
         -1    1    3    3    0  502  0.66226888977E+03 -0.12948283546E+04  0.85509715548E+03  0.16871193483E+04  0.00000000000E+00 0.  1.
         11    1    5    5    0    0 -0.24149205988E+03  0.35366622067E+03  0.26517254463E+03  0.50370099171E+03  0.00000000000E+00 0. -1.
        -11    1    5    5    0    0 -0.69862841535E+03  0.79546739992E+03  0.66990764462E+03  0.12528472770E+04  0.00000000000E+00 0.  1.
          4    1    6    6  503    0  0.18719574372E+03  0.28354048155E+03  0.39689338559E+03  0.52245747259E+03  0.00000000000E+00 0.  1.
         -4    1    6    6    0  503 -0.10545631625E+02  0.99816388047E+01  0.11382296919E+02  0.18449936118E+02  0.00000000000E+00 0. -1.
<mgrwt>
<rscale>  0 0.35024257E+04</rscale>
<asrwt>0</asrwt>
<pdfrwt beam="1">  1        2 0.50204742E+00 0.35024257E+04</pdfrwt>
<pdfrwt beam="2">  1       -1 0.14457940E+00 0.35024257E+04</pdfrwt>
<totfact> 0.42266246E-01</totfact>
</mgrwt>
</event>
<event>
12    6  0.1395358E-007  0.3520202E+04  0.7818608E-02  0.8109019E-01
          2   -1    0    0  501    0  0.00000000000E+00  0.00000000000E+00  0.19061432821E+04  0.19061432821E+04  0.00000000000E+00 0. -1.
         -1   -1    0    0    0  501 -0.00000000000E+00 -0.00000000000E+00 -0.16252484395E+04  0.16252484395E+04  0.00000000000E+00 0.  1.
         24    2    1    2    0    0  0.63230739088E+03 -0.85561225012E+03  0.13877507498E+04  0.17502783426E+04  0.75744134498E+02 0.  0.
        254    2    1    2    0    0 -0.63230739088E+03  0.85561225012E+03 -0.11068559072E+04  0.17811133790E+04  0.90296728097E+03 0.  0.
         23    2    4    4    0    0 -0.39610445935E+03  0.14280846406E+03 -0.89818286370E+03  0.99611132105E+03  0.90621780845E+02 0.  0.
         23    2    4    4    0    0 -0.23620293154E+03  0.71280378606E+03 -0.20867304346E+03  0.78500205794E+03  0.93822862970E+02 0.  0.
          4    1    3    3  502    0  0.11286897926E+03 -0.12757874646E+03  0.26216727146E+03  0.31264583997E+03  0.00000000000E+00 0. -1.
         -3    1    3    3    0  502  0.51943841163E+03 -0.72803350366E+03  0.11255834783E+04  0.14376325026E+04  0.00000000000E+00 0.  1.
         11    1    5    5    0    0 -0.10744787432E+03  0.21226468494E+02 -0.32461784419E+03  0.34259648776E+03  0.00000000000E+00 0. -1.
        -11    1    5    5    0    0 -0.28865658502E+03  0.12158199557E+03 -0.57356501951E+03  0.65351483329E+03  0.00000000000E+00 0.  1.
          3    1    6    6  503    0 -0.15384780779E+03  0.42044600279E+03 -0.16962856650E+03  0.47876699949E+03  0.00000000000E+00 0. -1.
         -3    1    6    6    0  503 -0.82355123741E+02  0.29235778327E+03 -0.39044476961E+02  0.30623505845E+03  0.00000000000E+00 0.  1.
<mgrwt>
<rscale>  0 0.35202025E+04</rscale>
<asrwt>0</asrwt>
<pdfrwt beam="1">  1        2 0.29325281E+00 0.35202025E+04</pdfrwt>
<pdfrwt beam="2">  1       -1 0.25003822E+00 0.35202025E+04</pdfrwt>
<totfact> 0.48996204E-01</totfact>
</mgrwt>
</event>
<event>
12    6  0.1395358E-007  0.2299032E+04  0.7818608E-02  0.8478303E-01
          2   -1    0    0  501    0  0.00000000000E+00  0.00000000000E+00  0.17354800623E+04  0.17354800623E+04  0.00000000000E+00 0. -1.
         -1   -1    0    0    0  501 -0.00000000000E+00 -0.00000000000E+00 -0.76139567156E+03  0.76139567156E+03  0.00000000000E+00 0.  1.
         24    2    1    2    0    0 -0.10394169868E+03  0.46854661183E+03  0.13301491290E+04  0.14162799976E+04  0.78819553733E+02 0.  0.
        254    2    1    2    0    0  0.10394169868E+03 -0.46854661183E+03 -0.35606473827E+03  0.10805957362E+04  0.90031396922E+03 0.  0.
         23    2    4    4    0    0 -0.38428253147E+03 -0.12314497980E+03 -0.17196188509E+03  0.44837494675E+03  0.92905612889E+02 0.  0.
         23    2    4    4    0    0  0.48822423015E+03 -0.34540163203E+03 -0.18410285318E+03  0.63222078950E+03  0.90244555523E+02 0.  0.
          4    1    3    3  502    0 -0.65068513217E+02  0.22828434746E+03  0.76412277383E+03  0.80014452957E+03  0.00000000000E+00 0. -1.
         -3    1    3    3    0  502 -0.38873185464E+02  0.24026226437E+03  0.56602635518E+03  0.61613546804E+03  0.00000000000E+00 0.  1.
         11    1    5    5    0    0 -0.35548541510E+02 -0.44614382168E+01 -0.47592348614E+02  0.59570419514E+02  0.00000000000E+00 0.  1.
        -11    1    5    5    0    0 -0.34873398996E+03 -0.11868354158E+03 -0.12436953647E+03  0.38880452724E+03  0.00000000000E+00 0. -1.
          2    1    6    6  503    0  0.84284796800E+02 -0.37096438692E+02 -0.10211748782E+01  0.92092972226E+02  0.00000000000E+00 0.  1.
         -2    1    6    6    0  503  0.40393943335E+03 -0.30830519334E+03 -0.18308167830E+03  0.54012781727E+03  0.00000000000E+00 0. -1.
<mgrwt>
<rscale>  0 0.22990320E+04</rscale>
<asrwt>0</asrwt>
<pdfrwt beam="1">  1        2 0.26699693E+00 0.22990320E+04</pdfrwt>
<pdfrwt beam="2">  1       -1 0.11713780E+00 0.22990320E+04</pdfrwt>
<totfact> 0.63520408E+00</totfact>
</mgrwt>
</event>
<event>
12    6  0.1395358E-007  0.2162977E+04  0.7818608E-02  0.8533998E-01
         -1   -1    0    0    0  501 -0.00000000000E+00  0.00000000000E+00  0.52165270031E+03  0.52165270031E+03  0.00000000000E+00 0.  1.
          2   -1    0    0  501    0  0.00000000000E+00 -0.00000000000E+00 -0.22421374991E+04  0.22421374991E+04  0.00000000000E+00 0. -1.
         24    2    1    2    0    0 -0.76843322846E+03 -0.14842818283E+03 -0.12594656515E+04  0.14849852242E+04  0.80042716810E+02 0.  0.
        254    2    1    2    0    0  0.76843322846E+03  0.14842818283E+03 -0.46101914729E+03  0.12788049753E+04  0.90015718549E+03 0.  0.
         23    2    4    4    0    0  0.76320644500E+03  0.40976279053E+03 -0.49187121126E+03  0.10011800283E+04  0.10017254317E+03 0.  0.
         23    2    4    4    0    0  0.52267834642E+01 -0.26133460771E+03  0.30852063966E+02  0.27762494699E+03  0.88321372780E+02 0.  0.
          4    1    3    3  502    0 -0.59415808501E+03 -0.13897047881E+03 -0.10215656785E+04  0.11899298549E+04  0.00000000000E+00 0. -1.
         -3    1    3    3    0  502 -0.17427514345E+03 -0.94577040127E+01 -0.23789997302E+03  0.29505536930E+03  0.00000000000E+00 0.  1.
         11    1    5    5    0    0  0.32284314929E+03  0.12455818260E+03 -0.22270041661E+03  0.41150688384E+03  0.00000000000E+00 0.  1.
        -11    1    5    5    0    0  0.44036329571E+03  0.28520460793E+03 -0.26917079465E+03  0.58967314445E+03  0.00000000000E+00 0. -1.
          3    1    6    6  503    0  0.37608299488E+02 -0.21717897048E+03  0.16551543186E+02  0.22103176919E+03  0.00000000000E+00 0. -1.
         -3    1    6    6    0  503 -0.32381516024E+02 -0.44155637223E+02  0.14300520781E+02  0.56593177798E+02  0.00000000000E+00 0.  1.
<mgrwt>
<rscale>  0 0.21629767E+04</rscale>
<asrwt>0</asrwt>
<pdfrwt beam="1">  1        2 0.34494423E+00 0.21629767E+04</pdfrwt>
<pdfrwt beam="2">  1       -1 0.80254262E-01 0.21629767E+04</pdfrwt>
<totfact> 0.79034351E+00</totfact>
</mgrwt>
</event>
<event>
12    6  0.1395358E-007  0.3990594E+04  0.7818608E-02  0.8006447E-01
         -1   -1    0    0    0  501 -0.00000000000E+00  0.00000000000E+00  0.15593291501E+04  0.15593291501E+04  0.00000000000E+00 0.  1.
          2   -1    0    0  501    0  0.00000000000E+00 -0.00000000000E+00 -0.25531551217E+04  0.25531551217E+04  0.00000000000E+00 0. -1.
         24    2    1    2    0    0 -0.10557050135E+04  0.12005300334E+04  0.57175178397E+03  0.16997267119E+04  0.79908422180E+02 0.  0.
        254    2    1    2    0    0  0.10557050135E+04 -0.12005300334E+04 -0.15655777556E+04  0.24127575599E+04  0.90254080103E+03 0.  0.
         23    2    4    4    0    0  0.22995222566E+03 -0.41041424872E+03 -0.89137363267E+01  0.47927296708E+03  0.91133093014E+02 0.  0.
         23    2    4    4    0    0  0.82575278781E+03 -0.79011578470E+03 -0.15566640193E+04  0.19334845928E+04  0.94916711085E+02 0.  0.
          2    1    3    3  502    0 -0.43112250776E+03  0.50679586393E+03  0.27823643923E+03  0.72119635364E+03  0.00000000000E+00 0. -1.
         -1    1    3    3    0  502 -0.62458250571E+03  0.69373416949E+03  0.29351534474E+03  0.97853035822E+03  0.00000000000E+00 0.  1.
         11    1    5    5    0    0  0.66485683909E+02 -0.81093988068E+02  0.31262244780E+02  0.10942535819E+03  0.00000000000E+00 0. -1.
        -11    1    5    5    0    0  0.16346654175E+03 -0.32932026065E+03 -0.40175981107E+02  0.36984760890E+03  0.00000000000E+00 0.  1.
          2    1    6    6  503    0  0.68971527685E+03 -0.61285887226E+03 -0.12793969576E+04  0.15773901659E+04  0.00000000000E+00 0.  1.
         -2    1    6    6    0  503  0.13603751097E+03 -0.17725691243E+03 -0.27726706172E+03  0.35609442696E+03  0.00000000000E+00 0. -1.
<mgrwt>
<rscale>  0 0.39905935E+04</rscale>
<asrwt>0</asrwt>
<pdfrwt beam="1">  1        2 0.39279310E+00 0.39905935E+04</pdfrwt>
<pdfrwt beam="2">  1       -1 0.23989679E+00 0.39905935E+04</pdfrwt>
<totfact> 0.23617398E-01</totfact>
</mgrwt>
</event>
<event>
12    6  0.1395358E-007  0.1668809E+04  0.7818608E-02  0.8779356E-01
         -1   -1    0    0    0  501 -0.00000000000E+00  0.00000000000E+00  0.32611492402E+03  0.32611492402E+03  0.00000000000E+00 0.  1.
          2   -1    0    0  501    0  0.00000000000E+00 -0.00000000000E+00 -0.21349250993E+04  0.21349250993E+04  0.00000000000E+00 0. -1.
         24    2    1    2    0    0  0.41658030838E+03  0.34092019881E+03 -0.99620881910E+03  0.11351474428E+04  0.79761960513E+02 0.  0.
        254    2    1    2    0    0 -0.41658030838E+03 -0.34092019881E+03 -0.81260135622E+03  0.13258925806E+04  0.89883504371E+03 0.  0.
         23    2    4    4    0    0 -0.49680775680E+03 -0.54974351702E+03 -0.78159425102E+03  0.10814930519E+04  0.98497545292E+02 0.  0.
         23    2    4    4    0    0  0.80227448414E+02  0.20882331821E+03 -0.31007105195E+02  0.24439952864E+03  0.93413421513E+02 0.  0.
          4    1    3    3  502    0  0.25827978722E+03  0.25918809421E+03 -0.68090265455E+03  0.77299116531E+03  0.00000000000E+00 0. -1.
         -3    1    3    3    0  502  0.15830052116E+03  0.81732104596E+02 -0.31530616455E+03  0.36215627749E+03  0.00000000000E+00 0.  1.
         11    1    5    5    0    0 -0.36240745770E+03 -0.45739284768E+03 -0.58904211648E+03  0.82916705041E+03  0.00000000000E+00 0. -1.
        -11    1    5    5    0    0 -0.13440029910E+03 -0.92350669334E+02 -0.19255213454E+03  0.25232600152E+03  0.00000000000E+00 0.  1.
          2    1    6    6  503    0  0.76380934729E+01  0.13469929445E+03 -0.38730191279E+02  0.14036476806E+03  0.00000000000E+00 0. -1.
         -2    1    6    6    0  503  0.72589354941E+02  0.74124023762E+02  0.77230860837E+01  0.10403476058E+03  0.00000000000E+00 0.  1.
<mgrwt>
<rscale>  0 0.16688091E+04</rscale>
<asrwt>0</asrwt>
<pdfrwt beam="1">  1        2 0.32845001E+00 0.16688091E+04</pdfrwt>
<pdfrwt beam="2">  1       -1 0.50171528E-01 0.16688091E+04</pdfrwt>
<totfact> 0.24344511E+01</totfact>
</mgrwt>
</event>
<event>
12    6  0.1395358E-007  0.2029328E+04  0.7818608E-02  0.8593031E-01
         -1   -1    0    0    0  501 -0.00000000000E+00  0.00000000000E+00  0.10857001325E+04  0.10857001325E+04  0.00000000000E+00 0.  1.
          2   -1    0    0  501    0  0.00000000000E+00 -0.00000000000E+00 -0.94827528372E+03  0.94827528372E+03  0.00000000000E+00 0. -1.
         24    2    1    2    0    0  0.77534849278E+03  0.23076219305E+03  0.12209711972E+03  0.82170039359E+03  0.76598663121E+02 0.  0.
        254    2    1    2    0    0 -0.77534849278E+03 -0.23076219305E+03  0.15327729036E+02  0.12122750226E+04  0.90275097129E+03 0.  0.
         23    2    4    4    0    0 -0.31697859430E+03 -0.48046173356E+03 -0.23271668211E+03  0.62699966434E+03  0.87479244931E+02 0.  0.
         23    2    4    4    0    0 -0.45836989848E+03  0.24969954050E+03  0.24804441114E+03  0.58527535826E+03  0.92565602339E+02 0.  0.
          2    1    3    3  502    0  0.74520523823E+03  0.20907100964E+03  0.10591409600E+03  0.78119096890E+03  0.00000000000E+00 0. -1.
         -1    1    3    3    0  502  0.30143254550E+02  0.21691183411E+02  0.16183023714E+02  0.40509424696E+02  0.00000000000E+00 0.  1.
         11    1    5    5    0    0 -0.27878938911E+03 -0.37403612591E+03 -0.21036264952E+03  0.51174113699E+03  0.00000000000E+00 0.  1.
        -11    1    5    5    0    0 -0.38189205196E+02 -0.10642560764E+03 -0.22354032584E+02  0.11525852736E+03  0.00000000000E+00 0. -1.
          4    1    6    6  503    0 -0.66022599259E+02  0.72316986910E+02  0.64176520630E+02  0.11707841820E+03  0.00000000000E+00 0. -1.
         -4    1    6    6    0  503 -0.39234729922E+03  0.17738255359E+03  0.18386789051E+03  0.46819694006E+03  0.00000000000E+00 0.  1.
<mgrwt>
<rscale>  0 0.20293276E+04</rscale>
<asrwt>0</asrwt>
<pdfrwt beam="1">  1        2 0.14588851E+00 0.20293276E+04</pdfrwt>
<pdfrwt beam="2">  1       -1 0.16703079E+00 0.20293276E+04</pdfrwt>
<totfact> 0.74495356E+00</totfact>
</mgrwt>
</event>
<event>
12    6  0.1395358E-007  0.2167096E+04  0.7818608E-02  0.8532250E-01
         -1   -1    0    0    0  501 -0.00000000000E+00  0.00000000000E+00  0.12235417446E+04  0.12235417446E+04  0.00000000000E+00 0.  1.
          2   -1    0    0  501    0  0.00000000000E+00 -0.00000000000E+00 -0.95957198334E+03  0.95957198334E+03  0.00000000000E+00 0. -1.
         24    2    1    2    0    0 -0.31360478353E+03 -0.82285600283E+03 -0.49658243892E+02  0.88548847975E+03  0.78638062810E+02 0.  0.
        254    2    1    2    0    0  0.31360478353E+03  0.82285600283E+03  0.31362800511E+03  0.12976252481E+04  0.90001599840E+03 0.  0.
         23    2    4    4    0    0  0.37776870379E+03  0.43583574934E+02 -0.10636608508E+03  0.40534196745E+03  0.91540400654E+02 0.  0.
         23    2    4    4    0    0 -0.64163920259E+02  0.77927242790E+03  0.41999409020E+03  0.89228328070E+03  0.91607268604E+02 0.  0.
          2    1    3    3  502    0 -0.23206019884E+03 -0.68550767771E+03 -0.53650656054E+02  0.72570731358E+03  0.00000000000E+00 0. -1.
         -1    1    3    3    0  502 -0.81544584696E+02 -0.13734832512E+03  0.39924121625E+01  0.15978116617E+03  0.00000000000E+00 0.  1.
         11    1    5    5    0    0  0.21320399158E+03 -0.19370973264E+02 -0.71690053135E+02  0.22576678310E+03  0.00000000000E+00 0. -1.
        -11    1    5    5    0    0  0.16456471221E+03  0.62954548199E+02 -0.34676031948E+02  0.17957518435E+03  0.00000000000E+00 0.  1.
          3    1    6    6  503    0 -0.88938540590E+01  0.37637623483E+03  0.15650988364E+03  0.40771744439E+03  0.00000000000E+00 0. -1.
         -3    1    6    6    0  503 -0.55270066200E+02  0.40289619307E+03  0.26348420656E+03  0.48456583631E+03  0.00000000000E+00 0.  1.
<mgrwt>
<rscale>  0 0.21670961E+04</rscale>
<asrwt>0</asrwt>
<pdfrwt beam="1">  1        2 0.14762646E+00 0.21670961E+04</pdfrwt>
<pdfrwt beam="2">  1       -1 0.18823719E+00 0.21670961E+04</pdfrwt>
<totfact> 0.50859833E+00</totfact>
</mgrwt>
</event>
<event>
12    6  0.1395358E-007  0.1581597E+04  0.7818608E-02  0.8831934E-01
          2   -1    0    0  501    0  0.00000000000E+00  0.00000000000E+00  0.20155399208E+04  0.20155399208E+04  0.00000000000E+00 0. -1.
         -1   -1    0    0    0  501 -0.00000000000E+00 -0.00000000000E+00 -0.31027036148E+03  0.31027036148E+03  0.00000000000E+00 0.  1.
         24    2    1    2    0    0  0.42638381717E+03 -0.31541335740E+03  0.62855164555E+03  0.82621427294E+03  0.79146118767E+02 0.  0.
        254    2    1    2    0    0 -0.42638381717E+03  0.31541335740E+03  0.10767179138E+04  0.14995960094E+04  0.89898719672E+03 0.  0.
         23    2    4    4    0    0 -0.14039039696E+03 -0.30364333892E+03  0.27029459939E+03  0.43949645128E+03  0.90494305907E+02 0.  0.
         23    2    4    4    0    0 -0.28599342021E+03  0.61905669632E+03  0.80642331442E+03  0.10600995581E+04  0.92027612077E+02 0.  0.
          2    1    3    3  502    0  0.27202220539E+03 -0.17117553823E+03  0.33176736752E+03  0.46191636826E+03  0.00000000000E+00 0. -1.
         -1    1    3    3    0  502  0.15436161178E+03 -0.14423781917E+03  0.29678427803E+03  0.36429790468E+03  0.00000000000E+00 0.  1.
         11    1    5    5    0    0 -0.26378097601E+02 -0.20956109471E+02  0.25431044933E+01  0.33785054945E+02  0.00000000000E+00 0.  1.
        -11    1    5    5    0    0 -0.11401229936E+03 -0.28268722945E+03  0.26775149490E+03  0.40571139634E+03  0.00000000000E+00 0. -1.
          1    1    6    6  503    0 -0.24310631011E+03  0.50241800625E+03  0.70814558562E+03  0.90166218810E+03  0.00000000000E+00 0. -1.
         -1    1    6    6    0  503 -0.42887110104E+02  0.11663869007E+03  0.98277728799E+02  0.15843737000E+03  0.00000000000E+00 0.  1.
<mgrwt>
<rscale>  0 0.15815970E+04</rscale>
<asrwt>0</asrwt>
<pdfrwt beam="1">  1        2 0.31008306E+00 0.15815970E+04</pdfrwt>
<pdfrwt beam="2">  1       -1 0.47733903E-01 0.15815970E+04</pdfrwt>
<totfact> 0.31409941E+01</totfact>
</mgrwt>
</event>
<event>
12    6  0.1395358E-007  0.1210422E+04  0.7818608E-02  0.9103783E-01
          2   -1    0    0  501    0  0.00000000000E+00  0.00000000000E+00  0.37880925655E+03  0.37880925655E+03  0.00000000000E+00 0. -1.
         -1   -1    0    0    0  501 -0.00000000000E+00 -0.00000000000E+00 -0.96692479281E+03  0.96692479281E+03  0.00000000000E+00 0.  1.
         24    2    1    2    0    0 -0.21593357808E+02  0.22791239004E+03 -0.27784543020E+03  0.36535705561E+03  0.62268486096E+02 0.  0.
        254    2    1    2    0    0  0.21593357808E+02 -0.22791239004E+03 -0.31027010605E+03  0.98037699375E+03  0.90136628544E+03 0.  0.
         23    2    4    4    0    0 -0.21198367659E+03 -0.28974134463E+03 -0.52621059754E+03  0.64350921106E+03  0.91210667310E+02 0.  0.
         23    2    4    4    0    0  0.23357703440E+03  0.61828954588E+02  0.21594049149E+03  0.33686778269E+03  0.92024760389E+02 0.  0.
          2    1    3    3  502    0  0.12440136218E+02  0.72282063498E+02 -0.56205525950E+02  0.92404084542E+02  0.00000000000E+00 0. -1.
         -1    1    3    3    0  502 -0.34033494026E+02  0.15563032654E+03 -0.22163990425E+03  0.27295297106E+03  0.00000000000E+00 0.  1.
         11    1    5    5    0    0 -0.20739116517E+03 -0.25366174973E+03 -0.50319837524E+03  0.60046980233E+03  0.00000000000E+00 0.  1.
        -11    1    5    5    0    0 -0.45925114270E+01 -0.36079594892E+02 -0.23012222300E+02  0.43039408731E+02  0.00000000000E+00 0. -1.
          1    1    6    6  503    0  0.39259327646E+02  0.33567291528E+02  0.89446243709E+02  0.10328934302E+03  0.00000000000E+00 0. -1.
         -1    1    6    6    0  503  0.19431770676E+03  0.28261663060E+02  0.12649424778E+03  0.23357843967E+03  0.00000000000E+00 0.  1.
<mgrwt>
<rscale>  0 0.12104215E+04</rscale>
<asrwt>0</asrwt>
<pdfrwt beam="1">  1        2 0.58278348E-01 0.12104215E+04</pdfrwt>
<pdfrwt beam="2">  1       -1 0.14875766E+00 0.12104215E+04</pdfrwt>
<totfact> 0.34058728E+01</totfact>
</mgrwt>
</event>
<event>
12    6  0.1395358E-007  0.2291403E+04  0.7818608E-02  0.8481318E-01
          2   -1    0    0  501    0  0.00000000000E+00  0.00000000000E+00  0.23362905725E+04  0.23362905725E+04  0.00000000000E+00 0. -1.
         -1   -1    0    0    0  501 -0.00000000000E+00 -0.00000000000E+00 -0.56184454664E+03  0.56184454664E+03  0.00000000000E+00 0.  1.
         24    2    1    2    0    0  0.67186863271E+03 -0.32835149448E+03 -0.24307666189E+02  0.75227354117E+03  0.78118208912E+02 0.  0.
        254    2    1    2    0    0 -0.67186863271E+03  0.32835149448E+03  0.17987536920E+04  0.21458615779E+04  0.89999161306E+03 0.  0.
         23    2    4    4    0    0 -0.14721483377E+03  0.40254395208E+03  0.24616832724E+03  0.50296260534E+03  0.93052116561E+02 0.  0.
         23    2    4    4    0    0 -0.52465379894E+03 -0.74192457601E+02  0.15525853648E+04  0.16428989726E+04  0.88484969042E+02 0.  0.
          4    1    3    3  502    0  0.62662120142E+03 -0.29526298062E+03 -0.41772236494E+01  0.69271336567E+03  0.00000000000E+00 0. -1.
         -3    1    3    3    0  502  0.45247431295E+02 -0.33088513862E+02 -0.20130442539E+02  0.59560175497E+02  0.00000000000E+00 0.  1.
         11    1    5    5    0    0 -0.19697388916E+02  0.42268450753E+02  0.65056391212E+02  0.80043382592E+02  0.00000000000E+00 0.  1.
        -11    1    5    5    0    0 -0.12751744486E+03  0.36027550133E+03  0.18111193603E+03  0.42291922275E+03  0.00000000000E+00 0. -1.
          2    1    6    6  503    0 -0.24934675162E+02 -0.23468614677E+02  0.12112002795E+03  0.12586729151E+03  0.00000000000E+00 0.  1.
         -2    1    6    6    0  503 -0.49971912377E+03 -0.50723842924E+02  0.14314653368E+04  0.15170316811E+04  0.00000000000E+00 0. -1.
<mgrwt>
<rscale>  0 0.22914032E+04</rscale>
<asrwt>0</asrwt>
<pdfrwt beam="1">  1        2 0.35942931E+00 0.22914032E+04</pdfrwt>
<pdfrwt beam="2">  1       -1 0.86437624E-01 0.22914032E+04</pdfrwt>
<totfact> 0.58903824E+00</totfact>
</mgrwt>
</event>
<event>
12    6  0.1395358E-007  0.3058716E+04  0.7818608E-02  0.8227160E-01
         -1   -1    0    0    0  501 -0.00000000000E+00  0.00000000000E+00  0.64533016155E+03  0.64533016155E+03  0.00000000000E+00 0.  1.
          2   -1    0    0  501    0  0.00000000000E+00 -0.00000000000E+00 -0.36244027039E+04  0.36244027039E+04  0.00000000000E+00 0. -1.
         24    2    1    2    0    0 -0.29721546489E+03  0.51599857887E+02 -0.32654649294E+04  0.32802254590E+04  0.74955177286E+02 0.  0.
        254    2    1    2    0    0  0.29721546489E+03 -0.51599857887E+02  0.28639238704E+03  0.98950740649E+03  0.89783335327E+03 0.  0.
         23    2    4    4    0    0 -0.25581399138E+03 -0.16749182024E+03  0.26374963139E+03  0.41646811218E+03  0.10191914626E+03 0.  0.
         23    2    4    4    0    0  0.55302945627E+03  0.11589196235E+03  0.22642755646E+02  0.57303929430E+03  0.92675843612E+02 0.  0.
          2    1    3    3  502    0 -0.25399206411E+03  0.33423922656E+02 -0.29739463685E+04  0.29849599880E+04  0.00000000000E+00 0. -1.
         -1    1    3    3    0  502 -0.43223400782E+02  0.18175935231E+02 -0.29151856093E+03  0.29526547099E+03  0.00000000000E+00 0.  1.
         11    1    5    5    0    0 -0.38104249423E+02 -0.65127243403E+02  0.10075362105E+03  0.12587606528E+03  0.00000000000E+00 0.  1.
        -11    1    5    5    0    0 -0.21770974196E+03 -0.10236457684E+03  0.16299601035E+03  0.29059204690E+03  0.00000000000E+00 0. -1.
          1    1    6    6  503    0  0.32309913517E+03  0.11176992676E+03  0.27804765941E+02  0.34301409984E+03  0.00000000000E+00 0. -1.
         -1    1    6    6    0  503  0.22993032110E+03  0.41220355864E+01 -0.51620102951E+01  0.23002519447E+03  0.00000000000E+00 0.  1.
<mgrwt>
<rscale>  0 0.30587163E+04</rscale>
<asrwt>0</asrwt>
<pdfrwt beam="1">  1        2 0.55760042E+00 0.30587163E+04</pdfrwt>
<pdfrwt beam="2">  1       -1 0.99281563E-01 0.30587163E+04</pdfrwt>
<totfact> 0.62101573E-01</totfact>
</mgrwt>
</event>
<event>
12    6  0.1395358E-007  0.2149565E+04  0.7818608E-02  0.8539718E-01
          2   -1    0    0  501    0  0.00000000000E+00  0.00000000000E+00  0.91910936147E+03  0.91910936147E+03  0.00000000000E+00 0. -1.
         -1   -1    0    0    0  501 -0.00000000000E+00 -0.00000000000E+00 -0.12568227039E+04  0.12568227039E+04  0.00000000000E+00 0.  1.
         24    2    1    2    0    0 -0.63935888885E+03  0.52736078153E+03 -0.45591449218E+03  0.94911597836E+03  0.77935444760E+02 0.  0.
        254    2    1    2    0    0  0.63935888885E+03 -0.52736078153E+03  0.11820114972E+03  0.12268160870E+04  0.89678147669E+03 0.  0.
         23    2    4    4    0    0  0.51251452502E+03 -0.70000862586E+03 -0.13543668861E+03  0.88227140617E+03  0.85886686403E+02 0.  0.
         23    2    4    4    0    0  0.12684436384E+03  0.17264784432E+03  0.25363783833E+03  0.34454468085E+03  0.92098389155E+02 0.  0.
          4    1    3    3  502    0 -0.24154461580E+03  0.24902498892E+03 -0.19085820107E+03  0.39595971947E+03  0.00000000000E+00 0. -1.
         -3    1    3    3    0  502 -0.39781427305E+03  0.27833579262E+03 -0.26505629110E+03  0.55315625889E+03  0.00000000000E+00 0.  1.
         11    1    5    5    0    0  0.34757245510E+03 -0.52649711546E+03 -0.12147154147E+03  0.64246490917E+03  0.00000000000E+00 0.  1.
        -11    1    5    5    0    0  0.16494206992E+03 -0.17351151040E+03 -0.13965147143E+02  0.23980649700E+03  0.00000000000E+00 0. -1.
          1    1    6    6  503    0  0.63613594117E+02  0.14537982651E+03  0.20925560568E+03  0.26262119454E+03  0.00000000000E+00 0. -1.
         -1    1    6    6    0  503  0.63230769719E+02  0.27268017811E+02  0.44382232650E+02  0.81923486313E+02  0.00000000000E+00 0.  1.
<mgrwt>
<rscale>  0 0.21495651E+04</rscale>
<asrwt>0</asrwt>
<pdfrwt beam="1">  1        2 0.14140144E+00 0.21495651E+04</pdfrwt>
<pdfrwt beam="2">  1       -1 0.19335734E+00 0.21495651E+04</pdfrwt>
<totfact> 0.49880622E+00</totfact>
</mgrwt>
</event>
<event>
12    6  0.1395358E-007  0.1458233E+04  0.7818608E-02  0.8912713E-01
         -1   -1    0    0    0  501 -0.00000000000E+00  0.00000000000E+00  0.89876841506E+03  0.89876841506E+03  0.00000000000E+00 0.  1.
          2   -1    0    0  501    0  0.00000000000E+00 -0.00000000000E+00 -0.59148818306E+03  0.59148818306E+03  0.00000000000E+00 0. -1.
         24    2    1    2    0    0  0.41485826435E+03  0.77449090088E+02 -0.70155059382E+02  0.43519342437E+03  0.79786234424E+02 0.  0.
        254    2    1    2    0    0 -0.41485826435E+03 -0.77449090088E+02  0.37743529138E+03  0.10550631737E+04  0.89027813651E+03 0.  0.
         23    2    4    4    0    0 -0.36768639887E+03 -0.18252802791E+03 -0.19506219772E+03  0.46385526704E+03  0.92750627463E+02 0.  0.
         23    2    4    4    0    0 -0.47171865482E+02  0.10507893782E+03  0.57249748910E+03  0.59120790671E+03  0.92231479748E+02 0.  0.
          2    1    3    3  502    0  0.36072083552E+03  0.92539297765E+02 -0.70368678884E+02  0.37899181228E+03  0.00000000000E+00 0. -1.
         -1    1    3    3    0  502  0.54137428831E+02 -0.15090207676E+02  0.21361950212E+00  0.56201612089E+02  0.00000000000E+00 0.  1.
         11    1    5    5    0    0 -0.37328493607E+03 -0.18067507205E+03 -0.19036328451E+03  0.45631491894E+03  0.00000000000E+00 0. -1.
        -11    1    5    5    0    0  0.55985371968E+01 -0.18529558537E+01 -0.46989132069E+01  0.75403480998E+01  0.00000000000E+00 0.  1.
          2    1    6    6  503    0  0.14707897696E+02  0.56986400896E+02  0.35875836606E+03  0.36355376131E+03  0.00000000000E+00 0. -1.
         -2    1    6    6    0  503 -0.61879763178E+02  0.48092536923E+02  0.21373912304E+03  0.22765414540E+03  0.00000000000E+00 0.  1.
<mgrwt>
<rscale>  0 0.14582330E+04</rscale>
<asrwt>0</asrwt>
<pdfrwt beam="1">  1        2 0.90998182E-01 0.14582330E+04</pdfrwt>
<pdfrwt beam="2">  1       -1 0.13827206E+00 0.14582330E+04</pdfrwt>
<totfact> 0.24203181E+01</totfact>
</mgrwt>
</event>
<event>
12    6  0.1395358E-007  0.1222460E+04  0.7818608E-02  0.9093421E-01
         -1   -1    0    0    0  501 -0.00000000000E+00  0.00000000000E+00  0.65192180529E+03  0.65192180529E+03  0.00000000000E+00 0.  1.
          2   -1    0    0  501    0  0.00000000000E+00 -0.00000000000E+00 -0.57307816063E+03  0.57307816063E+03  0.00000000000E+00 0. -1.
         24    2    1    2    0    0 -0.14489110781E+01  0.27072749489E+03  0.76148697413E+01  0.28282184630E+03  0.81453880645E+02 0.  0.
        254    2    1    2    0    0  0.14489110781E+01 -0.27072749489E+03  0.71228774920E+02  0.94217811962E+03  0.89962803140E+03 0.  0.
         23    2    4    4    0    0  0.38512771581E+03  0.58213382671E+02 -0.77498411467E+02  0.40743999523E+03  0.91044991775E+02 0.  0.
         23    2    4    4    0    0 -0.38367880473E+03 -0.32894087756E+03  0.14872718639E+03  0.53473812439E+03  0.91725457627E+02 0.  0.
          4    1    3    3  502    0 -0.90970160825E+01  0.90622509857E+02 -0.35024608794E+02  0.97580316742E+02  0.00000000000E+00 0. -1.
         -1    1    3    3    0  502  0.76481050045E+01  0.18010498503E+03  0.42639478536E+02  0.18524152956E+03  0.00000000000E+00 0.  1.
         11    1    5    5    0    0  0.12266480308E+03  0.58732312607E+02 -0.96148180642E+01  0.13633995447E+03  0.00000000000E+00 0. -1.
        -11    1    5    5    0    0  0.26246291273E+03 -0.51892993640E+00 -0.67883593403E+02  0.27110004076E+03  0.00000000000E+00 0.  1.
          2    1    6    6  503    0 -0.71101188084E+01 -0.15181946516E+02 -0.10007523487E+02  0.19524236626E+02  0.00000000000E+00 0. -1.
         -2    1    6    6    0  503 -0.37656868592E+03 -0.31375893104E+03  0.15873470987E+03  0.51521388776E+03  0.00000000000E+00 0.  1.
<mgrwt>
<rscale>  0 0.12224601E+04</rscale>
<asrwt>0</asrwt>
<pdfrwt beam="1">  1        2 0.88165870E-01 0.12224601E+04</pdfrwt>
<pdfrwt beam="2">  1       -1 0.10029566E+00 0.12224601E+04</pdfrwt>
<totfact> 0.55917400E+01</totfact>
</mgrwt>
</event>
<event>
12    6  0.1395358E-007  0.2941533E+04  0.7818608E-02  0.8260626E-01
          2   -1    0    0  501    0  0.00000000000E+00  0.00000000000E+00  0.18861649069E+04  0.18861649069E+04  0.00000000000E+00 0. -1.
         -1   -1    0    0    0  501 -0.00000000000E+00 -0.00000000000E+00 -0.11468533552E+04  0.11468533552E+04  0.00000000000E+00 0.  1.
         24    2    1    2    0    0  0.85291207781E+03 -0.84829104148E+03 -0.25446693684E+03  0.12320411630E+04  0.78200396169E+02 0.  0.
        254    2    1    2    0    0 -0.85291207781E+03  0.84829104148E+03  0.99377848850E+03  0.18009770991E+04  0.89936984810E+03 0.  0.
         23    2    4    4    0    0  0.22494577142E+02  0.16270018589E+03  0.58256545970E+03  0.61195816075E+03  0.90182698958E+02 0.  0.
         23    2    4    4    0    0 -0.87540665495E+03  0.68559085559E+03  0.41121302880E+03  0.11890189383E+04  0.91094719006E+02 0.  0.
          2    1    3    3  502    0  0.59936152628E+03 -0.59181083537E+03 -0.14146324057E+03  0.85409961508E+03  0.00000000000E+00 0. -1.
         -1    1    3    3    0  502  0.25355055154E+03 -0.25648020611E+03 -0.11300369627E+03  0.37794154797E+03  0.00000000000E+00 0.  1.
         11    1    5    5    0    0 -0.30906811474E+02  0.26812788249E+02  0.14600572552E+03  0.15163056583E+03  0.00000000000E+00 0.  1.
        -11    1    5    5    0    0  0.53401388616E+02  0.13588739764E+03  0.43655973417E+03  0.46032759492E+03  0.00000000000E+00 0. -1.
          4    1    6    6  503    0 -0.72827265636E+03  0.55920173037E+03  0.30294949351E+03  0.96688470505E+03  0.00000000000E+00 0. -1.
         -4    1    6    6    0  503 -0.14713399860E+03  0.12638912522E+03  0.10826353530E+03  0.22213423327E+03  0.00000000000E+00 0.  1.
<mgrwt>
<rscale>  0 0.29415333E+04</rscale>
<asrwt>0</asrwt>
<pdfrwt beam="1">  1        2 0.29017921E+00 0.29415333E+04</pdfrwt>
<pdfrwt beam="2">  1       -1 0.17643898E+00 0.29415333E+04</pdfrwt>
<totfact> 0.16702350E+00</totfact>
</mgrwt>
</event>
<event>
12    6  0.1395358E-007  0.2735080E+04  0.7818608E-02  0.8323712E-01
         -3   -1    0    0    0  501 -0.00000000000E+00  0.00000000000E+00  0.11872949201E+04  0.11872949201E+04  0.00000000000E+00 0.  1.
          2   -1    0    0  501    0  0.00000000000E+00 -0.00000000000E+00 -0.15751479786E+04  0.15751479786E+04  0.00000000000E+00 0. -1.
         24    2    1    2    0    0 -0.11435951190E+04 -0.73270568736E+02  0.24335109061E+03  0.11745555359E+04  0.84750110110E+02 0.  0.
        254    2    1    2    0    0  0.11435951190E+04  0.73270568736E+02 -0.63120414908E+03  0.15878873628E+04  0.89988289603E+03 0.  0.
         23    2    4    4    0    0  0.11947322393E+04 -0.16262399087E+02 -0.74214498492E+03  0.14094044773E+04  0.89399176076E+02 0.  0.
         23    2    4    4    0    0 -0.51137120250E+02  0.89532967823E+02  0.11094083583E+03  0.17848288553E+03  0.94430471647E+02 0.  0.
          4    1    3    3  502    0 -0.60473699382E+03 -0.79653285016E+02  0.11790165531E+03  0.62125057572E+03  0.00000000000E+00 0. -1.
         -3    1    3    3    0  502 -0.53885812521E+03  0.63827162801E+01  0.12544943530E+03  0.55330496021E+03  0.00000000000E+00 0.  1.
         11    1    5    5    0    0  0.40068043869E+03  0.33112374782E+02 -0.22906772199E+03  0.46272374541E+03  0.00000000000E+00 0.  1.
        -11    1    5    5    0    0  0.79405180059E+03 -0.49374773869E+02 -0.51307726293E+03  0.94668073184E+03  0.00000000000E+00 0. -1.
          2    1    6    6  503    0 -0.46937073561E+02  0.10930997521E+03  0.10048661141E+03  0.15572192725E+03  0.00000000000E+00 0. -1.
         -2    1    6    6    0  503 -0.42000466886E+01 -0.19777007384E+02  0.10454224424E+02  0.22760958274E+02  0.00000000000E+00 0.  1.
<mgrwt>
<rscale>  0 0.27350797E+04</rscale>
<asrwt>0</asrwt>
<pdfrwt beam="1">  1        2 0.24233046E+00 0.27350797E+04</pdfrwt>
<pdfrwt beam="2">  1       -3 0.18266076E+00 0.27350797E+04</pdfrwt>
<totfact> 0.12086077E+00</totfact>
</mgrwt>
</event>
<event>
12    6  0.1395358E-007  0.1566775E+04  0.7818608E-02  0.8841223E-01
          2   -1    0    0  501    0  0.00000000000E+00  0.00000000000E+00  0.75134587425E+03  0.75134587425E+03  0.00000000000E+00 0. -1.
         -1   -1    0    0    0  501 -0.00000000000E+00 -0.00000000000E+00 -0.81679604318E+03  0.81679604318E+03  0.00000000000E+00 0.  1.
         24    2    1    2    0    0  0.14428153365E+03 -0.51194529000E+03 -0.18699060783E+02  0.53730420932E+03  0.73763253524E+02 0.  0.
        254    2    1    2    0    0 -0.14428153365E+03  0.51194529000E+03 -0.46751108144E+02  0.10308377081E+04  0.88177977605E+03 0.  0.
         23    2    4    4    0    0  0.27218351831E+03 -0.45182513759E+02  0.11220048222E+03  0.31154047511E+03  0.91341076362E+02 0.  0.
         23    2    4    4    0    0 -0.41646505196E+03  0.55712780376E+03 -0.15895159036E+03  0.71929723301E+03  0.91040497105E+02 0.  0.
          4    1    3    3  502    0  0.95924752167E+02 -0.43879483724E+03 -0.11233700470E+02  0.44929796716E+03  0.00000000000E+00 0. -1.
         -3    1    3    3    0  502  0.48356781482E+02 -0.73150452761E+02 -0.74653603124E+01  0.88006242160E+02  0.00000000000E+00 0.  1.
         11    1    5    5    0    0  0.23868560737E+03 -0.18106011927E+02  0.65844337089E+02  0.24826220727E+03  0.00000000000E+00 0.  1.
        -11    1    5    5    0    0  0.33497910939E+02 -0.27076501832E+02  0.46356145130E+02  0.63278267834E+02  0.00000000000E+00 0. -1.
          1    1    6    6  503    0 -0.43012542035E+02  0.26158896888E+02 -0.26049865593E+02  0.56682997063E+02  0.00000000000E+00 0. -1.
         -1    1    6    6    0  503 -0.37345250992E+03  0.53096890687E+03 -0.13290172477E+03  0.66261423595E+03  0.00000000000E+00 0.  1.
<mgrwt>
<rscale>  0 0.15667755E+04</rscale>
<asrwt>0</asrwt>
<pdfrwt beam="1">  1        2 0.11559167E+00 0.15667755E+04</pdfrwt>
<pdfrwt beam="2">  1       -1 0.12566093E+00 0.15667755E+04</pdfrwt>
<totfact> 0.22689109E+01</totfact>
</mgrwt>
</event>
<event>
12    6  0.1395358E-007  0.2702306E+04  0.7818608E-02  0.8334257E-01
          2   -1    0    0  501    0  0.00000000000E+00  0.00000000000E+00  0.22743043047E+04  0.22743043047E+04  0.00000000000E+00 0. -1.
         -1   -1    0    0    0  501 -0.00000000000E+00 -0.00000000000E+00 -0.80271338396E+03  0.80271338396E+03  0.00000000000E+00 0.  1.
         24    2    1    2    0    0  0.80436876076E+03  0.77896123368E+03  0.15314137994E+03  0.11331508437E+04  0.82394450171E+02 0.  0.
        254    2    1    2    0    0 -0.80436876076E+03 -0.77896123368E+03  0.13184495408E+04  0.19438668450E+04  0.88685929690E+03 0.  0.
         23    2    4    4    0    0 -0.97486744594E+03 -0.53160016548E+03  0.10330985692E+04  0.15192751014E+04  0.89100545137E+02 0.  0.
         23    2    4    4    0    0  0.17049868518E+03 -0.24736106821E+03  0.28535097159E+03  0.42459174351E+03  0.92712846780E+02 0.  0.
          2    1    3    3  502    0  0.73503812724E+03  0.70607110342E+03  0.16259159839E+03  0.10321111759E+04  0.00000000000E+00 0. -1.
         -3    1    3    3    0  502  0.69330633522E+02  0.72890130267E+02 -0.94502184423E+01  0.10103966777E+03  0.00000000000E+00 0.  1.
         11    1    5    5    0    0 -0.20921415138E+03 -0.13185034164E+03  0.27736729708E+03  0.37160152209E+03  0.00000000000E+00 0.  1.
        -11    1    5    5    0    0 -0.76565329456E+03 -0.39974982384E+03  0.75573127209E+03  0.11476735794E+04  0.00000000000E+00 0. -1.
          4    1    6    6  503    0  0.12065856321E+03 -0.12226726352E+03  0.11191770799E+03  0.20502035500E+03  0.00000000000E+00 0. -1.
         -4    1    6    6    0  503  0.49840121976E+02 -0.12509380469E+03  0.17343326359E+03  0.21957138851E+03  0.00000000000E+00 0.  1.
<mgrwt>
<rscale>  0 0.27023061E+04</rscale>
<asrwt>0</asrwt>
<pdfrwt beam="1">  1        2 0.34989297E+00 0.27023061E+04</pdfrwt>
<pdfrwt beam="2">  1       -1 0.12349437E+00 0.27023061E+04</pdfrwt>
<totfact> 0.26968297E+00</totfact>
</mgrwt>
</event>
<event>
12    6  0.1395358E-007  0.1919550E+04  0.7818608E-02  0.8645186E-01
         -1   -1    0    0    0  501 -0.00000000000E+00  0.00000000000E+00  0.12976787679E+04  0.12976787679E+04  0.00000000000E+00 0.  1.
          2   -1    0    0  501    0  0.00000000000E+00 -0.00000000000E+00 -0.70985815704E+03  0.70985815704E+03  0.00000000000E+00 0. -1.
         24    2    1    2    0    0  0.73754420961E+03  0.10827744619E+03  0.20830082416E+03  0.77782250543E+03  0.76962004401E+02 0.  0.
        254    2    1    2    0    0 -0.73754420961E+03 -0.10827744619E+03  0.37951978670E+03  0.12297144195E+04  0.90136941294E+03 0.  0.
         23    2    4    4    0    0 -0.32333487175E+03 -0.66558619465E+02  0.64335591970E+03  0.72868164869E+03  0.89970087360E+02 0.  0.
         23    2    4    4    0    0 -0.41420933787E+03 -0.41718826727E+02 -0.26383613300E+03  0.50103277082E+03  0.90080498880E+02 0.  0.
          4    1    3    3  502    0  0.33567535292E+03  0.10881243371E+02  0.98158392269E+02  0.34990200626E+03  0.00000000000E+00 0. -1.
         -3    1    3    3    0  502  0.40186885669E+03  0.97396202821E+02  0.11014243190E+03  0.42792049917E+03  0.00000000000E+00 0.  1.
         11    1    5    5    0    0 -0.15050112612E+03 -0.69695529413E+02  0.36666053119E+03  0.40242763439E+03  0.00000000000E+00 0. -1.
        -11    1    5    5    0    0 -0.17283374562E+03  0.31369099483E+01  0.27669538851E+03  0.32625401431E+03  0.00000000000E+00 0.  1.
          2    1    6    6  503    0 -0.41154198504E+03 -0.49978038991E+02 -0.26536105199E+03  0.49222057834E+03  0.00000000000E+00 0. -1.
         -2    1    6    6    0  503 -0.26673528285E+01  0.82592122643E+01  0.15249189879E+01  0.88121924774E+01  0.00000000000E+00 0.  1.
<mgrwt>
<rscale>  0 0.19195498E+04</rscale>
<asrwt>0</asrwt>
<pdfrwt beam="1">  1        2 0.10920895E+00 0.19195498E+04</pdfrwt>
<pdfrwt beam="2">  1       -1 0.19964289E+00 0.19195498E+04</pdfrwt>
<totfact> 0.65031353E+00</totfact>
</mgrwt>
</event>
<event>
12    6  0.1395358E-007  0.3949855E+04  0.7818608E-02  0.8014739E-01
          2   -1    0    0  501    0  0.00000000000E+00  0.00000000000E+00  0.20193382139E+04  0.20193382139E+04  0.00000000000E+00 0. -1.
         -1   -1    0    0    0  501 -0.00000000000E+00 -0.00000000000E+00 -0.19314937136E+04  0.19314937136E+04  0.00000000000E+00 0.  1.
         24    2    1    2    0    0  0.13431018820E+04  0.12622593014E+04 -0.28557235737E+03  0.18668979808E+04  0.80841140419E+02 0.  0.
        254    2    1    2    0    0 -0.13431018820E+04 -0.12622593014E+04  0.37341685765E+03  0.20839339467E+04  0.89784148664E+03 0.  0.
         23    2    4    4    0    0 -0.21923695239E+03 -0.75474834670E+03 -0.36420477614E+01  0.79117275347E+03  0.90725703021E+02 0.  0.
         23    2    4    4    0    0 -0.11238649296E+04 -0.50751095473E+03  0.37705890541E+03  0.12927611932E+04  0.91751487130E+02 0.  0.
          2    1    3    3  502    0  0.69308502212E+03  0.67253272158E+03 -0.11184050563E+03  0.97220132081E+03  0.00000000000E+00 0. -1.
         -1    1    3    3    0  502  0.65001685985E+03  0.58972657985E+03 -0.17373185174E+03  0.89469665998E+03  0.00000000000E+00 0.  1.
         11    1    5    5    0    0 -0.94265398185E+01 -0.14258881412E+03 -0.17077177650E+02  0.14391684948E+03  0.00000000000E+00 0. -1.
        -11    1    5    5    0    0 -0.20981041257E+03 -0.61215953257E+03  0.13435129889E+02  0.64725590400E+03  0.00000000000E+00 0.  1.
          4    1    6    6  503    0 -0.85628825129E+03 -0.41321395660E+03  0.25859594039E+03  0.98531578878E+03  0.00000000000E+00 0. -1.
         -4    1    6    6    0  503 -0.26757667828E+03 -0.94296998132E+02  0.11846296502E+03  0.30744540442E+03  0.00000000000E+00 0.  1.
<mgrwt>
<rscale>  0 0.39498552E+04</rscale>
<asrwt>0</asrwt>
<pdfrwt beam="1">  1        2 0.31066742E+00 0.39498552E+04</pdfrwt>
<pdfrwt beam="2">  1       -1 0.29715288E+00 0.39498552E+04</pdfrwt>
<totfact> 0.20237604E-01</totfact>
</mgrwt>
</event>
<event>
12    6  0.1395358E-007  0.2164490E+04  0.7818608E-02  0.8533355E-01
          2   -1    0    0  501    0  0.00000000000E+00  0.00000000000E+00  0.18322853652E+04  0.18322853652E+04  0.00000000000E+00 0. -1.
         -1   -1    0    0    0  501 -0.00000000000E+00 -0.00000000000E+00 -0.63923119699E+03  0.63923119699E+03  0.00000000000E+00 0.  1.
         24    2    1    2    0    0 -0.75226888941E+03  0.26451477001E+03  0.94979298655E+03  0.12426514918E+04  0.78736694943E+02 0.  0.
        254    2    1    2    0    0  0.75226888941E+03 -0.26451477001E+03  0.24326118161E+03  0.12288650704E+04  0.90280496965E+03 0.  0.
         23    2    4    4    0    0  0.92948328568E+03 -0.26013383259E+03  0.84229077422E+02  0.97319626080E+03  0.91693158603E+02 0.  0.
         23    2    4    4    0    0 -0.17721439627E+03 -0.43809374208E+01  0.15903210419E+03  0.25566880960E+03  0.93011801286E+02 0.  0.
          4    1    3    3  502    0 -0.28022625921E+03  0.10020476193E+03  0.41465426653E+03  0.51039779722E+03  0.00000000000E+00 0. -1.
         -3    1    3    3    0  502 -0.47204263020E+03  0.16431000808E+03  0.53513872003E+03  0.73225369453E+03  0.00000000000E+00 0.  1.
         11    1    5    5    0    0  0.88467459677E+03 -0.23895913187E+03  0.98408283415E+02  0.92164787154E+03  0.00000000000E+00 0. -1.
        -11    1    5    5    0    0  0.44808688908E+02 -0.21174700719E+02 -0.14179205993E+02  0.51548389255E+02  0.00000000000E+00 0.  1.
          3    1    6    6  503    0 -0.13754938554E+03  0.28797178281E+02  0.81440925251E+02  0.16242455247E+03  0.00000000000E+00 0. -1.
         -3    1    6    6    0  503 -0.39665010733E+02 -0.33178115702E+02  0.77591178940E+02  0.93244257128E+02  0.00000000000E+00 0.  1.
<mgrwt>
<rscale>  0 0.21644897E+04</rscale>
<asrwt>0</asrwt>
<pdfrwt beam="1">  1        2 0.28189005E+00 0.21644897E+04</pdfrwt>
<pdfrwt beam="2">  1       -1 0.98343262E-01 0.21644897E+04</pdfrwt>
<totfact> 0.85565129E+00</totfact>
</mgrwt>
</event>
<event>
12    6  0.1395358E-007  0.2866328E+04  0.7818608E-02  0.8282967E-01
          2   -1    0    0  501    0  0.00000000000E+00  0.00000000000E+00  0.11619467100E+04  0.11619467100E+04  0.00000000000E+00 0. -1.
         -1   -1    0    0    0  501 -0.00000000000E+00 -0.00000000000E+00 -0.17676880759E+04  0.17676880759E+04  0.00000000000E+00 0.  1.
         24    2    1    2    0    0 -0.10036043778E+04 -0.73247984973E+03 -0.63233766162E+03  0.13963710449E+04  0.79074010637E+02 0.  0.
        254    2    1    2    0    0  0.10036043778E+04  0.73247984973E+03  0.26596295758E+02  0.15332637410E+04  0.89802107940E+03 0.  0.
         23    2    4    4    0    0  0.49356133893E+03  0.27875209647E+03 -0.42161518385E+03  0.71138904259E+03  0.83722637821E+02 0.  0.
         23    2    4    4    0    0  0.51004303889E+03  0.45372775326E+03  0.44821147961E+03  0.82187469840E+03  0.92583550491E+02 0.  0.
          4    1    3    3  502    0 -0.66063745911E+03 -0.45413019960E+03 -0.37345418560E+03  0.88438912211E+03  0.00000000000E+00 0. -1.
         -3    1    3    3    0  502 -0.34296691872E+03 -0.27834965013E+03 -0.25888347602E+03  0.51198192275E+03  0.00000000000E+00 0.  1.
         11    1    5    5    0    0  0.32377193164E+03  0.13774306196E+03 -0.24567856400E+03  0.42913794011E+03  0.00000000000E+00 0. -1.
        -11    1    5    5    0    0  0.16978940729E+03  0.14100903451E+03 -0.17593661986E+03  0.28225110248E+03  0.00000000000E+00 0.  1.
          3    1    6    6  503    0  0.32510159064E+03  0.23050675000E+03  0.24408750225E+03  0.46733619032E+03  0.00000000000E+00 0.  1.
         -3    1    6    6    0  503  0.18494144825E+03  0.22322100326E+03  0.20412397736E+03  0.35453850808E+03  0.00000000000E+00 0. -1.
<mgrwt>
<rscale>  0 0.28663282E+04</rscale>
<asrwt>0</asrwt>
<pdfrwt beam="1">  1        2 0.17876103E+00 0.28663282E+04</pdfrwt>
<pdfrwt beam="2">  1       -1 0.27195201E+00 0.28663282E+04</pdfrwt>
<totfact> 0.98804241E-01</totfact>
</mgrwt>
</event>
<event>
12    6  0.1395358E-007  0.1838863E+04  0.7818608E-02  0.8685901E-01
          2   -1    0    0  501    0  0.00000000000E+00  0.00000000000E+00  0.26012971019E+04  0.26012971019E+04  0.00000000000E+00 0. -1.
         -1   -1    0    0    0  501 -0.00000000000E+00 -0.00000000000E+00 -0.32497410410E+03  0.32497410410E+03  0.00000000000E+00 0.  1.
         24    2    1    2    0    0  0.35739406218E+03 -0.37692579350E+03  0.16033735815E+04  0.16872862617E+04  0.79526835579E+02 0.  0.
        254    2    1    2    0    0 -0.35739406218E+03  0.37692579350E+03  0.67294941624E+03  0.12389849442E+04  0.90134300116E+03 0.  0.
         23    2    4    4    0    0 -0.33050434702E+03  0.48638988688E+03  0.48652392165E+02  0.59809355860E+03  0.97676016120E+02 0.  0.
         23    2    4    4    0    0 -0.26889715161E+02 -0.10946409338E+03  0.62429702407E+03  0.64089138563E+03  0.91046962592E+02 0.  0.
          4    1    3    3  502    0  0.26402716162E+03 -0.24125594580E+03  0.11798960268E+04  0.12329109487E+04  0.00000000000E+00 0. -1.
         -3    1    3    3    0  502  0.93366900555E+02 -0.13566984770E+03  0.42347755475E+03  0.45437531301E+03  0.00000000000E+00 0.  1.
         11    1    5    5    0    0 -0.27585821388E+03  0.44566969062E+03  0.21028125463E+02  0.52455829930E+03  0.00000000000E+00 0. -1.
        -11    1    5    5    0    0 -0.54646133140E+02  0.40720196258E+02  0.27624266702E+02  0.73535259307E+02  0.00000000000E+00 0.  1.
          3    1    6    6  503    0 -0.48181233633E+02 -0.98097590016E+02  0.37997957430E+03  0.39538468019E+03  0.00000000000E+00 0. -1.
         -3    1    6    6    0  503  0.21291518472E+02 -0.11366503362E+02  0.24431744977E+03  0.24550670545E+03  0.00000000000E+00 0.  1.
<mgrwt>
<rscale>  0 0.18388629E+04</rscale>
<asrwt>0</asrwt>
<pdfrwt beam="1">  1        2 0.40019954E+00 0.18388629E+04</pdfrwt>
<pdfrwt beam="2">  1       -1 0.49996018E-01 0.18388629E+04</pdfrwt>
<totfact> 0.13086046E+01</totfact>
</mgrwt>
</event>
<event>
12    6  0.1395358E-007  0.2201443E+04  0.7818608E-02  0.8517828E-01
         -1   -1    0    0    0  501 -0.00000000000E+00  0.00000000000E+00  0.37973822875E+03  0.37973822875E+03  0.00000000000E+00 0.  1.
          2   -1    0    0  501    0  0.00000000000E+00 -0.00000000000E+00 -0.31905858739E+04  0.31905858739E+04  0.00000000000E+00 0. -1.
         24    2    1    2    0    0  0.68811665378E+03  0.52571988301E+03 -0.16533153243E+04  0.18679356923E+04  0.76460867015E+02 0.  0.
        254    2    1    2    0    0 -0.68811665378E+03 -0.52571988301E+03 -0.11575323208E+04  0.17023884104E+04  0.89908803876E+03 0.  0.
         23    2    4    4    0    0 -0.55330164389E+03  0.58730096694E+02 -0.85585803205E+03  0.10248623855E+04  0.90873565086E+02 0.  0.
         23    2    4    4    0    0 -0.13481500989E+03 -0.58444997970E+03 -0.30167428875E+03  0.67752602485E+03  0.90979515211E+02 0.  0.
          2    1    3    3  502    0  0.54422570903E+03  0.44357500650E+03 -0.13796140170E+04  0.15479907121E+04  0.00000000000E+00 0. -1.
         -1    1    3    3    0  502  0.14389094475E+03  0.82144876504E+02 -0.27370130731E+03  0.31994498017E+03  0.00000000000E+00 0.  1.
         11    1    5    5    0    0 -0.32181423249E+03  0.10964740160E+02 -0.42226468016E+03  0.53102927026E+03  0.00000000000E+00 0. -1.
        -11    1    5    5    0    0 -0.23148741139E+03  0.47765356533E+02 -0.43359335189E+03  0.49383311525E+03  0.00000000000E+00 0.  1.
          3    1    6    6  503    0 -0.45482451345E+02 -0.32260852095E+03 -0.20262509195E+03  0.38366891854E+03  0.00000000000E+00 0. -1.
         -3    1    6    6    0  503 -0.89332558547E+02 -0.26184145875E+03 -0.99049196799E+02  0.29385710630E+03  0.00000000000E+00 0.  1.
<mgrwt>
<rscale>  0 0.22014426E+04</rscale>
<asrwt>0</asrwt>
<pdfrwt beam="1">  1        2 0.49085938E+00 0.22014426E+04</pdfrwt>
<pdfrwt beam="2">  1       -1 0.58421264E-01 0.22014426E+04</pdfrwt>
<totfact> 0.40686824E+00</totfact>
</mgrwt>
</event>
<event>
12    6  0.1395358E-007  0.3281640E+04  0.7818608E-02  0.8167583E-01
         -1   -1    0    0    0  501 -0.00000000000E+00  0.00000000000E+00  0.20796104595E+04  0.20796104595E+04  0.00000000000E+00 0.  1.
          2   -1    0    0  501    0  0.00000000000E+00 -0.00000000000E+00 -0.12946129766E+04  0.12946129766E+04  0.00000000000E+00 0. -1.
         24    2    1    2    0    0 -0.25295015136E+03  0.68971943128E+03  0.17271991817E+04  0.18786172829E+04  0.79304535575E+02 0.  0.
        254    2    1    2    0    0  0.25295015136E+03 -0.68971943128E+03 -0.94220169872E+03  0.14956061532E+04  0.89966496624E+03 0.  0.
         23    2    4    4    0    0  0.26698964319E+03 -0.10437416213E+03 -0.84327339529E+03  0.89478661787E+03  0.85765010525E+02 0.  0.
         23    2    4    4    0    0 -0.14039491833E+02 -0.58534526915E+03 -0.98928303434E+02  0.60081953533E+03  0.91493788703E+02 0.  0.
          4    1    3    3  502    0 -0.12244930643E+03  0.39041479544E+03  0.10468756217E+04  0.11239956016E+04  0.00000000000E+00 0. -1.
         -3    1    3    3    0  502 -0.13050084493E+03  0.29930463584E+03  0.68032356002E+03  0.75462168130E+03  0.00000000000E+00 0.  1.
         11    1    5    5    0    0  0.26525997693E+03 -0.88857237551E+02 -0.75537110053E+03  0.80550851239E+03  0.00000000000E+00 0.  1.
        -11    1    5    5    0    0  0.17296662635E+01 -0.15516924582E+02 -0.87902294758E+02  0.89278105477E+02  0.00000000000E+00 0. -1.
          1    1    6    6  503    0 -0.36161258972E+02 -0.53195882105E+03 -0.75682302096E+02  0.53853099706E+03  0.00000000000E+00 0.  1.
         -1    1    6    6    0  503  0.22121767139E+02 -0.53386448096E+02 -0.23246001337E+02  0.62288538270E+02  0.00000000000E+00 0. -1.
<mgrwt>
<rscale>  0 0.32816403E+04</rscale>
<asrwt>0</asrwt>
<pdfrwt beam="1">  1        2 0.19917123E+00 0.32816403E+04</pdfrwt>
<pdfrwt beam="2">  1       -1 0.31994007E+00 0.32816403E+04</pdfrwt>
<totfact> 0.38853547E-01</totfact>
</mgrwt>
</event>
<event>
12    6  0.1395358E-007  0.3281473E+04  0.7818608E-02  0.8167626E-01
         -1   -1    0    0    0  501 -0.00000000000E+00  0.00000000000E+00  0.97329486133E+03  0.97329486133E+03  0.00000000000E+00 0.  1.
          2   -1    0    0  501    0  0.00000000000E+00 -0.00000000000E+00 -0.27658796817E+04  0.27658796817E+04  0.00000000000E+00 0. -1.
         24    2    1    2    0    0  0.51203309568E+03  0.89215622438E+03  0.43981969276E+03  0.11216531062E+04  0.80893193696E+02 0.  0.
        254    2    1    2    0    0 -0.51203309568E+03 -0.89215622438E+03 -0.22324045131E+04  0.26175214368E+04  0.89981550449E+03 0.  0.
         23    2    4    4    0    0 -0.72714915705E+03 -0.71535783774E+03 -0.13945674039E+04  0.17301970644E+04  0.90999477552E+02 0.  0.
         23    2    4    4    0    0  0.21511606136E+03 -0.17679838664E+03 -0.83783710922E+03  0.88732437243E+03  0.88549031325E+02 0.  0.
          4    1    3    3  502    0  0.33438306964E+03  0.51642655568E+03  0.23838231621E+03  0.65979887341E+03  0.00000000000E+00 0. -1.
         -1    1    3    3    0  502  0.17765002604E+03  0.37572966870E+03  0.20143737655E+03  0.46185423281E+03  0.00000000000E+00 0.  1.
         11    1    5    5    0    0 -0.54590121473E+03 -0.57804327699E+03 -0.10426088568E+04  0.13111732893E+04  0.00000000000E+00 0.  1.
        -11    1    5    5    0    0 -0.18124794232E+03 -0.13731456075E+03 -0.35195854710E+03  0.41902377506E+03  0.00000000000E+00 0. -1.
          2    1    6    6  503    0  0.93122019690E+02 -0.70445354062E+02 -0.22521946041E+03  0.25368891148E+03  0.00000000000E+00 0. -1.
         -2    1    6    6    0  503  0.12199404167E+03 -0.10635303258E+03 -0.61261764881E+03  0.63363546095E+03  0.00000000000E+00 0.  1.
<mgrwt>
<rscale>  0 0.32814731E+04</rscale>
<asrwt>0</asrwt>
<pdfrwt beam="1">  1        2 0.42551995E+00 0.32814731E+04</pdfrwt>
<pdfrwt beam="2">  1       -1 0.14973767E+00 0.32814731E+04</pdfrwt>
<totfact> 0.80737702E-01</totfact>
</mgrwt>
</event>
<event>
12    6  0.1395358E-007  0.2057318E+04  0.7818608E-02  0.8580282E-01
          2   -1    0    0  501    0  0.00000000000E+00  0.00000000000E+00  0.99272860552E+03  0.99272860552E+03  0.00000000000E+00 0. -1.
         -1   -1    0    0    0  501 -0.00000000000E+00 -0.00000000000E+00 -0.10658902088E+04  0.10658902088E+04  0.00000000000E+00 0.  1.
         24    2    1    2    0    0  0.64412172898E+03  0.52250377546E+03 -0.91848452338E+01  0.83280720645E+03  0.74702641245E+02 0.  0.
        254    2    1    2    0    0 -0.64412172898E+03 -0.52250377546E+03 -0.63976758074E+02  0.12258116079E+04  0.90034330971E+03 0.  0.
         23    2    4    4    0    0  0.60379522865E+02 -0.55045494878E+02  0.28246523711E+03  0.30791026359E+03  0.91358781541E+02 0.  0.
         23    2    4    4    0    0 -0.70450125185E+03 -0.46745828059E+03 -0.34644199518E+03  0.91790134430E+03  0.87644531443E+02 0.  0.
          4    1    3    3  502    0  0.23820094244E+03  0.19931534252E+03  0.32407314222E+02  0.31227636599E+03  0.00000000000E+00 0. -1.
         -3    1    3    3    0  502  0.40592078655E+03  0.32318843294E+03 -0.41592159456E+02  0.52053084046E+03  0.00000000000E+00 0.  1.
         11    1    5    5    0    0  0.41365764961E+02 -0.76805929265E+01  0.33537700935E+02  0.53804232199E+02  0.00000000000E+00 0.  1.
        -11    1    5    5    0    0  0.19013757904E+02 -0.47364901952E+02  0.24892753617E+03  0.25410603140E+03  0.00000000000E+00 0. -1.
          3    1    6    6  503    0 -0.51340566354E+03 -0.38527856489E+03 -0.26779126751E+03  0.69551212130E+03  0.00000000000E+00 0. -1.
         -3    1    6    6    0  503 -0.19109558831E+03 -0.82179715701E+02 -0.78650727676E+02  0.22238922300E+03  0.00000000000E+00 0.  1.
<mgrwt>
<rscale>  0 0.20573184E+04</rscale>
<asrwt>0</asrwt>
<pdfrwt beam="1">  1        2 0.15272748E+00 0.20573184E+04</pdfrwt>
<pdfrwt beam="2">  1       -1 0.16398311E+00 0.20573184E+04</pdfrwt>
<totfact> 0.73248841E+00</totfact>
</mgrwt>
</event>
<event>
12    6  0.1395358E-007  0.1687208E+04  0.7818608E-02  0.8768694E-01
         -1   -1    0    0    0  501 -0.00000000000E+00  0.00000000000E+00  0.21161345193E+03  0.21161345193E+03  0.00000000000E+00 0.  1.
          2   -1    0    0  501    0  0.00000000000E+00 -0.00000000000E+00 -0.33630549231E+04  0.33630549231E+04  0.00000000000E+00 0. -1.
         24    2    1    2    0    0 -0.13803775165E+03  0.50814257955E+03 -0.52609946282E+03  0.75091633334E+03  0.99153380460E+02 0.  0.
        254    2    1    2    0    0  0.13803775165E+03 -0.50814257955E+03 -0.26253420084E+04  0.28237520417E+04  0.89660003911E+03 0.  0.
         23    2    4    4    0    0  0.39822310712E+03 -0.37768836896E+02 -0.60526358640E+03  0.73139651634E+03  0.92675385183E+02 0.  0.
         23    2    4    4    0    0 -0.26018535547E+03 -0.47037374265E+03 -0.20200784220E+04  0.20923555254E+04  0.91032613036E+02 0.  0.
          4    1    3    3  502    0  0.27963774682E+01  0.15943328056E+02 -0.47164992971E+02  0.49865278485E+02  0.00000000000E+00 0. -1.
         -3    1    3    3    0  502 -0.14083412912E+03  0.49219925149E+03 -0.47893446985E+03  0.70105105485E+03  0.00000000000E+00 0.  1.
         11    1    5    5    0    0  0.25549637844E+03  0.17792189221E+02 -0.40674360762E+03  0.48066133996E+03  0.00000000000E+00 0.  1.
        -11    1    5    5    0    0  0.14272672868E+03 -0.55561026117E+02 -0.19851997878E+03  0.25073517639E+03  0.00000000000E+00 0. -1.
          4    1    6    6  503    0 -0.20262425123E+02 -0.39460918481E+01 -0.80977332316E+02  0.83567133861E+02  0.00000000000E+00 0. -1.
         -4    1    6    6    0  503 -0.23992293034E+03 -0.46642765080E+03 -0.19391010897E+04  0.20087883915E+04  0.00000000000E+00 0.  1.
<mgrwt>
<rscale>  0 0.16872079E+04</rscale>
<asrwt>0</asrwt>
<pdfrwt beam="1">  1        2 0.51739302E+00 0.16872079E+04</pdfrwt>
<pdfrwt beam="2">  1       -1 0.32555918E-01 0.16872079E+04</pdfrwt>
<totfact> 0.97579758E+00</totfact>
</mgrwt>
</event>
<event>
12    6  0.1395358E-007  0.2902159E+04  0.7818608E-02  0.8272236E-01
          2   -1    0    0  501    0  0.00000000000E+00  0.00000000000E+00  0.42023621885E+04  0.42023621885E+04  0.00000000000E+00 0. -1.
         -1   -1    0    0    0  501 -0.00000000000E+00 -0.00000000000E+00 -0.50105890735E+03  0.50105890735E+03  0.00000000000E+00 0.  1.
         24    2    1    2    0    0  0.11426519087E+04  0.64010283786E+03  0.17307888882E+04  0.21720903854E+04  0.83435238761E+02 0.  0.
        254    2    1    2    0    0 -0.11426519087E+04 -0.64010283786E+03  0.19705143929E+04  0.25313307105E+04  0.89962390222E+03 0.  0.
         23    2    4    4    0    0 -0.99934269354E+02 -0.49913902943E+03  0.81930027416E+03  0.96890226083E+03  0.91607984937E+02 0.  0.
         23    2    4    4    0    0 -0.10427176394E+04 -0.14096380843E+03  0.11512141188E+04  0.15624284496E+04  0.93583343727E+02 0.  0.
          4    1    3    3  502    0  0.41995679714E+03  0.27233792084E+03  0.70130362073E+03  0.86160224178E+03  0.00000000000E+00 0. -1.
         -3    1    3    3    0  502  0.72269511160E+03  0.36776491702E+03  0.10294852675E+04  0.13104881436E+04  0.00000000000E+00 0.  1.
         11    1    5    5    0    0 -0.28805632658E+02 -0.34552461510E+03  0.51867133823E+03  0.62388859680E+03  0.00000000000E+00 0. -1.
        -11    1    5    5    0    0 -0.71128636696E+02 -0.15361441433E+03  0.30062893593E+03  0.34501366403E+03  0.00000000000E+00 0.  1.
          3    1    6    6  503    0 -0.66569437480E+03 -0.47483487701E+02  0.70363345993E+03  0.96979571467E+03  0.00000000000E+00 0. -1.
         -3    1    6    6    0  503 -0.37702326459E+03 -0.93480320730E+02  0.44758065882E+03  0.59263273497E+03  0.00000000000E+00 0.  1.
<mgrwt>
<rscale>  0 0.29021585E+04</rscale>
<asrwt>0</asrwt>
<pdfrwt beam="1">  1        2 0.64651724E+00 0.29021585E+04</pdfrwt>
<pdfrwt beam="2">  1       -1 0.77085989E-01 0.29021585E+04</pdfrwt>
<totfact> 0.38306443E-01</totfact>
</mgrwt>
</event>
<event>
12    6  0.1395358E-007  0.1501172E+04  0.7818608E-02  0.8883674E-01
         -1   -1    0    0    0  501 -0.00000000000E+00  0.00000000000E+00  0.44954556915E+03  0.44954556915E+03  0.00000000000E+00 0.  1.
          2   -1    0    0  501    0  0.00000000000E+00 -0.00000000000E+00 -0.12532191392E+04  0.12532191392E+04  0.00000000000E+00 0. -1.
         24    2    1    2    0    0  0.10693487761E+03 -0.37194792339E+03 -0.57017272240E+03  0.69366046547E+03  0.79294276155E+02 0.  0.
        254    2    1    2    0    0 -0.10693487761E+03  0.37194792339E+03 -0.23350084769E+03  0.10091042429E+04  0.90221305767E+03 0.  0.
         23    2    4    4    0    0 -0.40667902424E+02  0.30415794760E+03  0.31257086400E+03  0.44744618826E+03  0.91332420238E+02 0.  0.
         23    2    4    4    0    0 -0.66266975191E+02  0.67789975786E+02 -0.54607171170E+03  0.56165805465E+03  0.90987159660E+02 0.  0.
          2    1    3    3  502    0  0.11330632297E+03 -0.27759768159E+03 -0.45006276972E+03  0.54079135749E+03  0.00000000000E+00 0. -1.
         -1    1    3    3    0  502 -0.63714453508E+01 -0.94350241801E+02 -0.12010995268E+03  0.15286910799E+03  0.00000000000E+00 0.  1.
         11    1    5    5    0    0 -0.48336586471E+02  0.22288209115E+03  0.17496636795E+03  0.28744752923E+03  0.00000000000E+00 0.  1.
        -11    1    5    5    0    0  0.76686840474E+01  0.81275856454E+02  0.13760449605E+03  0.15999865903E+03  0.00000000000E+00 0. -1.
          2    1    6    6  503    0 -0.75969539948E+02  0.24255214097E+02 -0.25471712829E+03  0.26690916405E+03  0.00000000000E+00 0. -1.
         -2    1    6    6    0  503  0.97025647567E+01  0.43534761689E+02 -0.29135458341E+03  0.29474889060E+03  0.00000000000E+00 0.  1.
<mgrwt>
<rscale>  0 0.15011717E+04</rscale>
<asrwt>0</asrwt>
<pdfrwt beam="1">  1        2 0.19280294E+00 0.15011717E+04</pdfrwt>
<pdfrwt beam="2">  1       -1 0.69160858E-01 0.15011717E+04</pdfrwt>
<totfact> 0.41026528E+01</totfact>
</mgrwt>
</event>
<event>
12    6  0.1395358E-007  0.2546574E+04  0.7818608E-02  0.8386579E-01
          2   -1    0    0  501    0  0.00000000000E+00  0.00000000000E+00  0.17001107331E+04  0.17001107331E+04  0.00000000000E+00 0. -1.
         -1   -1    0    0    0  501 -0.00000000000E+00 -0.00000000000E+00 -0.95361975694E+03  0.95361975694E+03  0.00000000000E+00 0.  1.
         24    2    1    2    0    0  0.94425522500E+03 -0.58267228902E+03  0.40274075655E+03  0.11830977663E+04  0.79970502824E+02 0.  0.
        254    2    1    2    0    0 -0.94425522500E+03  0.58267228902E+03  0.34375021963E+03  0.14706327237E+04  0.90192653156E+03 0.  0.
         23    2    4    4    0    0 -0.68959131742E+03  0.25133366423E+03  0.61667164809E+03  0.96298286128E+03  0.91363415659E+02 0.  0.
         23    2    4    4    0    0 -0.25466390758E+03  0.33133862478E+03 -0.27292142846E+03  0.50764986247E+03  0.92646028792E+02 0.  0.
          4    1    3    3  502    0  0.34498949700E+03 -0.17854798923E+03  0.16696774946E+03  0.42281836154E+03  0.00000000000E+00 0. -1.
         -3    1    3    3    0  502  0.59926572800E+03 -0.40412429978E+03  0.23577300709E+03  0.76027940476E+03  0.00000000000E+00 0.  1.
         11    1    5    5    0    0 -0.37315028735E+03  0.13637984757E+03  0.27413776141E+03  0.48269256469E+03  0.00000000000E+00 0. -1.
        -11    1    5    5    0    0 -0.31644103008E+03  0.11495381666E+03  0.34253388668E+03  0.48029029660E+03  0.00000000000E+00 0.  1.
          4    1    6    6  503    0 -0.69285141594E+02  0.16470516599E+03 -0.11929780728E+03  0.21484922474E+03  0.00000000000E+00 0. -1.
         -4    1    6    6    0  503 -0.18537876599E+03  0.16663345879E+03 -0.15362362118E+03  0.29280063772E+03  0.00000000000E+00 0.  1.
<mgrwt>
<rscale>  0 0.25465735E+04</rscale>
<asrwt>0</asrwt>
<pdfrwt beam="1">  1        2 0.26155550E+00 0.25465735E+04</pdfrwt>
<pdfrwt beam="2">  1       -1 0.14671073E+00 0.25465735E+04</pdfrwt>
<totfact> 0.36729837E+00</totfact>
</mgrwt>
</event>
<event>
12    6  0.1395358E-007  0.2290693E+04  0.7818608E-02  0.8481600E-01
          2   -1    0    0  501    0  0.00000000000E+00  0.00000000000E+00  0.20594215351E+04  0.20594215351E+04  0.00000000000E+00 0. -1.
         -1   -1    0    0    0  501 -0.00000000000E+00 -0.00000000000E+00 -0.63698413173E+03  0.63698413173E+03  0.00000000000E+00 0.  1.
         24    2    1    2    0    0  0.22509289715E+03 -0.93995765441E+03  0.61326609904E+03  0.11473994247E+04  0.79012196540E+02 0.  0.
        254    2    1    2    0    0 -0.22509289715E+03  0.93995765441E+03  0.80917130430E+03  0.15490062421E+04  0.90026381346E+03 0.  0.
         23    2    4    4    0    0 -0.72531604383E+02  0.73750345217E+03  0.97752902254E+03  0.12303044448E+04  0.94413248584E+02 0.  0.
         23    2    4    4    0    0 -0.15256129277E+03  0.20245420225E+03 -0.16835771824E+03  0.31870179722E+03  0.94677675334E+02 0.  0.
          4    1    3    3  502    0  0.70720687272E+02 -0.45030640735E+03  0.26963785794E+03  0.52960537246E+03  0.00000000000E+00 0. -1.
         -1    1    3    3    0  502  0.15437220988E+03 -0.48965124706E+03  0.34362824111E+03  0.61779405227E+03  0.00000000000E+00 0.  1.
         11    1    5    5    0    0 -0.41644126668E+02  0.20133606097E+03  0.33290969986E+03  0.39127907048E+03  0.00000000000E+00 0.  1.
        -11    1    5    5    0    0 -0.30887477714E+02  0.53616739120E+03  0.64461932268E+03  0.83902537437E+03  0.00000000000E+00 0. -1.
          4    1    6    6  503    0 -0.96244431896E+02  0.52605533910E+02 -0.56228760029E+02  0.12325585716E+03  0.00000000000E+00 0. -1.
         -4    1    6    6    0  503 -0.56316860870E+02  0.14984866834E+03 -0.11212895821E+03  0.19544594007E+03  0.00000000000E+00 0.  1.
<mgrwt>
<rscale>  0 0.22906932E+04</rscale>
<asrwt>0</asrwt>
<pdfrwt beam="1">  1        2 0.31683408E+00 0.22906932E+04</pdfrwt>
<pdfrwt beam="2">  1       -1 0.97997560E-01 0.22906932E+04</pdfrwt>
<totfact> 0.63797583E+00</totfact>
</mgrwt>
</event>
<event>
12    6  0.1395358E-007  0.2402204E+04  0.7818608E-02  0.8438679E-01
         -1   -1    0    0    0  501 -0.00000000000E+00  0.00000000000E+00  0.12335368315E+04  0.12335368315E+04  0.00000000000E+00 0.  1.
          2   -1    0    0  501    0  0.00000000000E+00 -0.00000000000E+00 -0.11695202279E+04  0.11695202279E+04  0.00000000000E+00 0. -1.
         24    2    1    2    0    0 -0.30278948524E+03 -0.98310904878E+03 -0.47172539707E+02  0.10326319689E+04  0.76932831120E+02 0.  0.
        254    2    1    2    0    0  0.30278948524E+03  0.98310904878E+03  0.11118914335E+03  0.13704250905E+04  0.89861951285E+03 0.  0.
         23    2    4    4    0    0  0.36827084271E+02  0.31834754042E+03  0.46149567038E+03  0.56795039617E+03  0.82994024461E+02 0.  0.
         23    2    4    4    0    0  0.26596240097E+03  0.66476150836E+03 -0.35030652703E+03  0.80247469432E+03  0.92774513822E+02 0.  0.
          4    1    3    3  502    0 -0.30084212496E+02 -0.63882521576E+02 -0.20131779749E+02  0.73425642389E+02  0.00000000000E+00 0. -1.
         -3    1    3    3    0  502 -0.27270527274E+03 -0.91922652720E+03 -0.27040759958E+02  0.95920632650E+03  0.00000000000E+00 0.  1.
         11    1    5    5    0    0  0.29157801291E+02  0.30095706933E+03  0.38726037372E+03  0.49132060003E+03  0.00000000000E+00 0.  1.
        -11    1    5    5    0    0  0.76692829799E+01  0.17390471093E+02  0.74235296663E+02  0.76629796143E+02  0.00000000000E+00 0. -1.
          2    1    6    6  503    0  0.23228562363E+03  0.52770944403E+03 -0.31495288659E+03  0.65698492299E+03  0.00000000000E+00 0.  1.
         -2    1    6    6    0  503  0.33676777339E+02  0.13705206432E+03 -0.35353640439E+02  0.14548977132E+03  0.00000000000E+00 0. -1.
<mgrwt>
<rscale>  0 0.24022042E+04</rscale>
<asrwt>0</asrwt>
<pdfrwt beam="1">  1        2 0.17992619E+00 0.24022042E+04</pdfrwt>
<pdfrwt beam="2">  1       -1 0.18977490E+00 0.24022042E+04</pdfrwt>
<totfact> 0.35907690E+00</totfact>
</mgrwt>
</event>
<event>
12    6  0.1395358E-007  0.2646973E+04  0.7818608E-02  0.8352418E-01
          2   -1    0    0  501    0  0.00000000000E+00  0.00000000000E+00  0.11355983455E+04  0.11355983455E+04  0.00000000000E+00 0. -1.
         -1   -1    0    0    0  501 -0.00000000000E+00 -0.00000000000E+00 -0.15424616780E+04  0.15424616780E+04  0.00000000000E+00 0.  1.
         24    2    1    2    0    0  0.93171326915E+03 -0.48755607678E+03 -0.69331997037E+03  0.12620878829E+04  0.79829186625E+02 0.  0.
        254    2    1    2    0    0 -0.93171326915E+03  0.48755607678E+03  0.28645663788E+03  0.14159721405E+04  0.90394643280E+03 0.  0.
         23    2    4    4    0    0 -0.29215703171E+02  0.16089291635E+03  0.40366121070E+03  0.44467313105E+03  0.89731447201E+02 0.  0.
         23    2    4    4    0    0 -0.90249756598E+03  0.32666316043E+03 -0.11720457282E+03  0.97129900945E+03  0.92055292516E+02 0.  0.
          4    1    3    3  502    0  0.26994205314E+03 -0.14793272566E+03 -0.16082360703E+03  0.34729963426E+03  0.00000000000E+00 0. -1.
         -3    1    3    3    0  502  0.66177121601E+03 -0.33962335112E+03 -0.53249636334E+03  0.91478824869E+03  0.00000000000E+00 0.  1.
         11    1    5    5    0    0  0.14585505931E+02  0.68331421245E+02  0.85385132937E+02  0.11032923928E+03  0.00000000000E+00 0. -1.
        -11    1    5    5    0    0 -0.43801209102E+02  0.92561495103E+02  0.31827607776E+03  0.33434389178E+03  0.00000000000E+00 0.  1.
          3    1    6    6  503    0 -0.27275727117E+03  0.93601716406E+02  0.68486022572E+01  0.28845227273E+03  0.00000000000E+00 0. -1.
         -3    1    6    6    0  503 -0.62974029481E+03  0.23306144403E+03 -0.12405317507E+03  0.68284673671E+03  0.00000000000E+00 0.  1.
<mgrwt>
<rscale>  0 0.26469733E+04</rscale>
<asrwt>0</asrwt>
<pdfrwt beam="1">  1        2 0.17470744E+00 0.26469733E+04</pdfrwt>
<pdfrwt beam="2">  1       -1 0.23730180E+00 0.26469733E+04</pdfrwt>
<totfact> 0.17569988E+00</totfact>
</mgrwt>
</event>
<event>
12    6  0.1395358E-007  0.3364485E+04  0.7818608E-02  0.8146678E-01
          2   -1    0    0  501    0  0.00000000000E+00  0.00000000000E+00  0.24532474745E+04  0.24532474745E+04  0.00000000000E+00 0. -1.
         -1   -1    0    0    0  501 -0.00000000000E+00 -0.00000000000E+00 -0.11535484502E+04  0.11535484502E+04  0.00000000000E+00 0.  1.
         24    2    1    2    0    0  0.12319822433E+04  0.66559048630E+03 -0.13501253495E+03  0.14090526637E+04  0.80062982649E+02 0.  0.
        254    2    1    2    0    0 -0.12319822433E+04 -0.66559048630E+03  0.14347115593E+04  0.21977432611E+04  0.90049277630E+03 0.  0.
         23    2    4    4    0    0 -0.58209782185E+03  0.32895746592E+02  0.17602443817E+03  0.61569535567E+03  0.90422142258E+02 0.  0.
         23    2    4    4    0    0 -0.64988442144E+03 -0.69848623289E+03  0.12586871211E+04  0.15820479054E+04  0.91375748941E+02 0.  0.
          2    1    3    3  502    0  0.10196885282E+04  0.57381757648E+03 -0.13458800883E+03  0.11777713011E+04  0.00000000000E+00 0. -1.
         -1    1    3    3    0  502  0.21229371514E+03  0.91772909820E+02 -0.42452612098E+00  0.23128136260E+03  0.00000000000E+00 0.  1.
         11    1    5    5    0    0 -0.53038808208E+03  0.53472467316E+01  0.14756729809E+03  0.55055991330E+03  0.00000000000E+00 0.  1.
        -11    1    5    5    0    0 -0.51709739765E+02  0.27548499860E+02  0.28457140075E+02  0.65135442367E+02  0.00000000000E+00 0. -1.
          1    1    6    6  503    0 -0.78774387280E+02 -0.69386360463E+02  0.98069027574E+02  0.14365724931E+03  0.00000000000E+00 0. -1.
         -1    1    6    6    0  503 -0.57111003416E+03 -0.62909987243E+03  0.11606180935E+04  0.14383906561E+04  0.00000000000E+00 0.  1.
<mgrwt>
<rscale>  0 0.33644850E+04</rscale>
<asrwt>0</asrwt>
<pdfrwt beam="1">  1        2 0.37742269E+00 0.33644850E+04</pdfrwt>
<pdfrwt beam="2">  1       -1 0.17746899E+00 0.33644850E+04</pdfrwt>
<totfact> 0.75917584E-01</totfact>
</mgrwt>
</event>
<event>
12    6  0.1395358E-007  0.3146100E+04  0.7818608E-02  0.8203199E-01
         -1   -1    0    0    0  501 -0.00000000000E+00  0.00000000000E+00  0.81336244380E+03  0.81336244380E+03  0.00000000000E+00 0.  1.
          2   -1    0    0  501    0  0.00000000000E+00 -0.00000000000E+00 -0.30422925255E+04  0.30422925255E+04  0.00000000000E+00 0. -1.
         24    2    1    2    0    0 -0.13497452427E+04 -0.32069620743E+03 -0.15097910443E+04  0.20519429036E+04  0.79639212765E+02 0.  0.
        254    2    1    2    0    0  0.13497452427E+04  0.32069620743E+03 -0.71913903738E+03  0.18037120657E+04  0.90086513049E+03 0.  0.
         23    2    4    4    0    0  0.93571815382E+03 -0.94402844369E+02 -0.10723350132E+03  0.95120990842E+03  0.93919676647E+02 0.  0.
         23    2    4    4    0    0  0.41402708890E+03  0.41509905180E+03 -0.61190553606E+03  0.85250215733E+03  0.92767936482E+02 0.  0.
          4    1    3    3  502    0 -0.54325771731E+03 -0.16925838659E+03 -0.62159193662E+03  0.84270628604E+03  0.00000000000E+00 0. -1.
         -3    1    3    3    0  502 -0.80648752541E+03 -0.15143782084E+03 -0.88819910772E+03  0.12092366175E+04  0.00000000000E+00 0.  1.
         11    1    5    5    0    0  0.62818215722E+03 -0.10757568784E+03 -0.73090597540E+02  0.64150415954E+03  0.00000000000E+00 0.  1.
        -11    1    5    5    0    0  0.30753599660E+03  0.13172843467E+02 -0.34142903781E+02  0.30970574888E+03  0.00000000000E+00 0. -1.
          3    1    6    6  503    0  0.35466075515E+03  0.33458220001E+03 -0.54935049829E+03  0.73451716779E+03  0.00000000000E+00 0. -1.
         -3    1    6    6    0  503  0.59366333754E+02  0.80516851797E+02 -0.62555037764E+02  0.11798498954E+03  0.00000000000E+00 0.  1.
<mgrwt>
<rscale>  0 0.31461001E+04</rscale>
<asrwt>0</asrwt>
<pdfrwt beam="1">  1        2 0.46804501E+00 0.31461001E+04</pdfrwt>
<pdfrwt beam="2">  1       -1 0.12513268E+00 0.31461001E+04</pdfrwt>
<totfact> 0.87750066E-01</totfact>
</mgrwt>
</event>
<event>
12    6  0.1395358E-007  0.1253737E+04  0.7818608E-02  0.9067078E-01
         -1   -1    0    0    0  501 -0.00000000000E+00  0.00000000000E+00  0.59132653585E+03  0.59132653585E+03  0.00000000000E+00 0.  1.
          2   -1    0    0  501    0  0.00000000000E+00 -0.00000000000E+00 -0.66454712650E+03  0.66454712650E+03  0.00000000000E+00 0. -1.
         24    2    1    2    0    0 -0.55200100842E+02 -0.25397140331E+03 -0.16112554361E+03  0.31516326753E+03  0.76275288046E+02 0.  0.
        254    2    1    2    0    0  0.55200100842E+02  0.25397140331E+03  0.87904952954E+02  0.94071039482E+03  0.89981122539E+03 0.  0.
         23    2    4    4    0    0 -0.35648056648E+03 -0.65099078578E+02  0.15818345760E+03  0.40720882673E+03  0.97369081357E+02 0.  0.
         23    2    4    4    0    0  0.41168066732E+03  0.31907048188E+03 -0.70278504645E+02  0.53350156809E+03  0.91640115032E+02 0.  0.
          4    1    3    3  502    0  0.15141634245E+01 -0.34444291365E+02 -0.54781994384E+02  0.64728423488E+02  0.00000000000E+00 0. -1.
         -3    1    3    3    0  502 -0.56714264267E+02 -0.21952711194E+03 -0.10634354922E+03  0.25043484404E+03  0.00000000000E+00 0.  1.
         11    1    5    5    0    0 -0.23182531828E+03 -0.10086409194E+02  0.61250311257E+02  0.23999232170E+03  0.00000000000E+00 0. -1.
        -11    1    5    5    0    0 -0.12465524820E+03 -0.55012669384E+02  0.96933146342E+02  0.16721650503E+03  0.00000000000E+00 0.  1.
          3    1    6    6  503    0  0.21004629786E+03  0.11788211763E+03 -0.32681947096E+01  0.24088653345E+03  0.00000000000E+00 0. -1.
         -3    1    6    6    0  503  0.20163436946E+03  0.20118836425E+03 -0.67010309936E+02  0.29261503464E+03  0.00000000000E+00 0.  1.
<mgrwt>
<rscale>  0 0.12537374E+04</rscale>
<asrwt>0</asrwt>
<pdfrwt beam="1">  1        2 0.10223802E+00 0.12537374E+04</pdfrwt>
<pdfrwt beam="2">  1       -1 0.90973314E-01 0.12537374E+04</pdfrwt>
<totfact> 0.57985785E+01</totfact>
</mgrwt>
</event>
<event>
12    6  0.1395358E-007  0.2202745E+04  0.7818608E-02  0.8517286E-01
          2   -1    0    0  501    0  0.00000000000E+00  0.00000000000E+00  0.83807341524E+03  0.83807341524E+03  0.00000000000E+00 0. -1.
         -1   -1    0    0    0  501 -0.00000000000E+00 -0.00000000000E+00 -0.14473931194E+04  0.14473931194E+04  0.00000000000E+00 0.  1.
         24    2    1    2    0    0  0.79300790134E+03 -0.18413181029E+03 -0.68854266651E+03  0.10693350373E+04  0.81365614249E+02 0.  0.
        254    2    1    2    0    0 -0.79300790134E+03  0.18413181029E+03  0.79222962372E+02  0.12161314974E+04  0.89996304699E+03 0.  0.
         23    2    4    4    0    0  0.16778135668E+03  0.11041405872E+03  0.11322864528E+03  0.24735852004E+03  0.89574903350E+02 0.  0.
         23    2    4    4    0    0 -0.96078925802E+03  0.73717751568E+02 -0.34005682912E+02  0.96877297732E+03  0.93884982268E+02 0.  0.
          2    1    3    3  502    0  0.20369079346E+03 -0.14725639086E+02 -0.15245227902E+03  0.25484991891E+03  0.00000000000E+00 0. -1.
         -1    1    3    3    0  502  0.58931710788E+03 -0.16940617120E+03 -0.53609038749E+03  0.81448511837E+03  0.00000000000E+00 0.  1.
         11    1    5    5    0    0  0.16101137685E+03  0.12123118128E+03  0.89732960664E+02  0.22062109377E+03  0.00000000000E+00 0. -1.
        -11    1    5    5    0    0  0.67699798309E+01 -0.10817122559E+02  0.23495684620E+02  0.26737426263E+02  0.00000000000E+00 0.  1.
          2    1    6    6  503    0 -0.91103273701E+03  0.90259158098E+02 -0.27178219710E+02  0.91589629280E+03  0.00000000000E+00 0. -1.
         -2    1    6    6    0  503 -0.49756521006E+02 -0.16541406530E+02 -0.68274632023E+01  0.52876684525E+02  0.00000000000E+00 0.  1.
<mgrwt>
<rscale>  0 0.22027453E+04</rscale>
<asrwt>0</asrwt>
<pdfrwt beam="1">  1        2 0.12893437E+00 0.22027453E+04</pdfrwt>
<pdfrwt beam="2">  1       -1 0.22267586E+00 0.22027453E+04</pdfrwt>
<totfact> 0.35620674E+00</totfact>
</mgrwt>
</event>
<event>
12    6  0.1395358E-007  0.1564914E+04  0.7818608E-02  0.8842398E-01
          2   -1    0    0  501    0  0.00000000000E+00  0.00000000000E+00  0.40255727833E+03  0.40255727833E+03  0.00000000000E+00 0. -1.
         -1   -1    0    0    0  501 -0.00000000000E+00 -0.00000000000E+00 -0.15208735345E+04  0.15208735345E+04  0.00000000000E+00 0.  1.
         24    2    1    2    0    0 -0.22683677218E+03 -0.23994219472E+03  0.11725114895E+03  0.35908478580E+03  0.78529443159E+02 0.  0.
        254    2    1    2    0    0  0.22683677218E+03  0.23994219472E+03 -0.12355674051E+04  0.15643460271E+04  0.90084654725E+03 0.  0.
         23    2    4    4    0    0  0.39845045904E+03  0.89467732791E+02 -0.13932905700E+03  0.44093844436E+03  0.90812345395E+02 0.  0.
         23    2    4    4    0    0 -0.17161368686E+03  0.15047446193E+03 -0.10962383481E+04  0.11234075827E+04  0.90621518932E+02 0.  0.
          4    1    3    3  502    0 -0.20189800137E+03 -0.16765247371E+03  0.82544227452E+02  0.27510671454E+03  0.00000000000E+00 0. -1.
         -1    1    3    3    0  502 -0.24938770809E+02 -0.72289721006E+02  0.34706921495E+02  0.83978071258E+02  0.00000000000E+00 0.  1.
         11    1    5    5    0    0  0.33281653201E+03  0.45529964103E+02 -0.13438764812E+03  0.36180085900E+03  0.00000000000E+00 0.  1.
        -11    1    5    5    0    0  0.65633927030E+02  0.43937768688E+02 -0.49414088717E+01  0.79137585358E+02  0.00000000000E+00 0. -1.
          1    1    6    6  503    0 -0.72977904490E+01  0.45724648329E+02 -0.30681133144E+03  0.31028566565E+03  0.00000000000E+00 0. -1.
         -1    1    6    6    0  503 -0.16431589641E+03  0.10474981360E+03 -0.78942701671E+03  0.81312191704E+03  0.00000000000E+00 0.  1.
<mgrwt>
<rscale>  0 0.15649137E+04</rscale>
<asrwt>0</asrwt>
<pdfrwt beam="1">  1        2 0.61931889E-01 0.15649137E+04</pdfrwt>
<pdfrwt beam="2">  1       -1 0.23398054E+00 0.15649137E+04</pdfrwt>
<totfact> 0.77143779E+00</totfact>
</mgrwt>
</event>
<event>
12    6  0.1395358E-007  0.1530723E+04  0.7818608E-02  0.8864276E-01
         -1   -1    0    0    0  501 -0.00000000000E+00  0.00000000000E+00  0.17515598008E+03  0.17515598008E+03  0.00000000000E+00 0.  1.
          2   -1    0    0  501    0  0.00000000000E+00 -0.00000000000E+00 -0.33443242889E+04  0.33443242889E+04  0.00000000000E+00 0. -1.
         24    2    1    2    0    0 -0.13140096774E+03  0.20001567757E+03 -0.20465102287E+04  0.20619973654E+04  0.79727871255E+02 0.  0.
        254    2    1    2    0    0  0.13140096774E+03 -0.20001567757E+03 -0.11226580802E+04  0.14574829036E+04  0.89812179775E+03 0.  0.
         23    2    4    4    0    0 -0.51116736823E+02  0.33735754691E+03 -0.49921686998E+03  0.61002533120E+03  0.80562933087E+02 0.  0.
         23    2    4    4    0    0  0.18251770457E+03 -0.53737322448E+03 -0.62344121020E+03  0.84745757237E+03  0.86155089963E+02 0.  0.
          4    1    3    3  502    0 -0.12629854206E+03  0.12780861884E+03 -0.14232812297E+04  0.14345786224E+04  0.00000000000E+00 0. -1.
         -3    1    3    3    0  502 -0.51024256790E+01  0.72207058732E+02 -0.62322899892E+03  0.62741874309E+03  0.00000000000E+00 0.  1.
         11    1    5    5    0    0 -0.46347778821E+02  0.19713981645E+03 -0.35579342829E+03  0.40939124007E+03  0.00000000000E+00 0.  1.
        -11    1    5    5    0    0 -0.47689580027E+01  0.14021773046E+03 -0.14342344169E+03  0.20063409113E+03  0.00000000000E+00 0. -1.
          3    1    6    6  503    0  0.19595042110E+02 -0.16013591703E+03 -0.20662748818E+03  0.26214956889E+03  0.00000000000E+00 0. -1.
         -3    1    6    6    0  503  0.16292266246E+03 -0.37723730745E+03 -0.41681372202E+03  0.58530800348E+03  0.00000000000E+00 0.  1.
<mgrwt>
<rscale>  0 0.15307232E+04</rscale>
<asrwt>0</asrwt>
<pdfrwt beam="1">  1        2 0.51451144E+00 0.15307232E+04</pdfrwt>
<pdfrwt beam="2">  1       -1 0.26947073E-01 0.15307232E+04</pdfrwt>
<totfact> 0.14207630E+01</totfact>
</mgrwt>
</event>
<event>
12    6  0.1395358E-007  0.2324174E+04  0.7818608E-02  0.8468450E-01
          2   -1    0    0  501    0  0.00000000000E+00  0.00000000000E+00  0.21988125143E+04  0.21988125143E+04  0.00000000000E+00 0. -1.
         -1   -1    0    0    0  501 -0.00000000000E+00 -0.00000000000E+00 -0.61417081150E+03  0.61417081150E+03  0.00000000000E+00 0.  1.
         24    2    1    2    0    0  0.51248613636E+03 -0.61514232662E+03 -0.22330102340E+02  0.80481198909E+03  0.78623039580E+02 0.  0.
        254    2    1    2    0    0 -0.51248613636E+03  0.61514232662E+03  0.16069718051E+04  0.20081713367E+04  0.89963971295E+03 0.  0.
         23    2    4    4    0    0  0.60964428600E+02  0.17377230306E+03  0.11010072660E+04  0.11199885106E+04  0.90795314973E+02 0.  0.
         23    2    4    4    0    0 -0.57345056496E+03  0.44137002356E+03  0.50596453912E+03  0.88818282609E+03  0.95997758195E+02 0.  0.
          2    1    3    3  502    0  0.89955760231E+01 -0.35243670273E+02 -0.42869190260E+01  0.36625323986E+02  0.00000000000E+00 0. -1.
         -1    1    3    3    0  502  0.50349056034E+03 -0.57989865635E+03 -0.18043183314E+02  0.76818666510E+03  0.00000000000E+00 0.  1.
         11    1    5    5    0    0  0.54621123697E+02  0.18467206399E+03  0.10423399450E+04  0.10599810373E+04  0.00000000000E+00 0. -1.
        -11    1    5    5    0    0  0.63433049029E+01 -0.10899760922E+02  0.58667320954E+02  0.60007473311E+02  0.00000000000E+00 0.  1.
          2    1    6    6  503    0 -0.41881492972E+03  0.29642784474E+03  0.30970937520E+03  0.59932904951E+03  0.00000000000E+00 0. -1.
         -2    1    6    6    0  503 -0.15463563524E+03  0.14494217882E+03  0.19625516391E+03  0.28885377659E+03  0.00000000000E+00 0.  1.
<mgrwt>
<rscale>  0 0.23241742E+04</rscale>
<asrwt>0</asrwt>
<pdfrwt beam="1">  1        2 0.33827884E+00 0.23241742E+04</pdfrwt>
<pdfrwt beam="2">  1       -1 0.94487818E-01 0.23241742E+04</pdfrwt>
<totfact> 0.57705114E+00</totfact>
</mgrwt>
</event>
<event>
12    6  0.1395358E-007  0.2395817E+04  0.7818608E-02  0.8441071E-01
          2   -1    0    0  501    0  0.00000000000E+00  0.00000000000E+00  0.10207410135E+04  0.10207410135E+04  0.00000000000E+00 0. -1.
         -1   -1    0    0    0  501 -0.00000000000E+00 -0.00000000000E+00 -0.14058263544E+04  0.14058263544E+04  0.00000000000E+00 0.  1.
         24    2    1    2    0    0 -0.80770848330E+03 -0.29231236328E+03  0.40388423234E+03  0.95260530420E+03  0.80590823015E+02 0.  0.
        254    2    1    2    0    0  0.80770848330E+03  0.29231236328E+03 -0.78896957322E+03  0.14739620636E+04  0.90125005735E+03 0.  0.
         23    2    4    4    0    0  0.81616322996E+03  0.29964279718E+03 -0.22439269919E+03  0.90187163036E+03  0.84333447443E+02 0.  0.
         23    2    4    4    0    0 -0.84547466633E+01 -0.73304339010E+01 -0.56457687403E+03  0.57209043328E+03  0.91734394625E+02 0.  0.
          2    1    3    3  502    0 -0.17017042349E+03 -0.34544768053E+02  0.10384043549E+03  0.20232189716E+03  0.00000000000E+00 0. -1.
         -1    1    3    3    0  502 -0.63753805981E+03 -0.25776759523E+03  0.30004379685E+03  0.75028340704E+03  0.00000000000E+00 0.  1.
         11    1    5    5    0    0  0.22712375001E+02  0.15868558226E+02  0.58413435428E+01  0.28315797936E+02  0.00000000000E+00 0. -1.
        -11    1    5    5    0    0  0.79345085496E+03  0.28377423896E+03 -0.23023404273E+03  0.87355583242E+03  0.00000000000E+00 0.  1.
          1    1    6    6  503    0  0.35401210615E+02  0.19781437729E+02 -0.22584892327E+03  0.22946086188E+03  0.00000000000E+00 0. -1.
         -1    1    6    6    0  503 -0.43855957278E+02 -0.27111871630E+02 -0.33872795076E+03  0.34262957140E+03  0.00000000000E+00 0.  1.
<mgrwt>
<rscale>  0 0.23958169E+04</rscale>
<asrwt>0</asrwt>
<pdfrwt beam="1">  1        2 0.15703708E+00 0.23958169E+04</pdfrwt>
<pdfrwt beam="2">  1       -1 0.21628098E+00 0.23958169E+04</pdfrwt>
<totfact> 0.29206658E+00</totfact>
</mgrwt>
</event>
<event>
12    6  0.1395358E-007  0.2227595E+04  0.7818608E-02  0.8507029E-01
          2   -1    0    0  501    0  0.00000000000E+00  0.00000000000E+00  0.16388709571E+04  0.16388709571E+04  0.00000000000E+00 0. -1.
         -1   -1    0    0    0  501 -0.00000000000E+00 -0.00000000000E+00 -0.75695105264E+03  0.75695105264E+03  0.00000000000E+00 0.  1.
         24    2    1    2    0    0 -0.82003650383E+03  0.43157684364E+03  0.45845643061E+03  0.10369876953E+04  0.80266691759E+02 0.  0.
        254    2    1    2    0    0  0.82003650383E+03 -0.43157684364E+03  0.42346347387E+03  0.13588343145E+04  0.89910563395E+03 0.  0.
         23    2    4    4    0    0  0.55662212158E+03 -0.39869542797E+03  0.68680549307E+03  0.97427381627E+03  0.93388721202E+02 0.  0.
         23    2    4    4    0    0  0.26341438225E+03 -0.32881415670E+02 -0.26334201919E+03  0.38456049823E+03  0.89830025379E+02 0.  0.
          2    1    3    3  502    0 -0.22526990012E+03  0.13235168977E+03  0.16778333453E+03  0.31050723829E+03  0.00000000000E+00 0. -1.
         -1    1    3    3    0  502 -0.59476660370E+03  0.29922515387E+03  0.29067309608E+03  0.72648045698E+03  0.00000000000E+00 0.  1.
         11    1    5    5    0    0  0.35979645115E+03 -0.23505377947E+03  0.37093821440E+03  0.56771376979E+03  0.00000000000E+00 0.  1.
        -11    1    5    5    0    0  0.19682567043E+03 -0.16364164850E+03  0.31586727867E+03  0.40656004648E+03  0.00000000000E+00 0. -1.
          2    1    6    6  503    0  0.82464982288E+02  0.29636381827E+01 -0.31593154184E+02  0.88359401573E+02  0.00000000000E+00 0. -1.
         -2    1    6    6    0  503  0.18094939996E+03 -0.35845053852E+02 -0.23174886501E+03  0.29620109666E+03  0.00000000000E+00 0.  1.
<mgrwt>
<rscale>  0 0.22275952E+04</rscale>
<asrwt>0</asrwt>
<pdfrwt beam="1">  1        2 0.25213399E+00 0.22275952E+04</pdfrwt>
<pdfrwt beam="2">  1       -1 0.11645401E+00 0.22275952E+04</pdfrwt>
<totfact> 0.73368771E+00</totfact>
</mgrwt>
</event>
<event>
12    6  0.1395358E-007  0.2133939E+04  0.7818608E-02  0.8546439E-01
          2   -1    0    0  501    0  0.00000000000E+00  0.00000000000E+00  0.14936439355E+04  0.14936439355E+04  0.00000000000E+00 0. -1.
         -3   -1    0    0    0  501 -0.00000000000E+00 -0.00000000000E+00 -0.76217879611E+03  0.76217879611E+03  0.00000000000E+00 0.  1.
         24    2    1    2    0    0 -0.53719370276E+03 -0.68187371774E+03  0.18105555764E+03  0.89026745383E+03  0.79159226554E+02 0.  0.
        254    2    1    2    0    0  0.53719370276E+03  0.68187371774E+03  0.55040958173E+03  0.13655552778E+04  0.89903374115E+03 0.  0.
         23    2    4    4    0    0  0.17758045643E+03  0.11636821321E+03 -0.23422552309E+03  0.32947806173E+03  0.92832203144E+02 0.  0.
         23    2    4    4    0    0  0.35961324633E+03  0.56550550453E+03  0.78463510482E+03  0.10360772160E+04  0.93196498204E+02 0.  0.
          2    1    3    3  502    0 -0.49450192185E+02 -0.76726141961E+02  0.42851095352E+02  0.10083867681E+03  0.00000000000E+00 0. -1.
         -3    1    3    3    0  502 -0.48774351058E+03 -0.60514757578E+03  0.13820446229E+03  0.78942877702E+03  0.00000000000E+00 0.  1.
         11    1    5    5    0    0  0.16001537904E+03  0.63883091842E+02 -0.20174228936E+03  0.26530345318E+03  0.00000000000E+00 0. -1.
        -11    1    5    5    0    0  0.17565077391E+02  0.52485121365E+02 -0.32483233728E+02  0.64174608545E+02  0.00000000000E+00 0.  1.
          4    1    6    6  503    0  0.33601778270E+03  0.55869781101E+03  0.75929321677E+03  0.10007883809E+04  0.00000000000E+00 0. -1.
         -4    1    6    6    0  503  0.23595463627E+02  0.68076935211E+01  0.25341888049E+02  0.35288835129E+02  0.00000000000E+00 0.  1.
<mgrwt>
<rscale>  0 0.21339388E+04</rscale>
<asrwt>0</asrwt>
<pdfrwt beam="1">  1        2 0.22979137E+00 0.21339388E+04</pdfrwt>
<pdfrwt beam="2">  1       -3 0.11725828E+00 0.21339388E+04</pdfrwt>
<totfact> 0.44695506E+00</totfact>
</mgrwt>
</event>
<event>
12    6  0.1395358E-007  0.1664995E+04  0.7818608E-02  0.8781585E-01
         -1   -1    0    0    0  501 -0.00000000000E+00  0.00000000000E+00  0.98449801900E+03  0.98449801900E+03  0.00000000000E+00 0.  1.
          2   -1    0    0  501    0  0.00000000000E+00 -0.00000000000E+00 -0.70396482227E+03  0.70396482227E+03  0.00000000000E+00 0. -1.
         24    2    1    2    0    0 -0.21637253308E+03  0.23752569058E+03 -0.40646852424E+03  0.52245420833E+03  0.67128323697E+02 0.  0.
        254    2    1    2    0    0  0.21637253308E+03 -0.23752569058E+03  0.68700172097E+03  0.11660086329E+04  0.88564622774E+03 0.  0.
         23    2    4    4    0    0  0.20761737760E+03 -0.13042566847E+03 -0.15994413577E+03  0.30739556477E+03  0.93776735913E+02 0.  0.
         23    2    4    4    0    0  0.87551554781E+01 -0.10710002211E+03  0.84694585674E+03  0.85861306817E+03  0.91389545860E+02 0.  0.
          2    1    3    3  502    0 -0.86245956439E+02  0.53253606335E+02 -0.14805387920E+03  0.17942759747E+03  0.00000000000E+00 0. -1.
         -1    1    3    3    0  502 -0.13012657664E+03  0.18427208424E+03 -0.25841464505E+03  0.34302661086E+03  0.00000000000E+00 0.  1.
         11    1    5    5    0    0  0.20531257099E+02  0.60788447070E+01 -0.42811496561E+02  0.47867620672E+02  0.00000000000E+00 0. -1.
        -11    1    5    5    0    0  0.18708612050E+03 -0.13650451318E+03 -0.11713263921E+03  0.25952794410E+03  0.00000000000E+00 0.  1.
          4    1    6    6  503    0  0.22785118969E+01  0.16748317511E+02  0.89621929009E+02  0.91201907410E+02  0.00000000000E+00 0.  1.
         -4    1    6    6    0  503  0.64766435812E+01 -0.12384833962E+03  0.75732392773E+03  0.76741116076E+03  0.00000000000E+00 0. -1.
<mgrwt>
<rscale>  0 0.16649949E+04</rscale>
<asrwt>0</asrwt>
<pdfrwt beam="1">  1        2 0.10830228E+00 0.16649949E+04</pdfrwt>
<pdfrwt beam="2">  1       -1 0.15146123E+00 0.16649949E+04</pdfrwt>
<totfact> 0.15066053E+01</totfact>
</mgrwt>
</event>
<event>
12    6  0.1395358E-007  0.3213287E+04  0.7818608E-02  0.8185317E-01
         -1   -1    0    0    0  501 -0.00000000000E+00  0.00000000000E+00  0.75489406599E+03  0.75489406599E+03  0.00000000000E+00 0.  1.
          2   -1    0    0  501    0  0.00000000000E+00 -0.00000000000E+00 -0.34194236619E+04  0.34194236619E+04  0.00000000000E+00 0. -1.
         24    2    1    2    0    0 -0.11734384162E+04  0.50334969888E+03 -0.21989971777E+04  0.25440485605E+04  0.79220292877E+02 0.  0.
        254    2    1    2    0    0  0.11734384162E+04 -0.50334969888E+03 -0.46553241819E+03  0.16302691673E+04  0.90041017847E+03 0.  0.
         23    2    4    4    0    0  0.88155220276E+03  0.66701813508E+02 -0.41601529680E+03  0.98119280943E+03  0.89928771729E+02 0.  0.
         23    2    4    4    0    0  0.29188621348E+03 -0.57005151238E+03 -0.49517121385E+02  0.64907635790E+03  0.93230277707E+02 0.  0.
          2    1    3    3  502    0 -0.48405818881E+03  0.21386023680E+03 -0.98883502570E+03  0.11215361069E+04  0.00000000000E+00 0. -1.
         -1    1    3    3    0  502 -0.68938022744E+03  0.28948946208E+03 -0.12101621520E+04  0.14225124536E+04  0.00000000000E+00 0.  1.
         11    1    5    5    0    0  0.12204570016E+03  0.15900515510E+02 -0.25614914194E+02  0.12571437130E+03  0.00000000000E+00 0.  1.
        -11    1    5    5    0    0  0.75950650260E+03  0.50801297998E+02 -0.39040038261E+03  0.85547843814E+03  0.00000000000E+00 0. -1.
          3    1    6    6  503    0  0.93604283389E+02 -0.12090917772E+03  0.16078754008E+02  0.15375082913E+03  0.00000000000E+00 0. -1.
         -3    1    6    6    0  503  0.19828193009E+03 -0.44914233466E+03 -0.65595875393E+02  0.49532552877E+03  0.00000000000E+00 0.  1.
<mgrwt>
<rscale>  0 0.32132866E+04</rscale>
<asrwt>0</asrwt>
<pdfrwt beam="1">  1        2 0.52606517E+00 0.32132866E+04</pdfrwt>
<pdfrwt beam="2">  1       -1 0.11613755E+00 0.32132866E+04</pdfrwt>
<totfact> 0.59133296E-01</totfact>
</mgrwt>
</event>
<event>
12    6  0.1395358E-007  0.2429511E+04  0.7818608E-02  0.8428537E-01
         -1   -1    0    0    0  501 -0.00000000000E+00  0.00000000000E+00  0.48417376721E+03  0.48417376721E+03  0.00000000000E+00 0.  1.
          2   -1    0    0  501    0  0.00000000000E+00 -0.00000000000E+00 -0.30477294671E+04  0.30477294671E+04  0.00000000000E+00 0. -1.
         24    2    1    2    0    0  0.24901318618E+03  0.87741302454E+03 -0.35832837130E+03  0.98152294191E+03  0.55918523758E+02 0.  0.
        254    2    1    2    0    0 -0.24901318618E+03 -0.87741302454E+03 -0.22052273286E+04  0.25503802924E+04  0.89975045573E+03 0.  0.
         23    2    4    4    0    0 -0.19658648436E+03 -0.10456038630E+04 -0.19854101090E+04  0.22542071474E+04  0.87537868795E+02 0.  0.
         23    2    4    4    0    0 -0.52426701820E+02  0.16819083846E+03 -0.21981721960E+03  0.29617314498E+03  0.91445090451E+02 0.  0.
          2    1    3    3  502    0  0.12031849908E+03  0.52118772127E+03 -0.21766800157E+03  0.57748813055E+03  0.00000000000E+00 0. -1.
         -1    1    3    3    0  502  0.12869468710E+03  0.35622530327E+03 -0.14066036974E+03  0.40403481136E+03  0.00000000000E+00 0.  1.
         11    1    5    5    0    0 -0.33540512686E+02 -0.29199321780E+03 -0.48030381291E+03  0.56309569163E+03  0.00000000000E+00 0. -1.
        -11    1    5    5    0    0 -0.16304597168E+03 -0.75361064520E+03 -0.15051062961E+04  0.16911114558E+04  0.00000000000E+00 0.  1.
          3    1    6    6  503    0 -0.30310732832E+02  0.74228283117E+02 -0.16906591558E+03  0.18711457012E+03  0.00000000000E+00 0. -1.
         -3    1    6    6    0  503 -0.22115968988E+02  0.93962555343E+02 -0.50751304022E+02  0.10905857486E+03  0.00000000000E+00 0.  1.
<mgrwt>
<rscale>  0 0.24295108E+04</rscale>
<asrwt>0</asrwt>
<pdfrwt beam="1">  1        2 0.46888145E+00 0.24295108E+04</pdfrwt>
<pdfrwt beam="2">  1       -1 0.74488273E-01 0.24295108E+04</pdfrwt>
<totfact> 0.30078462E+00</totfact>
</mgrwt>
</event>
<event>
12    6  0.1395358E-007  0.1866475E+04  0.7818608E-02  0.8671726E-01
          2   -1    0    0  501    0  0.00000000000E+00  0.00000000000E+00  0.28350115414E+03  0.28350115414E+03  0.00000000000E+00 0. -1.
         -1   -1    0    0    0  501 -0.00000000000E+00 -0.00000000000E+00 -0.30720572953E+04  0.30720572953E+04  0.00000000000E+00 0.  1.
         24    2    1    2    0    0 -0.17232236128E+03 -0.38365867556E+03 -0.21103729308E+04  0.21533554492E+04  0.79854918893E+02 0.  0.
        254    2    1    2    0    0  0.17232236128E+03  0.38365867556E+03 -0.67818321038E+03  0.12022030002E+04  0.89914993823E+03 0.  0.
         23    2    4    4    0    0 -0.63357555659E+02 -0.15376985258E+03 -0.56683358643E+03  0.59792654310E+03  0.92501290912E+02 0.  0.
         23    2    4    4    0    0  0.23567991694E+03  0.53742852814E+03 -0.11134962396E+03  0.60427645714E+03  0.91525142988E+02 0.  0.
          4    1    3    3  502    0  0.60775192134E+01 -0.25152082456E+02 -0.18324103337E+03  0.18505901708E+03  0.00000000000E+00 0. -1.
         -3    1    3    3    0  502 -0.17839988049E+03 -0.35850659310E+03 -0.19271318974E+04  0.19682964321E+04  0.00000000000E+00 0.  1.
         11    1    5    5    0    0 -0.16359667732E+02 -0.12044465505E+03 -0.46798997257E+03  0.48351749512E+03  0.00000000000E+00 0. -1.
        -11    1    5    5    0    0 -0.46997887927E+02 -0.33325197530E+02 -0.98843613857E+02  0.11440904798E+03  0.00000000000E+00 0.  1.
          1    1    6    6  503    0  0.11958638680E+03  0.32450577920E+03 -0.24603553413E+02  0.34671348327E+03  0.00000000000E+00 0. -1.
         -1    1    6    6    0  503  0.11609353014E+03  0.21292274894E+03 -0.86746070543E+02  0.25756297387E+03  0.00000000000E+00 0.  1.
<mgrwt>
<rscale>  0 0.18664745E+04</rscale>
<asrwt>0</asrwt>
<pdfrwt beam="1">  1        2 0.43615560E-01 0.18664745E+04</pdfrwt>
<pdfrwt beam="2">  1       -1 0.47262423E+00 0.18664745E+04</pdfrwt>
<totfact> 0.28452943E-01</totfact>
</mgrwt>
</event>
<event>
12    6  0.1395358E-007  0.1542391E+04  0.7818608E-02  0.8856742E-01
          2   -1    0    0  501    0  0.00000000000E+00  0.00000000000E+00  0.95070314224E+03  0.95070314224E+03  0.00000000000E+00 0. -1.
         -1   -1    0    0    0  501 -0.00000000000E+00 -0.00000000000E+00 -0.62558207014E+03  0.62558207014E+03  0.00000000000E+00 0.  1.
         24    2    1    2    0    0  0.48278461138E+03 -0.99304140291E+02  0.22473700574E+03  0.54732174139E+03  0.78179751778E+02 0.  0.
        254    2    1    2    0    0 -0.48278461138E+03  0.99304140291E+02  0.10038406636E+03  0.10289634710E+04  0.89763387335E+03 0.  0.
         23    2    4    4    0    0 -0.34583637373E+03  0.16381730862E+03  0.47370905318E+03  0.61584867359E+03  0.91817284341E+02 0.  0.
         23    2    4    4    0    0 -0.13694823765E+03 -0.64513168333E+02 -0.37332498681E+03  0.41311479739E+03  0.91517874545E+02 0.  0.
          2    1    3    3  502    0  0.14040677796E+03 -0.48878495760E+02  0.10126989853E+03  0.17988541629E+03  0.00000000000E+00 0. -1.
         -1    1    3    3    0  502  0.34237783342E+03 -0.50425644531E+02  0.12346710721E+03  0.36743632511E+03  0.00000000000E+00 0.  1.
         11    1    5    5    0    0 -0.34691179505E+02  0.17331646913E+02  0.10362784572E+03  0.11064625763E+03  0.00000000000E+00 0. -1.
        -11    1    5    5    0    0 -0.31114519423E+03  0.14648566171E+03  0.37008120746E+03  0.50520241596E+03  0.00000000000E+00 0.  1.
          3    1    6    6  503    0 -0.33281780852E+01  0.16604139386E+02 -0.16924954305E+02  0.23942186457E+02  0.00000000000E+00 0. -1.
         -3    1    6    6    0  503 -0.13362005957E+03 -0.81117307720E+02 -0.35640003251E+03  0.38917261094E+03  0.00000000000E+00 0.  1.
<mgrwt>
<rscale>  0 0.15423914E+04</rscale>
<asrwt>0</asrwt>
<pdfrwt beam="1">  1        2 0.14626202E+00 0.15423914E+04</pdfrwt>
<pdfrwt beam="2">  1       -1 0.96243395E-01 0.15423914E+04</pdfrwt>
<totfact> 0.31002122E+01</totfact>
</mgrwt>
</event>
<event>
12    6  0.1395358E-007  0.1542778E+04  0.7818608E-02  0.8856494E-01
         -1   -1    0    0    0  501 -0.00000000000E+00  0.00000000000E+00  0.52334209248E+03  0.52334209248E+03  0.00000000000E+00 0.  1.
          2   -1    0    0  501    0  0.00000000000E+00 -0.00000000000E+00 -0.11370026181E+04  0.11370026181E+04  0.00000000000E+00 0. -1.
         24    2    1    2    0    0  0.50065402244E+03 -0.67650110465E+02 -0.22423635382E+03  0.55850514872E+03  0.80094139255E+02 0.  0.
        254    2    1    2    0    0 -0.50065402244E+03  0.67650110465E+02 -0.38942417182E+03  0.11018395619E+04  0.89842542646E+03 0.  0.
         23    2    4    4    0    0 -0.70898962667E+03  0.78867265002E+02 -0.89895596197E+02  0.72555334219E+03  0.97263034765E+02 0.  0.
         23    2    4    4    0    0  0.20833560423E+03 -0.11217154537E+02 -0.29952857562E+03  0.37628621969E+03  0.91347703698E+02 0.  0.
          2    1    3    3  502    0  0.14946002613E+03  0.36266853285E+01 -0.97088847028E+02  0.17826299806E+03  0.00000000000E+00 0. -1.
         -1    1    3    3    0  502  0.35119399630E+03 -0.71276795794E+02 -0.12714750679E+03  0.38024215066E+03  0.00000000000E+00 0.  1.
         11    1    5    5    0    0 -0.30545363114E+03  0.82520248372E+02 -0.38008048728E+02  0.31867871585E+03  0.00000000000E+00 0. -1.
        -11    1    5    5    0    0 -0.40353599553E+03 -0.36529833699E+01 -0.51887547469E+02  0.40687462634E+03  0.00000000000E+00 0.  1.
          3    1    6    6  503    0  0.14029092065E+03 -0.44582734825E+02 -0.15937473561E+03  0.21695499305E+03  0.00000000000E+00 0. -1.
         -3    1    6    6    0  503  0.68044683583E+02  0.33365580289E+02 -0.14015384001E+03  0.15933122664E+03  0.00000000000E+00 0.  1.
<mgrwt>
<rscale>  0 0.15427784E+04</rscale>
<asrwt>0</asrwt>
<pdfrwt beam="1">  1        2 0.17492348E+00 0.15427784E+04</pdfrwt>
<pdfrwt beam="2">  1       -1 0.80514170E-01 0.15427784E+04</pdfrwt>
<totfact> 0.34948687E+01</totfact>
</mgrwt>
</event>
<event>
12    6  0.1395358E-007  0.3824309E+04  0.7818608E-02  0.8040958E-01
         -1   -1    0    0    0  501 -0.00000000000E+00  0.00000000000E+00  0.16937298970E+04  0.16937298970E+04  0.00000000000E+00 0.  1.
          2   -1    0    0  501    0  0.00000000000E+00 -0.00000000000E+00 -0.21587473656E+04  0.21587473656E+04  0.00000000000E+00 0. -1.
         24    2    1    2    0    0 -0.10321917738E+04 -0.14802735656E+04 -0.27530614367E+03  0.18274590775E+04  0.84755649847E+02 0.  0.
        254    2    1    2    0    0  0.10321917738E+04  0.14802735656E+04 -0.18971132491E+03  0.20250181852E+04  0.89893190875E+03 0.  0.
         23    2    4    4    0    0  0.99835387076E+03  0.15454981562E+04 -0.47588782269E+02  0.18426961719E+04  0.89383933217E+02 0.  0.
         23    2    4    4    0    0  0.33837902995E+02 -0.65224590589E+02 -0.14212254264E+03  0.18232201329E+03  0.87425674193E+02 0.  0.
          2    1    3    3  502    0 -0.54255790108E+03 -0.83616542290E+03 -0.17818748542E+03  0.10125672671E+04  0.00000000000E+00 0. -1.
         -1    1    3    3    0  502 -0.48963387268E+03 -0.64410814273E+03 -0.97118658252E+02  0.81489181035E+03  0.00000000000E+00 0.  1.
         11    1    5    5    0    0  0.13803056851E+03  0.16702681435E+03  0.80762624524E+01  0.21683085706E+03  0.00000000000E+00 0.  1.
        -11    1    5    5    0    0  0.86032330225E+03  0.13784713419E+04 -0.55665044721E+02  0.16258653148E+04  0.00000000000E+00 0. -1.
          1    1    6    6  503    0 -0.11898354433E+02 -0.25600203849E+02 -0.41342980590E+00  0.28233175513E+02  0.00000000000E+00 0. -1.
         -1    1    6    6    0  503  0.45736257428E+02 -0.39624386740E+02 -0.14170911283E+03  0.15408883778E+03  0.00000000000E+00 0.  1.
<mgrwt>
<rscale>  0 0.38243091E+04</rscale>
<asrwt>0</asrwt>
<pdfrwt beam="1">  1        2 0.33211498E+00 0.38243091E+04</pdfrwt>
<pdfrwt beam="2">  1       -1 0.26057383E+00 0.38243091E+04</pdfrwt>
<totfact> 0.29489894E-01</totfact>
</mgrwt>
</event>
<event>
12    6  0.1395358E-007  0.3027030E+04  0.7818608E-02  0.8236054E-01
         -1   -1    0    0    0  501 -0.00000000000E+00  0.00000000000E+00  0.16098043973E+04  0.16098043973E+04  0.00000000000E+00 0.  1.
          2   -1    0    0  501    0  0.00000000000E+00 -0.00000000000E+00 -0.14229850948E+04  0.14229850948E+04  0.00000000000E+00 0. -1.
         24    2    1    2    0    0  0.64238822140E+03 -0.95432828234E+03 -0.67541268925E+03  0.13363915381E+04  0.79717908226E+02 0.  0.
        254    2    1    2    0    0 -0.64238822140E+03  0.95432828234E+03  0.86223199179E+03  0.16963979540E+04  0.90050925210E+03 0.  0.
         23    2    4    4    0    0  0.99228185092E+02  0.62620153130E+03  0.44286491739E+03  0.77866498395E+03  0.90637915084E+02 0.  0.
         23    2    4    4    0    0 -0.74161640649E+03  0.32812675104E+03  0.41936707440E+03  0.91773297003E+03  0.93289881873E+02 0.  0.
          2    1    3    3  502    0  0.19616979331E+03 -0.34671046382E+03 -0.25918347140E+03  0.47525446381E+03  0.00000000000E+00 0. -1.
         -1    1    3    3    0  502  0.44621842809E+03 -0.60761781852E+03 -0.41622921786E+03  0.86113707431E+03  0.00000000000E+00 0.  1.
         11    1    5    5    0    0  0.65387753303E+02  0.31930931849E+03  0.17518325352E+03  0.37003131147E+03  0.00000000000E+00 0. -1.
        -11    1    5    5    0    0  0.33840431789E+02  0.30689221281E+03  0.26768166387E+03  0.40863367248E+03  0.00000000000E+00 0.  1.
          2    1    6    6  503    0 -0.32109896158E+03  0.15753555087E+03  0.23472285475E+03  0.42780464170E+03  0.00000000000E+00 0. -1.
         -2    1    6    6    0  503 -0.42051744491E+03  0.17059120017E+03  0.18464421965E+03  0.48992832833E+03  0.00000000000E+00 0.  1.
<mgrwt>
<rscale>  0 0.30270300E+04</rscale>
<asrwt>0</asrwt>
<pdfrwt beam="1">  1        2 0.21892078E+00 0.30270300E+04</pdfrwt>
<pdfrwt beam="2">  1       -1 0.24766221E+00 0.30270300E+04</pdfrwt>
<totfact> 0.98614636E-01</totfact>
</mgrwt>
</event>
<event>
12    6  0.1395358E-007  0.4057953E+04  0.7818608E-02  0.7992956E-01
          2   -1    0    0  501    0  0.00000000000E+00  0.00000000000E+00  0.17460666595E+04  0.17460666595E+04  0.00000000000E+00 0. -1.
         -1   -1    0    0    0  501 -0.00000000000E+00 -0.00000000000E+00 -0.23577259197E+04  0.23577259197E+04  0.00000000000E+00 0.  1.
         24    2    1    2    0    0 -0.78658543340E+03 -0.15324315216E+04  0.58582514255E+03  0.18212237892E+04  0.81252570603E+02 0.  0.
        254    2    1    2    0    0  0.78658543340E+03  0.15324315216E+04 -0.11974844027E+04  0.22825687900E+04  0.89949339850E+03 0.  0.
         23    2    4    4    0    0  0.39700462327E+03  0.86570687487E+03 -0.13536927808E+03  0.96620825083E+03  0.90401761194E+02 0.  0.
         23    2    4    4    0    0  0.38958081013E+03  0.66672464673E+03 -0.10621151246E+04  0.13163605392E+04  0.91769106769E+02 0.  0.
          4    1    3    3  502    0 -0.18703617928E+03 -0.29566621716E+03  0.12845291313E+03  0.37269450656E+03  0.00000000000E+00 0. -1.
         -3    1    3    3    0  502 -0.59954925412E+03 -0.12367653044E+04  0.45737222942E+03  0.14485292826E+04  0.00000000000E+00 0.  1.
         11    1    5    5    0    0  0.11797093567E+03  0.35457373858E+03 -0.70403256001E+02  0.38025819677E+03  0.00000000000E+00 0. -1.
        -11    1    5    5    0    0  0.27903368760E+03  0.51113313629E+03 -0.64966022079E+02  0.58595005407E+03  0.00000000000E+00 0.  1.
          1    1    6    6  503    0  0.18600669866E+03  0.23012716178E+03 -0.40724039239E+03  0.50339024596E+03  0.00000000000E+00 0. -1.
         -1    1    6    6    0  503  0.20357411147E+03  0.43659748495E+03 -0.65487473224E+03  0.81297029322E+03  0.00000000000E+00 0.  1.
<mgrwt>
<rscale>  0 0.40579535E+04</rscale>
<asrwt>0</asrwt>
<pdfrwt beam="1">  1        2 0.26862564E+00 0.40579535E+04</pdfrwt>
<pdfrwt beam="2">  1       -1 0.36272706E+00 0.40579535E+04</pdfrwt>
<totfact> 0.10559692E-01</totfact>
</mgrwt>
</event>
<event>
12    6  0.1395358E-007  0.1468214E+04  0.7818608E-02  0.8905870E-01
          2   -1    0    0  501    0  0.00000000000E+00  0.00000000000E+00  0.32889441377E+03  0.32889441377E+03  0.00000000000E+00 0. -1.
         -1   -1    0    0    0  501 -0.00000000000E+00 -0.00000000000E+00 -0.16385599571E+04  0.16385599571E+04  0.00000000000E+00 0.  1.
         24    2    1    2    0    0  0.36042942441E+03  0.94643860403E+02 -0.76655007898E+03  0.85608259537E+03  0.80072193839E+02 0.  0.
        254    2    1    2    0    0 -0.36042942441E+03 -0.94643860403E+02 -0.54311546432E+03  0.11113717755E+04  0.89515696134E+03 0.  0.
         23    2    4    4    0    0 -0.64500946540E+03  0.20975194119E+01 -0.31774313125E+03  0.72483548925E+03  0.91565162434E+02 0.  0.
         23    2    4    4    0    0  0.28458004100E+03 -0.96741379815E+02 -0.22537233307E+03  0.38653628622E+03  0.90955581177E+02 0.  0.
          4    1    3    3  502    0  0.17906527473E+03  0.60019155261E+02 -0.30206254388E+03  0.35624212556E+03  0.00000000000E+00 0. -1.
         -3    1    3    3    0  502  0.18136414968E+03  0.34624705142E+02 -0.46448753510E+03  0.49984046981E+03  0.00000000000E+00 0.  1.
         11    1    5    5    0    0 -0.40280045339E+03  0.43087256999E+02 -0.18109931107E+03  0.44373604478E+03  0.00000000000E+00 0. -1.
        -11    1    5    5    0    0 -0.24220901201E+03 -0.40989737587E+02 -0.13664382017E+03  0.28109944447E+03  0.00000000000E+00 0.  1.
          4    1    6    6  503    0  0.17853491395E+03 -0.82139258807E+02 -0.19115036681E+03  0.27415330760E+03  0.00000000000E+00 0. -1.
         -4    1    6    6    0  503  0.10604512705E+03 -0.14602121008E+02 -0.34221966259E+02  0.11238297862E+03  0.00000000000E+00 0.  1.
<mgrwt>
<rscale>  0 0.14682142E+04</rscale>
<asrwt>0</asrwt>
<pdfrwt beam="1">  1        2 0.50599141E-01 0.14682142E+04</pdfrwt>
<pdfrwt beam="2">  1       -1 0.25208615E+00 0.14682142E+04</pdfrwt>
<totfact> 0.74277880E+00</totfact>
</mgrwt>
</event>
<event>
12    6  0.1395358E-007  0.1437674E+04  0.7818608E-02  0.8926991E-01
          2   -1    0    0  501    0  0.00000000000E+00  0.00000000000E+00  0.20420920398E+04  0.20420920398E+04  0.00000000000E+00 0. -1.
         -1   -1    0    0    0  501 -0.00000000000E+00 -0.00000000000E+00 -0.25303797476E+03  0.25303797476E+03  0.00000000000E+00 0.  1.
         24    2    1    2    0    0 -0.14743003987E+03  0.24428114463E+03  0.10620470937E+04  0.11025537226E+04  0.79194619062E+02 0.  0.
        254    2    1    2    0    0  0.14743003987E+03 -0.24428114463E+03  0.72700697131E+03  0.11925762919E+04  0.90127142499E+03 0.  0.
         23    2    4    4    0    0 -0.33329404763E+03  0.84075808526E+02  0.28947447114E+03  0.45867870917E+03  0.91853279956E+02 0.  0.
         23    2    4    4    0    0  0.48072408749E+03 -0.32835695315E+03  0.43753250016E+03  0.73389758277E+03  0.90868236058E+02 0.  0.
          4    1    3    3  502    0 -0.13713131287E+03  0.17847478736E+03  0.89119217389E+03  0.91917448697E+03  0.00000000000E+00 0. -1.
         -3    1    3    3    0  502 -0.10298726998E+02  0.65806357264E+02  0.17085491983E+03  0.18337923564E+03  0.00000000000E+00 0.  1.
         11    1    5    5    0    0 -0.13682552120E+03  0.81125094228E+02  0.12119092365E+03  0.19997435871E+03  0.00000000000E+00 0.  1.
        -11    1    5    5    0    0 -0.19646852643E+03  0.29507142982E+01  0.16828354749E+03  0.25870435046E+03  0.00000000000E+00 0. -1.
          3    1    6    6  503    0  0.65267118477E+02 -0.10566274992E+02  0.46711038663E+02  0.80952850811E+02  0.00000000000E+00 0. -1.
         -3    1    6    6    0  503  0.41545696902E+03 -0.31779067816E+03  0.39082146150E+03  0.65294473196E+03  0.00000000000E+00 0.  1.
<mgrwt>
<rscale>  0 0.14376743E+04</rscale>
<asrwt>0</asrwt>
<pdfrwt beam="1">  1        2 0.31416799E+00 0.14376743E+04</pdfrwt>
<pdfrwt beam="2">  1       -1 0.38928921E-01 0.14376743E+04</pdfrwt>
<totfact> 0.44828898E+01</totfact>
</mgrwt>
</event>
<event>
12    6  0.1395358E-007  0.3569391E+04  0.7818608E-02  0.8097539E-01
          2   -1    0    0  501    0  0.00000000000E+00  0.00000000000E+00  0.25597701264E+04  0.25597701264E+04  0.00000000000E+00 0. -1.
         -1   -1    0    0    0  501 -0.00000000000E+00 -0.00000000000E+00 -0.12443059295E+04  0.12443059295E+04  0.00000000000E+00 0.  1.
         24    2    1    2    0    0 -0.12311260680E+04  0.82052291596E+03  0.14429004802E+04  0.20682220354E+04  0.81555753991E+02 0.  0.
        254    2    1    2    0    0  0.12311260680E+04 -0.82052291596E+03 -0.12743628332E+03  0.17358540205E+04  0.89889928425E+03 0.  0.
         23    2    4    4    0    0  0.49421920366E+03  0.73287710464E+02 -0.25219665468E+03  0.56714305892E+03  0.91784458801E+02 0.  0.
         23    2    4    4    0    0  0.73690686430E+03 -0.89381062642E+03  0.12476037137E+03  0.11687109615E+04  0.91602395173E+02 0.  0.
          4    1    3    3  502    0 -0.64801956624E+02  0.48700673684E+02  0.10611307290E+03  0.13353289273E+03  0.00000000000E+00 0. -1.
         -3    1    3    3    0  502 -0.11663241113E+04  0.77182224227E+03  0.13367874073E+04  0.19346891427E+04  0.00000000000E+00 0.  1.
         11    1    5    5    0    0  0.22419440650E+03  0.77099725536E+02 -0.10155087862E+03  0.25791487071E+03  0.00000000000E+00 0.  1.
        -11    1    5    5    0    0  0.27002479716E+03 -0.38120150723E+01 -0.15064577606E+03  0.30922818821E+03  0.00000000000E+00 0. -1.
          4    1    6    6  503    0  0.50417800451E+03 -0.55835928943E+03  0.10871925484E+03  0.76011869645E+03  0.00000000000E+00 0. -1.
         -4    1    6    6    0  503  0.23272885979E+03 -0.33545133699E+03  0.16041116524E+02  0.40859226509E+03  0.00000000000E+00 0.  1.
<mgrwt>
<rscale>  0 0.35693905E+04</rscale>
<asrwt>0</asrwt>
<pdfrwt beam="1">  1        2 0.39381079E+00 0.35693905E+04</pdfrwt>
<pdfrwt beam="2">  1       -1 0.19143168E+00 0.35693905E+04</pdfrwt>
<totfact> 0.51498557E-01</totfact>
</mgrwt>
</event>
<event>
12    6  0.1395358E-007  0.3001231E+04  0.7818608E-02  0.8243379E-01
         -1   -1    0    0    0  501 -0.00000000000E+00  0.00000000000E+00  0.42748054712E+04  0.42748054712E+04  0.00000000000E+00 0.  1.
          2   -1    0    0  501    0  0.00000000000E+00 -0.00000000000E+00 -0.52677180548E+03  0.52677180548E+03  0.00000000000E+00 0. -1.
         24    2    1    2    0    0 -0.12865893037E+04  0.96991868693E+02  0.24156984208E+04  0.27397730726E+04  0.77705662455E+02 0.  0.
        254    2    1    2    0    0  0.12865893037E+04 -0.96991868693E+02  0.13323352448E+04  0.20618042040E+04  0.90066637112E+03 0.  0.
         23    2    4    4    0    0  0.11720842515E+04 -0.16545009195E+03  0.63522995330E+03  0.13462404767E+04  0.87698927180E+02 0.  0.
         23    2    4    4    0    0  0.11450505218E+03  0.68458223257E+02  0.69710529153E+03  0.71556372735E+03  0.90982004352E+02 0.  0.
          2    1    3    3  502    0 -0.62522614148E+03  0.71470359201E+02  0.11131798607E+04  0.12787435796E+04  0.00000000000E+00 0. -1.
         -1    1    3    3    0  502 -0.66136316223E+03  0.25521509492E+02  0.13025185602E+04  0.14610294930E+04  0.00000000000E+00 0.  1.
         11    1    5    5    0    0  0.60390982164E+03 -0.93252445234E+02  0.37673146436E+03  0.71786467211E+03  0.00000000000E+00 0.  1.
        -11    1    5    5    0    0  0.56817442989E+03 -0.72197646715E+02  0.25849848893E+03  0.62837580456E+03  0.00000000000E+00 0. -1.
          2    1    6    6  503    0  0.37254976906E+02  0.32193388050E+02  0.90878446239E+02  0.10335975778E+03  0.00000000000E+00 0. -1.
         -2    1    6    6    0  503  0.77250075273E+02  0.36264835207E+02  0.60622684529E+03  0.61220396957E+03  0.00000000000E+00 0.  1.
<mgrwt>
<rscale>  0 0.30012311E+04</rscale>
<asrwt>0</asrwt>
<pdfrwt beam="1">  1        2 0.81041819E-01 0.30012311E+04</pdfrwt>
<pdfrwt beam="2">  1       -1 0.65766236E+00 0.30012311E+04</pdfrwt>
<totfact> 0.15458276E-02</totfact>
</mgrwt>
</event>
<event>
12    6  0.1395358E-007  0.1258064E+04  0.7818608E-02  0.9063498E-01
         -3   -1    0    0    0  501 -0.00000000000E+00  0.00000000000E+00  0.11490031877E+03  0.11490031877E+03  0.00000000000E+00 0.  1.
          2   -1    0    0  501    0  0.00000000000E+00 -0.00000000000E+00 -0.34436907821E+04  0.34436907821E+04  0.00000000000E+00 0. -1.
         24    2    1    2    0    0 -0.24756640370E+03  0.52966880833E+02 -0.12713842064E+04  0.12987553311E+04  0.79075880379E+02 0.  0.
        254    2    1    2    0    0  0.24756640370E+03 -0.52966880833E+02 -0.20574062569E+04  0.22598357698E+04  0.89991254346E+03 0.  0.
         23    2    4    4    0    0 -0.65291601530E+02 -0.39649094179E+03 -0.60175288663E+03  0.72896604682E+03  0.88413238238E+02 0.  0.
         23    2    4    4    0    0  0.31285800523E+03  0.34352406096E+03 -0.14556533702E+04  0.15308697230E+04  0.93522523997E+02 0.  0.
          4    1    3    3  502    0 -0.11534492613E+03  0.28700998355E+02 -0.79236863170E+03  0.80123420284E+03  0.00000000000E+00 0. -1.
         -3    1    3    3    0  502 -0.13222147758E+03  0.24265882478E+02 -0.47901557475E+03  0.49752112823E+03  0.00000000000E+00 0.  1.
         11    1    5    5    0    0 -0.31960894064E+02 -0.35660795926E+03 -0.54419306498E+03  0.65141141173E+03  0.00000000000E+00 0. -1.
        -11    1    5    5    0    0 -0.33330707467E+02 -0.39882982531E+02 -0.57559821647E+02  0.77554635089E+02  0.00000000000E+00 0.  1.
          3    1    6    6  503    0  0.44248260348E+02  0.10587015246E+03 -0.32179100655E+03  0.34163701442E+03  0.00000000000E+00 0. -1.
         -3    1    6    6    0  503  0.26860974489E+03  0.23765390850E+03 -0.11338623637E+04  0.11892327085E+04  0.00000000000E+00 0.  1.
<mgrwt>
<rscale>  0 0.12580639E+04</rscale>
<asrwt>0</asrwt>
<pdfrwt beam="1">  1        2 0.52979864E+00 0.12580639E+04</pdfrwt>
<pdfrwt beam="2">  1       -3 0.17676970E-01 0.12580639E+04</pdfrwt>
<totfact> 0.16764099E+01</totfact>
</mgrwt>
</event>
<event>
12    6  0.1395358E-007  0.2907357E+04  0.7818608E-02  0.8270692E-01
         -1   -1    0    0    0  501 -0.00000000000E+00  0.00000000000E+00  0.15121753496E+04  0.15121753496E+04  0.00000000000E+00 0.  1.
          2   -1    0    0  501    0  0.00000000000E+00 -0.00000000000E+00 -0.13974441535E+04  0.13974441535E+04  0.00000000000E+00 0. -1.
         24    2    1    2    0    0 -0.61188456174E+03 -0.11413933176E+04 -0.16335470739E+03  0.13077003177E+04  0.78828535906E+02 0.  0.
        254    2    1    2    0    0  0.61188456174E+03  0.11413933176E+04  0.27808590345E+03  0.16019191854E+04  0.90090614620E+03 0.  0.
         23    2    4    4    0    0  0.19848233028E+03 -0.10522561405E+03 -0.39485087199E+02  0.24709798382E+03  0.95029870107E+02 0.  0.
         23    2    4    4    0    0  0.41340223147E+03  0.12466189317E+04  0.31757099065E+03  0.13548212015E+04  0.98635633606E+02 0.  0.
          2    1    3    3  502    0 -0.22138597317E+03 -0.37645981818E+03 -0.88440224993E+02  0.44559557585E+03  0.00000000000E+00 0. -1.
         -1    1    3    3    0  502 -0.39049858858E+03 -0.76493349946E+03 -0.74914482400E+02  0.86210474187E+03  0.00000000000E+00 0.  1.
         11    1    5    5    0    0 -0.24109066259E+01 -0.27303823461E+02  0.26609316476E+01  0.27538914350E+02  0.00000000000E+00 0.  1.
        -11    1    5    5    0    0  0.20089323690E+03 -0.77921790586E+02 -0.42146018847E+02  0.21955906947E+03  0.00000000000E+00 0. -1.
          3    1    6    6  503    0  0.30681910020E+03  0.10208614732E+04  0.23214044561E+03  0.10909561376E+04  0.00000000000E+00 0. -1.
         -3    1    6    6    0  503  0.10658313127E+03  0.22575745846E+03  0.85430545037E+02  0.26386506390E+03  0.00000000000E+00 0.  1.
<mgrwt>
<rscale>  0 0.29073566E+04</rscale>
<asrwt>0</asrwt>
<pdfrwt beam="1">  1        2 0.21499141E+00 0.29073566E+04</pdfrwt>
<pdfrwt beam="2">  1       -1 0.23264236E+00 0.29073566E+04</pdfrwt>
<totfact> 0.12931494E+00</totfact>
</mgrwt>
</event>
<event>
12    6  0.1395358E-007  0.1575891E+04  0.7818608E-02  0.8835497E-01
         -1   -1    0    0    0  501 -0.00000000000E+00  0.00000000000E+00  0.94638741158E+03  0.94638741158E+03  0.00000000000E+00 0.  1.
          2   -1    0    0  501    0  0.00000000000E+00 -0.00000000000E+00 -0.65602960969E+03  0.65602960969E+03  0.00000000000E+00 0. -1.
         24    2    1    2    0    0 -0.37615665568E+03  0.10348230403E+03 -0.26323154390E+03  0.47711834200E+03  0.78413326131E+02 0.  0.
        254    2    1    2    0    0  0.37615665568E+03 -0.10348230403E+03  0.55358934579E+03  0.11252986793E+04  0.89868433664E+03 0.  0.
         23    2    4    4    0    0 -0.29880359338E+02  0.23731879890E+03  0.52875889744E+03  0.58782279554E+03  0.93469883653E+02 0.  0.
         23    2    4    4    0    0  0.40603701501E+03 -0.34080110293E+03  0.24830448347E+02  0.53747588372E+03  0.85160584184E+02 0.  0.
          2    1    3    3  502    0 -0.25199276742E+03  0.31087208105E+02 -0.17696455349E+03  0.30948864686E+03  0.00000000000E+00 0. -1.
         -1    1    3    3    0  502 -0.12416388825E+03  0.72395095928E+02 -0.86266990409E+02  0.16762969515E+03  0.00000000000E+00 0.  1.
         11    1    5    5    0    0 -0.49251890331E+02  0.67001341600E+02  0.21064372997E+03  0.22646348370E+03  0.00000000000E+00 0. -1.
        -11    1    5    5    0    0  0.19371530994E+02  0.17031745730E+03  0.31811516747E+03  0.36135931184E+03  0.00000000000E+00 0.  1.
          3    1    6    6  503    0  0.38239254410E+03 -0.30412195438E+03  0.42426013363E+02  0.49042245822E+03  0.00000000000E+00 0. -1.
         -3    1    6    6    0  503  0.23644470917E+02 -0.36679148548E+02 -0.17595565017E+02  0.47053425502E+02  0.00000000000E+00 0.  1.
<mgrwt>
<rscale>  0 0.15758911E+04</rscale>
<asrwt>0</asrwt>
<pdfrwt beam="1">  1        2 0.10092763E+00 0.15758911E+04</pdfrwt>
<pdfrwt beam="2">  1       -1 0.14559806E+00 0.15758911E+04</pdfrwt>
<totfact> 0.18436648E+01</totfact>
</mgrwt>
</event>
<event>
12    6  0.1395358E-007  0.1243743E+04  0.7818608E-02  0.9075407E-01
         -1   -1    0    0    0  501 -0.00000000000E+00  0.00000000000E+00  0.54776927140E+03  0.54776927140E+03  0.00000000000E+00 0.  1.
          2   -1    0    0  501    0  0.00000000000E+00 -0.00000000000E+00 -0.70599851138E+03  0.70599851138E+03  0.00000000000E+00 0. -1.
         24    2    1    2    0    0 -0.14535425446E+03 -0.12945238349E+02 -0.30267855467E+03  0.34504546783E+03  0.78400439609E+02 0.  0.
        254    2    1    2    0    0  0.14535425446E+03  0.12945238349E+02  0.14444931468E+03  0.90872231496E+03  0.88522042605E+03 0.  0.
         23    2    4    4    0    0 -0.90436802568E+02  0.29129779208E+03 -0.21841960496E+03  0.38609426577E+03  0.91260283237E+02 0.  0.
         23    2    4    4    0    0  0.23579105703E+03 -0.27835255373E+03  0.36286891964E+03  0.52262804919E+03  0.91589618500E+02 0.  0.
          4    1    3    3  502    0 -0.56020232407E+02  0.28551983698E+02 -0.15767678449E+03  0.16975114309E+03  0.00000000000E+00 0. -1.
         -3    1    3    3    0  502 -0.89334022051E+02 -0.41497222047E+02 -0.14500177018E+03  0.17529432474E+03  0.00000000000E+00 0.  1.
         11    1    5    5    0    0 -0.15545463599E+02  0.98263911205E+02 -0.12276260905E+03  0.15801302435E+03  0.00000000000E+00 0. -1.
        -11    1    5    5    0    0 -0.74891338969E+02  0.19303388088E+03 -0.95656995907E+02  0.22808124141E+03  0.00000000000E+00 0.  1.
          4    1    6    6  503    0  0.19700541328E+03 -0.18216821063E+03  0.29452712381E+03  0.39842517050E+03  0.00000000000E+00 0. -1.
         -4    1    6    6    0  503  0.38785643745E+02 -0.96184343100E+02  0.68341795835E+02  0.12420287870E+03  0.00000000000E+00 0.  1.
<mgrwt>
<rscale>  0 0.12437432E+04</rscale>
<asrwt>0</asrwt>
<pdfrwt beam="1">  1        2 0.10861516E+00 0.12437432E+04</pdfrwt>
<pdfrwt beam="2">  1       -1 0.84272196E-01 0.12437432E+04</pdfrwt>
<totfact> 0.63566452E+01</totfact>
</mgrwt>
</event>
<event>
12    6  0.1395358E-007  0.2115470E+04  0.7818608E-02  0.8554459E-01
         -1   -1    0    0    0  501 -0.00000000000E+00  0.00000000000E+00  0.31643682429E+03  0.31643682429E+03  0.00000000000E+00 0.  1.
          2   -1    0    0  501    0  0.00000000000E+00 -0.00000000000E+00 -0.35356304981E+04  0.35356304981E+04  0.00000000000E+00 0. -1.
         24    2    1    2    0    0  0.71496843545E+03 -0.10569451595E+03 -0.21821841546E+04  0.23004754958E+04  0.88930465833E+02 0.  0.
        254    2    1    2    0    0 -0.71496843545E+03  0.10569451595E+03 -0.10370095192E+04  0.15515918266E+04  0.89983179485E+03 0.  0.
         23    2    4    4    0    0 -0.74486380715E+02  0.41577040424E+03 -0.45847222184E+03  0.62994058698E+03  0.90637271415E+02 0.  0.
         23    2    4    4    0    0 -0.64048205474E+03 -0.31007588828E+03 -0.57853729734E+03  0.92165123959E+03  0.91494721682E+02 0.  0.
          2    1    3    3  502    0  0.23392139020E+03 -0.39704562971E+01 -0.79621246467E+03  0.82987304463E+03  0.00000000000E+00 0. -1.
         -1    1    3    3    0  502  0.48104704525E+03 -0.10172405966E+03 -0.13859716899E+04  0.14706024511E+04  0.00000000000E+00 0.  1.
         11    1    5    5    0    0  0.21131474208E+02  0.68998523391E+02 -0.82465982828E+02  0.10958090051E+03  0.00000000000E+00 0.  1.
        -11    1    5    5    0    0 -0.95617854922E+02  0.34677188085E+03 -0.37600623901E+03  0.52035968647E+03  0.00000000000E+00 0. -1.
          4    1    6    6  503    0 -0.48840486256E+03 -0.22964459589E+03 -0.48616961146E+03  0.72638615165E+03  0.00000000000E+00 0.  1.
         -4    1    6    6    0  503 -0.15207719218E+03 -0.80431292391E+02 -0.92367685873E+02  0.19526508794E+03  0.00000000000E+00 0. -1.
<mgrwt>
<rscale>  0 0.21154703E+04</rscale>
<asrwt>0</asrwt>
<pdfrwt beam="1">  1        2 0.54394315E+00 0.21154703E+04</pdfrwt>
<pdfrwt beam="2">  1       -1 0.48682588E-01 0.21154703E+04</pdfrwt>
<totfact> 0.34098938E+00</totfact>
</mgrwt>
</event>
<event>
12    6  0.1395358E-007  0.2760197E+04  0.7818608E-02  0.8315733E-01
          2   -1    0    0  501    0  0.00000000000E+00  0.00000000000E+00  0.11261603180E+04  0.11261603180E+04  0.00000000000E+00 0. -1.
         -1   -1    0    0    0  501 -0.00000000000E+00 -0.00000000000E+00 -0.16912969978E+04  0.16912969978E+04  0.00000000000E+00 0.  1.
         24    2    1    2    0    0  0.81840531355E+03  0.87157055660E+03 -0.55536186397E+03  0.13205282945E+04  0.77108262491E+02 0.  0.
        254    2    1    2    0    0 -0.81840531355E+03 -0.87157055660E+03 -0.97748158893E+01  0.14969290213E+04  0.90070997304E+03 0.  0.
         23    2    4    4    0    0 -0.10016162182E+04 -0.75967919038E+03  0.27413369263E+02  0.12607490090E+04  0.91591757057E+02 0.  0.
         23    2    4    4    0    0  0.18321090463E+03 -0.11189136622E+03 -0.37188185152E+02  0.23618001238E+03  0.91170849096E+02 0.  0.
          2    1    3    3  502    0  0.39742776952E+03  0.46124109781E+03 -0.31389658414E+03  0.68499872104E+03  0.00000000000E+00 0. -1.
         -1    1    3    3    0  502  0.42097754403E+03  0.41032945879E+03 -0.24146527983E+03  0.63552957342E+03  0.00000000000E+00 0.  1.
         11    1    5    5    0    0 -0.53780967596E+03 -0.36817927352E+03 -0.18872743119E+02  0.65203635285E+03  0.00000000000E+00 0.  1.
        -11    1    5    5    0    0 -0.46380654222E+03 -0.39149991686E+03  0.46286112383E+02  0.60871265611E+03  0.00000000000E+00 0. -1.
          3    1    6    6  503    0  0.19016798188E+02 -0.23637368486E+02 -0.39438509299E+02  0.49757007728E+02  0.00000000000E+00 0. -1.
         -3    1    6    6    0  503  0.16419410644E+03 -0.88253997731E+02  0.22503241470E+01  0.18642300465E+03  0.00000000000E+00 0.  1.
<mgrwt>
<rscale>  0 0.27601968E+04</rscale>
<asrwt>0</asrwt>
<pdfrwt beam="1">  1        2 0.17325543E+00 0.27601968E+04</pdfrwt>
<pdfrwt beam="2">  1       -1 0.26019954E+00 0.27601968E+04</pdfrwt>
<totfact> 0.12493740E+00</totfact>
</mgrwt>
</event>
<event>
12    6  0.1395358E-007  0.3888326E+04  0.7818608E-02  0.8027462E-01
         -1   -1    0    0    0  501 -0.00000000000E+00  0.00000000000E+00  0.12674298814E+04  0.12674298814E+04  0.00000000000E+00 0.  1.
          2   -1    0    0  501    0  0.00000000000E+00 -0.00000000000E+00 -0.29822316004E+04  0.29822316004E+04  0.00000000000E+00 0. -1.
         24    2    1    2    0    0 -0.13642629374E+04  0.11059057756E+04 -0.14129916378E+04  0.22555151511E+04  0.81007909361E+02 0.  0.
        254    2    1    2    0    0  0.13642629374E+04 -0.11059057756E+04 -0.30181008120E+03  0.19941463306E+04  0.89514765039E+03 0.  0.
         23    2    4    4    0    0 -0.14197369489E+02 -0.41700286258E+03 -0.82428492856E+02  0.43488293744E+03  0.90751088927E+02 0.  0.
         23    2    4    4    0    0  0.13784603069E+04 -0.68890291299E+03 -0.21938158835E+03  0.15592633932E+04  0.91836848678E+02 0.  0.
          4    1    3    3  502    0 -0.96014878689E+03  0.75147193031E+03 -0.10199818806E+04  0.15896410889E+04  0.00000000000E+00 0. -1.
         -3    1    3    3    0  502 -0.40411415054E+03  0.35443384526E+03 -0.39300975725E+03  0.66587406214E+03  0.00000000000E+00 0.  1.
         11    1    5    5    0    0 -0.27292346070E+02 -0.35597345721E+02 -0.15302329279E+02  0.47394139487E+02  0.00000000000E+00 0. -1.
        -11    1    5    5    0    0  0.13094976581E+02 -0.38140551686E+03 -0.67126163577E+02  0.38748879796E+03  0.00000000000E+00 0.  1.
          1    1    6    6  503    0  0.25699346312E+03 -0.16814608615E+03 -0.34627466559E+02  0.30905955383E+03  0.00000000000E+00 0. -1.
         -1    1    6    6    0  503  0.11214668438E+04 -0.52075682684E+03 -0.18475412179E+03  0.12502038394E+04  0.00000000000E+00 0.  1.
<mgrwt>
<rscale>  0 0.38883258E+04</rscale>
<asrwt>0</asrwt>
<pdfrwt beam="1">  1        2 0.45880485E+00 0.38883258E+04</pdfrwt>
<pdfrwt beam="2">  1       -1 0.19498922E+00 0.38883258E+04</pdfrwt>
<totfact> 0.26313982E-01</totfact>
</mgrwt>
</event>
<event>
12    6  0.1395358E-007  0.2785018E+04  0.7818608E-02  0.8307935E-01
          4   -1    0    0  501    0  0.00000000000E+00  0.00000000000E+00  0.15136777566E+04  0.15136777566E+04  0.00000000000E+00 0. -1.
         -3   -1    0    0    0  501 -0.00000000000E+00 -0.00000000000E+00 -0.12810401201E+04  0.12810401201E+04  0.00000000000E+00 0.  1.
         24    2    1    2    0    0 -0.11781230224E+04  0.34152178707E+03 -0.12280512397E+03  0.12361510365E+04  0.91527590105E+02 0.  0.
        254    2    1    2    0    0  0.11781230224E+04 -0.34152178707E+03  0.35544276046E+03  0.15585668402E+04  0.89340923019E+03 0.  0.
         23    2    4    4    0    0  0.46165449372E+03 -0.48643562433E+02  0.57824821954E+03  0.74783692592E+03  0.96943264993E+02 0.  0.
         23    2    4    4    0    0  0.71646852865E+03 -0.29287822463E+03 -0.22280545908E+03  0.81072991430E+03  0.92390012086E+02 0.  0.
          4    1    3    3  502    0 -0.33990828273E+03  0.10829492453E+03  0.48725573853E+01  0.35677608267E+03  0.00000000000E+00 0. -1.
         -3    1    3    3    0  502 -0.83821473965E+03  0.23322686254E+03 -0.12767768135E+03  0.87937495386E+03  0.00000000000E+00 0.  1.
         11    1    5    5    0    0  0.26538411490E+02 -0.25144160971E+02  0.28602325154E+02  0.46417767283E+02  0.00000000000E+00 0. -1.
        -11    1    5    5    0    0  0.43511608223E+03 -0.23499401462E+02  0.54964589439E+03  0.70141915864E+03  0.00000000000E+00 0.  1.
          1    1    6    6  503    0  0.83282072660E+02 -0.39273078482E+01 -0.19161854216E+02  0.85548255567E+02  0.00000000000E+00 0. -1.
         -1    1    6    6    0  503  0.63318645599E+03 -0.28895091678E+03 -0.20364360487E+03  0.72518165874E+03  0.00000000000E+00 0.  1.
<mgrwt>
<rscale>  0 0.27850184E+04</rscale>
<asrwt>0</asrwt>
<pdfrwt beam="1">  1        4 0.23287350E+00 0.27850184E+04</pdfrwt>
<pdfrwt beam="2">  1       -3 0.19708310E+00 0.27850184E+04</pdfrwt>
<totfact> 0.24439257E-02</totfact>
</mgrwt>
</event>
<event>
12    6  0.1395358E-007  0.2665876E+04  0.7818608E-02  0.8346163E-01
          2   -1    0    0  501    0  0.00000000000E+00  0.00000000000E+00  0.14159774391E+04  0.14159774391E+04  0.00000000000E+00 0. -1.
         -1   -1    0    0    0  501 -0.00000000000E+00 -0.00000000000E+00 -0.12547679786E+04  0.12547679786E+04  0.00000000000E+00 0.  1.
         24    2    1    2    0    0 -0.75323969442E+03  0.89030801783E+03  0.25194273017E+03  0.11957878386E+04  0.80093768515E+02 0.  0.
        254    2    1    2    0    0  0.75323969442E+03 -0.89030801783E+03 -0.90733269686E+02  0.14749575791E+04  0.89847032786E+03 0.  0.
         23    2    4    4    0    0  0.44236944485E+03 -0.49000843564E+03  0.38815840039E+03  0.77140776096E+03  0.92757733584E+02 0.  0.
         23    2    4    4    0    0  0.31087024958E+03 -0.40029958219E+03 -0.47889167007E+03  0.70354981814E+03  0.93621831708E+02 0.  0.
          4    1    3    3  502    0 -0.32442967846E+03  0.37394624764E+03  0.14704119225E+03  0.51644121118E+03  0.00000000000E+00 0. -1.
         -3    1    3    3    0  502 -0.42881001596E+03  0.51636177019E+03  0.10490153792E+03  0.67934662740E+03  0.00000000000E+00 0.  1.
         11    1    5    5    0    0  0.23482624059E+03 -0.31386404663E+03  0.26121064780E+03  0.47104671272E+03  0.00000000000E+00 0.  1.
        -11    1    5    5    0    0  0.20754320425E+03 -0.17614438901E+03  0.12694775259E+03  0.30036104824E+03  0.00000000000E+00 0. -1.
          1    1    6    6  503    0  0.43634257007E+02 -0.73413418716E+02 -0.13143940592E+03  0.15674755456E+03  0.00000000000E+00 0. -1.
         -1    1    6    6    0  503  0.26723599257E+03 -0.32688616347E+03 -0.34745226415E+03  0.54680226358E+03  0.00000000000E+00 0.  1.
<mgrwt>
<rscale>  0 0.26658756E+04</rscale>
<asrwt>0</asrwt>
<pdfrwt beam="1">  1        2 0.21784268E+00 0.26658756E+04</pdfrwt>
<pdfrwt beam="2">  1       -1 0.19304123E+00 0.26658756E+04</pdfrwt>
<totfact> 0.23888214E+00</totfact>
</mgrwt>
</event>
<event>
12    6  0.1395358E-007  0.1947589E+04  0.7818608E-02  0.8631524E-01
         -1   -1    0    0    0  501 -0.00000000000E+00  0.00000000000E+00  0.83066369569E+03  0.83066369569E+03  0.00000000000E+00 0.  1.
          2   -1    0    0  501    0  0.00000000000E+00 -0.00000000000E+00 -0.11415875131E+04  0.11415875131E+04  0.00000000000E+00 0. -1.
         24    2    1    2    0    0  0.62342560666E+03  0.30747363598E+03 -0.44228190751E+03  0.82761414121E+03  0.78309368302E+02 0.  0.
        254    2    1    2    0    0 -0.62342560666E+03 -0.30747363598E+03  0.13135809014E+03  0.11446370675E+04  0.89985529096E+03 0.  0.
         23    2    4    4    0    0 -0.24314790293E+03  0.22296623971E+03  0.31014212867E+03  0.46201303471E+03  0.91831680340E+02 0.  0.
         23    2    4    4    0    0 -0.38027770373E+03 -0.53043987570E+03 -0.17878403853E+03  0.68262403283E+03  0.89633944877E+02 0.  0.
          2    1    3    3  502    0  0.61760854358E+03  0.29245848391E+03 -0.43377076499E+03  0.80940061433E+03  0.00000000000E+00 0. -1.
         -1    1    3    3    0  502  0.58170630765E+01  0.15015152070E+02 -0.85111425166E+01  0.18213526882E+02  0.00000000000E+00 0.  1.
         11    1    5    5    0    0 -0.23098388433E+03  0.22949132381E+03  0.30770097299E+03  0.44799521348E+03  0.00000000000E+00 0. -1.
        -11    1    5    5    0    0 -0.12164018604E+02 -0.65250840933E+01  0.24411556822E+01  0.14017821232E+02  0.00000000000E+00 0.  1.
          2    1    6    6  503    0 -0.38581185340E+02 -0.56157331143E+02  0.88288407692E+01  0.68702999444E+02  0.00000000000E+00 0.  1.
         -2    1    6    6    0  503 -0.34169651839E+03 -0.47428254455E+03 -0.18761287930E+03  0.61392103338E+03  0.00000000000E+00 0. -1.
<mgrwt>
<rscale>  0 0.19475886E+04</rscale>
<asrwt>0</asrwt>
<pdfrwt beam="1">  1        2 0.17562885E+00 0.19475886E+04</pdfrwt>
<pdfrwt beam="2">  1       -1 0.12779441E+00 0.19475886E+04</pdfrwt>
<totfact> 0.11574320E+01</totfact>
</mgrwt>
</event>
<event>
12    6  0.1395358E-007  0.3258326E+04  0.7818608E-02  0.8173581E-01
         -1   -1    0    0    0  501 -0.00000000000E+00  0.00000000000E+00  0.18286019681E+04  0.18286019681E+04  0.00000000000E+00 0.  1.
          2   -1    0    0  501    0  0.00000000000E+00 -0.00000000000E+00 -0.14514761481E+04  0.14514761481E+04  0.00000000000E+00 0. -1.
         24    2    1    2    0    0  0.44468587167E+03 -0.14332430274E+04  0.26872386382E+03  0.15266728913E+04  0.81157267008E+02 0.  0.
        254    2    1    2    0    0 -0.44468587167E+03  0.14332430274E+04  0.10840195613E+03  0.17534052248E+04  0.90041534761E+03 0.  0.
         23    2    4    4    0    0 -0.67481297366E+03  0.73597814430E+03  0.13934149155E+03  0.10123802159E+04  0.91985172164E+02 0.  0.
         23    2    4    4    0    0  0.23012710199E+03  0.69726488313E+03 -0.30939535424E+02  0.74102500896E+03  0.94994782692E+02 0.  0.
          4    1    3    3  502    0  0.13996650840E+03 -0.49659314990E+03  0.12917382543E+03  0.53186582630E+03  0.00000000000E+00 0. -1.
         -3    1    3    3    0  502  0.30471936327E+03 -0.93664987753E+03  0.13955003838E+03  0.99480706504E+03  0.00000000000E+00 0.  1.
         11    1    5    5    0    0 -0.61676632074E+03  0.70137252173E+03  0.14217147716E+03  0.94474167768E+03  0.00000000000E+00 0.  1.
        -11    1    5    5    0    0 -0.58046652917E+02  0.34605622574E+02 -0.28299856076E+01  0.67638538180E+02  0.00000000000E+00 0. -1.
          2    1    6    6  503    0  0.27155331720E+02  0.21922766331E+03 -0.15656005256E+02  0.22145719880E+03  0.00000000000E+00 0. -1.
         -2    1    6    6    0  503  0.20297177027E+03  0.47803721983E+03 -0.15283530168E+02  0.51956781016E+03  0.00000000000E+00 0.  1.
<mgrwt>
<rscale>  0 0.32583260E+04</rscale>
<asrwt>0</asrwt>
<pdfrwt beam="1">  1        2 0.22330402E+00 0.32583260E+04</pdfrwt>
<pdfrwt beam="2">  1       -1 0.28132338E+00 0.32583260E+04</pdfrwt>
<totfact> 0.56309438E-01</totfact>
</mgrwt>
</event>
<event>
12    6  0.1395358E-007  0.2219995E+04  0.7818608E-02  0.8510152E-01
         -1   -1    0    0    0  501 -0.00000000000E+00  0.00000000000E+00  0.42660117096E+03  0.42660117096E+03  0.00000000000E+00 0.  1.
          2   -1    0    0  501    0  0.00000000000E+00 -0.00000000000E+00 -0.28881646744E+04  0.28881646744E+04  0.00000000000E+00 0. -1.
         24    2    1    2    0    0 -0.26040861056E+03  0.85133302832E+03 -0.14077603265E+04  0.16675169590E+04  0.79013304009E+02 0.  0.
        254    2    1    2    0    0  0.26040861056E+03 -0.85133302832E+03 -0.10538031770E+04  0.16472488864E+04  0.90019286171E+03 0.  0.
         23    2    4    4    0    0  0.15638329502E+03 -0.18691796999E+03  0.12370199899E+03  0.28789912442E+03  0.90496733772E+02 0.  0.
         23    2    4    4    0    0  0.10402531553E+03 -0.66441505833E+03 -0.11775051759E+04  0.13593497619E+04  0.95103627106E+02 0.  0.
          2    1    3    3  502    0 -0.14601697476E+03  0.48276683947E+03 -0.72380604890E+03  0.88220177660E+03  0.00000000000E+00 0. -1.
         -1    1    3    3    0  502 -0.11439163580E+03  0.36856618885E+03 -0.68395427759E+03  0.78531518241E+03  0.00000000000E+00 0.  1.
         11    1    5    5    0    0 -0.53178660191E+00 -0.29502986299E+02  0.41498164732E+02  0.50919609913E+02  0.00000000000E+00 0.  1.
        -11    1    5    5    0    0  0.15691508162E+03 -0.15741498369E+03  0.82203834253E+02  0.23697951451E+03  0.00000000000E+00 0. -1.
          4    1    6    6  503    0  0.10278586983E+03 -0.36715231366E+03 -0.63162435547E+03  0.73777712277E+03  0.00000000000E+00 0.  1.
         -4    1    6    6    0  503  0.12394457058E+01 -0.29726274467E+03 -0.54588082047E+03  0.62157263916E+03  0.00000000000E+00 0. -1.
<mgrwt>
<rscale>  0 0.22199950E+04</rscale>
<asrwt>0</asrwt>
<pdfrwt beam="1">  1        2 0.44433301E+00 0.22199950E+04</pdfrwt>
<pdfrwt beam="2">  1       -1 0.65630952E-01 0.22199950E+04</pdfrwt>
<totfact> 0.49960743E+00</totfact>
</mgrwt>
</event>
<event>
12    6  0.1395358E-007  0.3668089E+04  0.7818608E-02  0.8075071E-01
          2   -1    0    0  501    0  0.00000000000E+00  0.00000000000E+00  0.14993475207E+04  0.14993475207E+04  0.00000000000E+00 0. -1.
         -1   -1    0    0    0  501 -0.00000000000E+00 -0.00000000000E+00 -0.22434556803E+04  0.22434556803E+04  0.00000000000E+00 0.  1.
         24    2    1    2    0    0 -0.42679572376E+03 -0.13802388165E+04 -0.13073838418E+04  0.19500093548E+04  0.77911446386E+02 0.  0.
        254    2    1    2    0    0  0.42679572376E+03  0.13802388165E+04  0.56327568228E+03  0.17927938462E+04  0.89978691944E+03 0.  0.
         23    2    4    4    0    0  0.48883850453E+03  0.89294070957E+03 -0.24025422539E+02  0.10222867643E+04  0.90481010573E+02 0.  0.
         23    2    4    4    0    0 -0.62042780761E+02  0.48729810689E+03  0.58730110482E+03  0.77050708186E+03  0.86312362109E+02 0.  0.
          4    1    3    3  502    0 -0.34102370273E+03 -0.10368743903E+04 -0.10233629633E+04  0.14962210471E+04  0.00000000000E+00 0. -1.
         -3    1    3    3    0  502 -0.85772021030E+02 -0.34336442612E+03 -0.28402087857E+03  0.45378830767E+03  0.00000000000E+00 0.  1.
         11    1    5    5    0    0  0.43534766215E+03  0.84215706870E+03 -0.16808366086E+02  0.94817647960E+03  0.00000000000E+00 0. -1.
        -11    1    5    5    0    0  0.53490842377E+02  0.50783640874E+02 -0.72170564526E+01  0.74110284728E+02  0.00000000000E+00 0.  1.
          2    1    6    6  503    0 -0.55759227930E+00  0.11156726067E+03  0.18926376710E+03  0.21970056463E+03  0.00000000000E+00 0. -1.
         -2    1    6    6    0  503 -0.61485188482E+02  0.37573084622E+03  0.39803733772E+03  0.55080651723E+03  0.00000000000E+00 0.  1.
<mgrwt>
<rscale>  0 0.36680893E+04</rscale>
<asrwt>0</asrwt>
<pdfrwt beam="1">  1        2 0.23066885E+00 0.36680893E+04</pdfrwt>
<pdfrwt beam="2">  1       -1 0.34514702E+00 0.36680893E+04</pdfrwt>
<totfact> 0.19609554E-01</totfact>
</mgrwt>
</event>
<event>
12    6  0.1395358E-007  0.1536958E+04  0.7818608E-02  0.8860242E-01
          2   -1    0    0  501    0  0.00000000000E+00  0.00000000000E+00  0.23765115595E+04  0.23765115595E+04  0.00000000000E+00 0. -1.
         -1   -1    0    0    0  501 -0.00000000000E+00 -0.00000000000E+00 -0.24849858217E+03  0.24849858217E+03  0.00000000000E+00 0.  1.
         24    2    1    2    0    0  0.31527384785E+03 -0.27403589698E+03  0.11695394869E+04  0.12444684709E+04  0.79911774610E+02 0.  0.
        254    2    1    2    0    0 -0.31527384785E+03  0.27403589698E+03  0.95847349044E+03  0.13805416708E+04  0.90151572413E+03 0.  0.
         23    2    4    4    0    0 -0.39337161177E+02 -0.25859291967E+03  0.63094897284E+03  0.69078272919E+03  0.10327856639E+03 0.  0.
         23    2    4    4    0    0 -0.27593668667E+03  0.53262881664E+03  0.32752451760E+03  0.68975894156E+03  0.93062218219E+02 0.  0.
          4    1    3    3  502    0  0.26512752764E+03 -0.20530591699E+03  0.10009976326E+04  0.10556701122E+04  0.00000000000E+00 0. -1.
         -3    1    3    3    0  502  0.50146320212E+02 -0.68729979987E+02  0.16854185436E+03  0.18879835871E+03  0.00000000000E+00 0.  1.
         11    1    5    5    0    0 -0.47057709864E+02 -0.23570060653E+03  0.61859481960E+03  0.66364806548E+03  0.00000000000E+00 0.  1.
        -11    1    5    5    0    0  0.77205486863E+01 -0.22892313139E+02  0.12354153240E+02  0.27134663719E+02  0.00000000000E+00 0. -1.
          2    1    6    6  503    0 -0.25549385378E+02  0.11653809920E+03  0.42356120876E+02  0.12660150329E+03  0.00000000000E+00 0. -1.
         -2    1    6    6    0  503 -0.25038730130E+03  0.41609071744E+03  0.28516839673E+03  0.56315743827E+03  0.00000000000E+00 0.  1.
<mgrwt>
<rscale>  0 0.15369577E+04</rscale>
<asrwt>0</asrwt>
<pdfrwt beam="1">  1        2 0.36561715E+00 0.15369577E+04</pdfrwt>
<pdfrwt beam="2">  1       -1 0.38230553E-01 0.15369577E+04</pdfrwt>
<totfact> 0.29820893E+01</totfact>
</mgrwt>
</event>
<event>
12    6  0.1395358E-007  0.2877690E+04  0.7818608E-02  0.8279546E-01
         -3   -1    0    0    0  501 -0.00000000000E+00  0.00000000000E+00  0.18229194803E+04  0.18229194803E+04  0.00000000000E+00 0.  1.
          2   -1    0    0  501    0  0.00000000000E+00 -0.00000000000E+00 -0.11356922146E+04  0.11356922146E+04  0.00000000000E+00 0. -1.
         24    2    1    2    0    0  0.10704113128E+04  0.64269747272E+03  0.66049585137E+03  0.14142146459E+04  0.70056227957E+02 0.  0.
        254    2    1    2    0    0 -0.10704113128E+04 -0.64269747272E+03  0.26731414335E+02  0.15443970490E+04  0.90862932835E+03 0.  0.
         23    2    4    4    0    0 -0.65912414883E+03  0.27266121883E+02 -0.24269366359E+03  0.70884043053E+03  0.91468336807E+02 0.  0.
         23    2    4    4    0    0 -0.41128716400E+03 -0.66996359460E+03  0.26942507792E+03  0.83555661845E+03  0.86928940328E+02 0.  0.
          2    1    3    3  502    0  0.59782059284E+03  0.31855559390E+03  0.35281601947E+03  0.76377108562E+03  0.00000000000E+00 0. -1.
         -3    1    3    3    0  502  0.47259071998E+03  0.32414187882E+03  0.30767983190E+03  0.65044356033E+03  0.00000000000E+00 0.  1.
         11    1    5    5    0    0 -0.60156624566E+03 -0.57058465096E+00 -0.21115572270E+03  0.63754922375E+03  0.00000000000E+00 0. -1.
        -11    1    5    5    0    0 -0.57557903168E+02  0.27836706534E+02 -0.31537940890E+02  0.71291206774E+02  0.00000000000E+00 0.  1.
          2    1    6    6  503    0 -0.34918663307E+03 -0.61563508518E+03  0.25146007176E+03  0.75111252853E+03  0.00000000000E+00 0. -1.
         -2    1    6    6    0  503 -0.62100530924E+02 -0.54328509422E+02  0.17965006169E+02  0.84444089928E+02  0.00000000000E+00 0.  1.
<mgrwt>
<rscale>  0 0.28776904E+04</rscale>
<asrwt>0</asrwt>
<pdfrwt beam="1">  1        2 0.17472188E+00 0.28776904E+04</pdfrwt>
<pdfrwt beam="2">  1       -3 0.28044915E+00 0.28776904E+04</pdfrwt>
<totfact> 0.54982140E-01</totfact>
</mgrwt>
</event>
<event>
12    6  0.1395358E-007  0.2069440E+04  0.7818608E-02  0.8574826E-01
          2   -1    0    0  501    0  0.00000000000E+00  0.00000000000E+00  0.50228774009E+03  0.50228774009E+03  0.00000000000E+00 0. -1.
         -1   -1    0    0    0  501 -0.00000000000E+00 -0.00000000000E+00 -0.21315375201E+04  0.21315375201E+04  0.00000000000E+00 0.  1.
         24    2    1    2    0    0 -0.63765588777E+03 -0.63157389093E+02 -0.13524872092E+04  0.14988289719E+04  0.81686895397E+02 0.  0.
        254    2    1    2    0    0  0.63765588777E+03  0.63157389093E+02 -0.27676257080E+03  0.11349962883E+04  0.89500009323E+03 0.  0.
         23    2    4    4    0    0 -0.19480466065E+03  0.87085350663E+02  0.38087535364E+02  0.24025145039E+03  0.10362135375E+03 0.  0.
         23    2    4    4    0    0  0.83246054842E+03 -0.23927961570E+02 -0.31485010616E+03  0.89474483792E+03  0.88739076005E+02 0.  0.
          4    1    3    3  502    0 -0.35405014292E+03 -0.39513653336E+02 -0.65704345482E+03  0.74740814421E+03  0.00000000000E+00 0. -1.
         -3    1    3    3    0  502 -0.28360574485E+03 -0.23643735756E+02 -0.69544375437E+03  0.75142082767E+03  0.00000000000E+00 0.  1.
         11    1    5    5    0    0 -0.12247062437E+03  0.74910418983E+02  0.70639061703E+02  0.16000156795E+03  0.00000000000E+00 0. -1.
        -11    1    5    5    0    0 -0.72334036276E+02  0.12174931680E+02 -0.32551526339E+02  0.80249882445E+02  0.00000000000E+00 0.  1.
          1    1    6    6  503    0  0.41717051729E+03 -0.29172760265E+02 -0.20166698304E+03  0.46427563202E+03  0.00000000000E+00 0. -1.
         -1    1    6    6    0  503  0.41529003113E+03  0.52447986944E+01 -0.11318312313E+03  0.43046920590E+03  0.00000000000E+00 0.  1.
<mgrwt>
<rscale>  0 0.20694397E+04</rscale>
<asrwt>0</asrwt>
<pdfrwt beam="1">  1        2 0.77275037E-01 0.20694397E+04</pdfrwt>
<pdfrwt beam="2">  1       -1 0.32792885E+00 0.20694397E+04</pdfrwt>
<totfact> 0.14053181E+00</totfact>
</mgrwt>
</event>
<event>
12    6  0.1395358E-007  0.2463133E+04  0.7818608E-02  0.8416238E-01
         -1   -1    0    0    0  501 -0.00000000000E+00  0.00000000000E+00  0.32074190651E+04  0.32074190651E+04  0.00000000000E+00 0.  1.
          2   -1    0    0  501    0  0.00000000000E+00 -0.00000000000E+00 -0.47288998606E+03  0.47288998606E+03  0.00000000000E+00 0. -1.
         24    2    1    2    0    0 -0.93063065833E+03 -0.18663631252E+03  0.46144234075E+03  0.10584430097E+04  0.80411662599E+02 0.  0.
        254    2    1    2    0    0  0.93063065833E+03  0.18663631252E+03  0.22730867383E+04  0.26218660415E+04  0.89797087058E+03 0.  0.
         23    2    4    4    0    0 -0.15430283966E+03  0.53851604572E+02  0.53469388928E+03  0.56629443283E+03  0.89902546042E+02 0.  0.
         23    2    4    4    0    0  0.10849334980E+04  0.13278470795E+03  0.17383928491E+04  0.20555716087E+04  0.93018638755E+02 0.  0.
          4    1    3    3  502    0 -0.38260007109E+03 -0.83546031330E+02  0.14728737104E+03  0.41839732721E+03  0.00000000000E+00 0. -1.
         -3    1    3    3    0  502 -0.54803058724E+03 -0.10309028119E+03  0.31415496971E+03  0.64004568245E+03  0.00000000000E+00 0.  1.
         11    1    5    5    0    0 -0.13514348640E+03  0.32416446109E+02  0.50934678101E+03  0.52796660047E+03  0.00000000000E+00 0. -1.
        -11    1    5    5    0    0 -0.19159353258E+02  0.21435158463E+02  0.25347108272E+02  0.38327832359E+02  0.00000000000E+00 0.  1.
          3    1    6    6  503    0  0.78895025386E+03  0.98024089296E+02  0.13392248032E+04  0.15574255355E+04  0.00000000000E+00 0. -1.
         -3    1    6    6    0  503  0.29598324413E+03  0.34760618652E+02  0.39916804589E+03  0.49814607323E+03  0.00000000000E+00 0.  1.
<mgrwt>
<rscale>  0 0.24631333E+04</rscale>
<asrwt>0</asrwt>
<pdfrwt beam="1">  1        2 0.72752307E-01 0.24631333E+04</pdfrwt>
<pdfrwt beam="2">  1       -1 0.49344907E+00 0.24631333E+04</pdfrwt>
<totfact> 0.10990053E-01</totfact>
</mgrwt>
</event>
<event>
12    6  0.1395358E-007  0.1864709E+04  0.7818608E-02  0.8672625E-01
         -1   -1    0    0    0  501 -0.00000000000E+00  0.00000000000E+00  0.71520168681E+03  0.71520168681E+03  0.00000000000E+00 0.  1.
          2   -1    0    0  501    0  0.00000000000E+00 -0.00000000000E+00 -0.12154399378E+04  0.12154399378E+04  0.00000000000E+00 0. -1.
         24    2    1    2    0    0  0.35261920159E+03  0.57392190003E+03 -0.43170158486E+03  0.80352068156E+03  0.74515626944E+02 0.  0.
        254    2    1    2    0    0 -0.35261920159E+03 -0.57392190003E+03 -0.68536666170E+02  0.11271209431E+04  0.90109805075E+03 0.  0.
         23    2    4    4    0    0 -0.37055008616E+03  0.13480500111E+03 -0.75799956105E+02  0.41233418378E+03  0.93776815292E+02 0.  0.
         23    2    4    4    0    0  0.17930884572E+02 -0.70872690114E+03  0.72632899349E+01  0.71478675930E+03  0.90840623482E+02 0.  0.
          4    1    3    3  502    0  0.72461782593E+02  0.68269356324E+02 -0.67504274545E+02  0.12028400572E+03  0.00000000000E+00 0. -1.
         -3    1    3    3    0  502  0.28015741900E+03  0.50565254370E+03 -0.36419731031E+03  0.68323667584E+03  0.00000000000E+00 0.  1.
         11    1    5    5    0    0 -0.24182008534E+03  0.11515762374E+03 -0.87043861770E+02  0.28162895066E+03  0.00000000000E+00 0.  1.
        -11    1    5    5    0    0 -0.12873000082E+03  0.19647377375E+02  0.11243905665E+02  0.13070523312E+03  0.00000000000E+00 0. -1.
          2    1    6    6  503    0  0.19916451851E+02 -0.46353501658E+03 -0.37724928914E+02  0.46549387419E+03  0.00000000000E+00 0. -1.
         -2    1    6    6    0  503 -0.19855672797E+01 -0.24519188456E+03  0.44988218849E+02  0.24929288511E+03  0.00000000000E+00 0.  1.
<mgrwt>
<rscale>  0 0.18647088E+04</rscale>
<asrwt>0</asrwt>
<pdfrwt beam="1">  1        2 0.18699076E+00 0.18647088E+04</pdfrwt>
<pdfrwt beam="2">  1       -1 0.11003103E+00 0.18647088E+04</pdfrwt>
<totfact> 0.15145837E+01</totfact>
</mgrwt>
</event>
<event>
12    6  0.1395358E-007  0.2153381E+04  0.7818608E-02  0.8538086E-01
         -1   -1    0    0    0  501 -0.00000000000E+00  0.00000000000E+00  0.14257713893E+04  0.14257713893E+04  0.00000000000E+00 0.  1.
          2   -1    0    0  501    0  0.00000000000E+00 -0.00000000000E+00 -0.81307738268E+03  0.81307738268E+03  0.00000000000E+00 0. -1.
         24    2    1    2    0    0  0.61926103238E+03  0.41415654793E+03 -0.24577840723E+03  0.78859184754E+03  0.80375395036E+02 0.  0.
        254    2    1    2    0    0 -0.61926103238E+03 -0.41415654793E+03  0.85847241382E+03  0.14502569244E+04  0.90069994397E+03 0.  0.
         23    2    4    4    0    0 -0.28406422434E+03 -0.66505000284E+03  0.44130162583E+03  0.85215270721E+03  0.91832029450E+02 0.  0.
         23    2    4    4    0    0 -0.33519680804E+03  0.25089345490E+03  0.41717078800E+03  0.59810421719E+03  0.91612021213E+02 0.  0.
          4    1    3    3  502    0  0.19939709623E+03  0.17692853131E+03 -0.10118275306E+03  0.28513305086E+03  0.00000000000E+00 0. -1.
         -3    1    3    3    0  502  0.41986393615E+03  0.23722801663E+03 -0.14459565417E+03  0.50345879668E+03  0.00000000000E+00 0.  1.
         11    1    5    5    0    0 -0.26905507168E+03 -0.55782464598E+03  0.39380638318E+03  0.73392263536E+03  0.00000000000E+00 0. -1.
        -11    1    5    5    0    0 -0.15009152654E+02 -0.10722535685E+03  0.47495242648E+02  0.11823007185E+03  0.00000000000E+00 0.  1.
          4    1    6    6  503    0 -0.39199613180E+02  0.32342008626E+00  0.24609910436E+02  0.46285656155E+02  0.00000000000E+00 0.  1.
         -4    1    6    6    0  503 -0.29599719486E+03  0.25057003481E+03  0.39256087756E+03  0.55181856104E+03  0.00000000000E+00 0. -1.
<mgrwt>
<rscale>  0 0.21533810E+04</rscale>
<asrwt>0</asrwt>
<pdfrwt beam="1">  1        2 0.12508883E+00 0.21533810E+04</pdfrwt>
<pdfrwt beam="2">  1       -1 0.21934944E+00 0.21533810E+04</pdfrwt>
<totfact> 0.39223527E+00</totfact>
</mgrwt>
</event>
<event>
12    6  0.1395358E-007  0.4930283E+04  0.7818608E-02  0.7839353E-01
         -1   -1    0    0    0  501 -0.00000000000E+00  0.00000000000E+00  0.14742759833E+04  0.14742759833E+04  0.00000000000E+00 0.  1.
          2   -1    0    0  501    0  0.00000000000E+00 -0.00000000000E+00 -0.41219707427E+04  0.41219707427E+04  0.00000000000E+00 0. -1.
         24    2    1    2    0    0  0.98315692650E+02  0.23160182523E+04 -0.19037451709E+04  0.30006910165E+04  0.79337129409E+02 0.  0.
        254    2    1    2    0    0 -0.98315692650E+02 -0.23160182523E+04 -0.74394958848E+03  0.25955557095E+04  0.89991217937E+03 0.  0.
         23    2    4    4    0    0 -0.43695887355E+03 -0.90596061541E+03 -0.48202594547E+03  0.11190535161E+04  0.90741754389E+02 0.  0.
         23    2    4    4    0    0  0.33864318090E+03 -0.14100576369E+04 -0.26192364301E+03  0.14765021934E+04  0.92265860375E+02 0.  0.
          4    1    3    3  502    0  0.33440972367E+02  0.16373460526E+04 -0.13405844166E+04  0.21164089805E+04  0.00000000000E+00 0. -1.
         -3    1    3    3    0  502  0.64874720283E+02  0.67867219977E+03 -0.56316075428E+03  0.88428203603E+03  0.00000000000E+00 0.  1.
         11    1    5    5    0    0 -0.11974937407E+03 -0.29623609576E+03 -0.11278500218E+03  0.33884538323E+03  0.00000000000E+00 0. -1.
        -11    1    5    5    0    0 -0.31720949948E+03 -0.60972451964E+03 -0.36924094330E+03  0.78020813289E+03  0.00000000000E+00 0.  1.
          3    1    6    6  503    0  0.16621884048E+03 -0.63999107695E+03 -0.16448225205E+03  0.68137485479E+03  0.00000000000E+00 0. -1.
         -3    1    6    6    0  503  0.17242434043E+03 -0.77006655998E+03 -0.97441390959E+02  0.79512733863E+03  0.00000000000E+00 0.  1.
<mgrwt>
<rscale>  0 0.49302829E+04</rscale>
<asrwt>0</asrwt>
<pdfrwt beam="1">  1        2 0.63414935E+00 0.49302829E+04</pdfrwt>
<pdfrwt beam="2">  1       -1 0.22681169E+00 0.49302829E+04</pdfrwt>
<totfact> 0.22201251E-02</totfact>
</mgrwt>
</event>
<event>
12    6  0.1395358E-007  0.1199237E+04  0.7818608E-02  0.9113525E-01
         -1   -1    0    0    0  501 -0.00000000000E+00  0.00000000000E+00  0.62945498223E+03  0.62945498223E+03  0.00000000000E+00 0.  1.
          2   -1    0    0  501    0  0.00000000000E+00 -0.00000000000E+00 -0.57119591931E+03  0.57119591931E+03  0.00000000000E+00 0. -1.
         24    2    1    2    0    0 -0.46712258808E+02  0.64443879578E+02 -0.22436602327E+03  0.25294247403E+03  0.85467736791E+02 0.  0.
        254    2    1    2    0    0  0.46712258808E+02 -0.64443879578E+02  0.28262508619E+03  0.94770842751E+03  0.90107673119E+03 0.  0.
         23    2    4    4    0    0  0.33982281789E+03 -0.43311759684E+02  0.47013996815E+03  0.58886660478E+03  0.91525037486E+02 0.  0.
         23    2    4    4    0    0 -0.29311055909E+03 -0.21132119894E+02 -0.18751488196E+03  0.35884182273E+03  0.85119072143E+02 0.  0.
          4    1    3    3  502    0 -0.44787189070E+02  0.33501427068E+02 -0.21251577514E+03  0.21975257132E+03  0.00000000000E+00 0. -1.
         -3    1    3    3    0  502 -0.19250697378E+01  0.30942452510E+02 -0.11850248131E+02  0.33189902706E+02  0.00000000000E+00 0.  1.
         11    1    5    5    0    0 -0.39895026846E+01 -0.71840884883E+01  0.17284071971E+02  0.19138087756E+02  0.00000000000E+00 0. -1.
        -11    1    5    5    0    0  0.34381232058E+03 -0.36127671195E+02  0.45285589618E+03  0.56972851702E+03  0.00000000000E+00 0.  1.
          2    1    6    6  503    0 -0.47249952640E+02  0.24755812270E+02 -0.51487134297E+02  0.74137259618E+02  0.00000000000E+00 0. -1.
         -2    1    6    6    0  503 -0.24586060645E+03 -0.45887932165E+02 -0.13602774767E+03  0.28470456311E+03  0.00000000000E+00 0.  1.
<mgrwt>
<rscale>  0 0.11992366E+04</rscale>
<asrwt>0</asrwt>
<pdfrwt beam="1">  1        2 0.87876295E-01 0.11992366E+04</pdfrwt>
<pdfrwt beam="2">  1       -1 0.96839228E-01 0.11992366E+04</pdfrwt>
<totfact> 0.60900807E+01</totfact>
</mgrwt>
</event>
<event>
12    6  0.1395358E-007  0.1861286E+04  0.7818608E-02  0.8674371E-01
         -1   -1    0    0    0  501 -0.00000000000E+00  0.00000000000E+00  0.48089649304E+03  0.48089649304E+03  0.00000000000E+00 0.  1.
          2   -1    0    0  501    0  0.00000000000E+00 -0.00000000000E+00 -0.18010030266E+04  0.18010030266E+04  0.00000000000E+00 0. -1.
         24    2    1    2    0    0  0.18833221714E+03 -0.68504230816E+03 -0.38366971168E+03  0.81101294568E+03  0.76076030573E+02 0.  0.
        254    2    1    2    0    0 -0.18833221714E+03  0.68504230816E+03 -0.93643682191E+03  0.14708865740E+04  0.88421796188E+03 0.  0.
         23    2    4    4    0    0 -0.19118381925E+02  0.23191574683E+03  0.14117644066E+03  0.28648578302E+03  0.89402965948E+02 0.  0.
         23    2    4    4    0    0 -0.16921383522E+03  0.45312656132E+03 -0.10776132626E+04  0.11844007910E+04  0.87165861226E+02 0.  0.
          2    1    3    3  502    0  0.88467980985E+02 -0.26035538104E+03 -0.18650619019E+03  0.33225903611E+03  0.00000000000E+00 0. -1.
         -1    1    3    3    0  502  0.99864236156E+02 -0.42468692712E+03 -0.19716352148E+03  0.47875390957E+03  0.00000000000E+00 0.  1.
         11    1    5    5    0    0 -0.48917867397E+02  0.77958326249E+02  0.60451337542E+02  0.11011277216E+03  0.00000000000E+00 0. -1.
        -11    1    5    5    0    0  0.29799485472E+02  0.15395742058E+03  0.80725103115E+02  0.17637301086E+03  0.00000000000E+00 0.  1.
          1    1    6    6  503    0 -0.13312621458E+02  0.34418127727E+02 -0.38628584679E+02  0.53422850547E+02  0.00000000000E+00 0. -1.
         -1    1    6    6    0  503 -0.15590121376E+03  0.41870843360E+03 -0.10389846779E+04  0.11309779404E+04  0.00000000000E+00 0.  1.
<mgrwt>
<rscale>  0 0.18612856E+04</rscale>
<asrwt>0</asrwt>
<pdfrwt beam="1">  1        2 0.27707739E+00 0.18612856E+04</pdfrwt>
<pdfrwt beam="2">  1       -1 0.73984076E-01 0.18612856E+04</pdfrwt>
<totfact> 0.16961761E+01</totfact>
</mgrwt>
</event>
<event>
12    6  0.1395358E-007  0.1615691E+04  0.7818608E-02  0.8810966E-01
         -1   -1    0    0    0  501 -0.00000000000E+00  0.00000000000E+00  0.53539278443E+03  0.53539278443E+03  0.00000000000E+00 0.  1.
          2   -1    0    0  501    0  0.00000000000E+00 -0.00000000000E+00 -0.12189455958E+04  0.12189455958E+04  0.00000000000E+00 0. -1.
         24    2    1    2    0    0 -0.48625127733E+03 -0.41349553428E+02  0.44676497078E+02  0.49654658290E+03  0.80077645568E+02 0.  0.
        254    2    1    2    0    0  0.48625127733E+03  0.41349553428E+02 -0.72822930848E+03  0.12577917974E+04  0.90198236652E+03 0.  0.
         23    2    4    4    0    0  0.50043570531E+03  0.40378183590E+03 -0.41477768358E+03  0.77061227815E+03  0.91252892012E+02 0.  0.
         23    2    4    4    0    0 -0.14184427978E+02 -0.36243228247E+03 -0.31345162490E+03  0.48717951921E+03  0.86796344471E+02 0.  0.
          2    1    3    3  502    0 -0.24337231140E+02 -0.19908641337E+02  0.92735783659E+01  0.32781916892E+02  0.00000000000E+00 0. -1.
         -1    1    3    3    0  502 -0.46191404619E+03 -0.21440912091E+02  0.35402918712E+02  0.46376466600E+03  0.00000000000E+00 0.  1.
         11    1    5    5    0    0  0.27095221453E+03  0.16996067204E+03 -0.23510287543E+03  0.39695729573E+03  0.00000000000E+00 0. -1.
        -11    1    5    5    0    0  0.22948349078E+03  0.23382116385E+03 -0.17967480815E+03  0.37365498243E+03  0.00000000000E+00 0.  1.
          3    1    6    6  503    0 -0.50717689769E+02 -0.20529649475E+03 -0.17082909341E+03  0.27184832898E+03  0.00000000000E+00 0. -1.
         -3    1    6    6    0  503  0.36533261791E+02 -0.15713578772E+03 -0.14262253149E+03  0.21533119023E+03  0.00000000000E+00 0.  1.
<mgrwt>
<rscale>  0 0.16156914E+04</rscale>
<asrwt>0</asrwt>
<pdfrwt beam="1">  1        2 0.18753009E+00 0.16156914E+04</pdfrwt>
<pdfrwt beam="2">  1       -1 0.82368121E-01 0.16156914E+04</pdfrwt>
<totfact> 0.29535794E+01</totfact>
</mgrwt>
</event>
<event>
12    6  0.1395358E-007  0.1934352E+04  0.7818608E-02  0.8637944E-01
         -1   -1    0    0    0  501 -0.00000000000E+00  0.00000000000E+00  0.26550277266E+03  0.26550277266E+03  0.00000000000E+00 0.  1.
          2   -1    0    0  501    0  0.00000000000E+00 -0.00000000000E+00 -0.35232380722E+04  0.35232380722E+04  0.00000000000E+00 0. -1.
         24    2    1    2    0    0 -0.45028846492E+03  0.46604487122E+03 -0.52015540279E+03  0.83484830952E+03  0.80327661670E+02 0.  0.
        254    2    1    2    0    0  0.45028846492E+03 -0.46604487122E+03 -0.27375798968E+04  0.29538925354E+04  0.90065525905E+03 0.  0.
         23    2    4    4    0    0 -0.17683301672E+03 -0.39517451559E+03 -0.14685554634E+04  0.15336885060E+04  0.90069255720E+02 0.  0.
         23    2    4    4    0    0  0.62712148164E+03 -0.70870355634E+02 -0.12690244334E+04  0.14202040294E+04  0.90843340151E+02 0.  0.
          4    1    3    3  502    0 -0.32324359376E+03  0.29095018720E+03 -0.37584093793E+03  0.57479982861E+03  0.00000000000E+00 0. -1.
         -3    1    3    3    0  502 -0.12704487116E+03  0.17509468402E+03 -0.14431446486E+03  0.26004848092E+03  0.00000000000E+00 0.  1.
         11    1    5    5    0    0 -0.14192231300E+03 -0.35514502774E+03 -0.11845948780E+04  0.12448031807E+04  0.00000000000E+00 0. -1.
        -11    1    5    5    0    0 -0.34910703724E+02 -0.40029487852E+02 -0.28396058538E+03  0.28888532531E+03  0.00000000000E+00 0.  1.
          2    1    6    6  503    0  0.36676499834E+03 -0.81699726636E+02 -0.70463121316E+03  0.79855904972E+03  0.00000000000E+00 0.  1.
         -2    1    6    6    0  503  0.26035648330E+03  0.10829371002E+02 -0.56439322022E+03  0.62164497964E+03  0.00000000000E+00 0. -1.
<mgrwt>
<rscale>  0 0.19343521E+04</rscale>
<asrwt>0</asrwt>
<pdfrwt beam="1">  1        2 0.54203662E+00 0.19343521E+04</pdfrwt>
<pdfrwt beam="2">  1       -1 0.40846581E-01 0.19343521E+04</pdfrwt>
<totfact> 0.49112590E+00</totfact>
</mgrwt>
</event>
<event>
12    6  0.1395358E-007  0.2952873E+04  0.7818608E-02  0.8257318E-01
          2   -1    0    0  501    0  0.00000000000E+00  0.00000000000E+00  0.20076893628E+04  0.20076893628E+04  0.00000000000E+00 0. -1.
         -1   -1    0    0    0  501 -0.00000000000E+00 -0.00000000000E+00 -0.10857576250E+04  0.10857576250E+04  0.00000000000E+00 0.  1.
         24    2    1    2    0    0  0.60240697517E+02 -0.64300520733E+03  0.16400895951E+04  0.17644000504E+04  0.78288053801E+02 0.  0.
        254    2    1    2    0    0 -0.60240697517E+02  0.64300520733E+03 -0.71815785733E+03  0.13290469373E+04  0.91297886905E+03 0.  0.
         23    2    4    4    0    0 -0.34971997191E+03  0.68881461847E+03 -0.65200914473E+03  0.10149904492E+04  0.91214306380E+02 0.  0.
         23    2    4    4    0    0  0.28947927439E+03 -0.45809411143E+02 -0.66148712600E+02  0.31405648819E+03  0.91427966972E+02 0.  0.
          2    1    3    3  502    0  0.21289865743E+02 -0.77742874626E+02  0.26992623789E+03  0.28170443170E+03  0.00000000000E+00 0. -1.
         -1    1    3    3    0  502  0.38950831774E+02 -0.56526233270E+03  0.13701633573E+04  0.14826956187E+04  0.00000000000E+00 0.  1.
         11    1    5    5    0    0 -0.30406908765E+03  0.53023790549E+03 -0.53945082444E+03  0.81524072425E+03  0.00000000000E+00 0. -1.
        -11    1    5    5    0    0 -0.45650884261E+02  0.15857671298E+03 -0.11255832029E+03  0.19974972491E+03  0.00000000000E+00 0.  1.
          3    1    6    6  503    0  0.49379185439E+02  0.26705408316E+02 -0.14535855353E+02  0.57989429026E+02  0.00000000000E+00 0. -1.
         -3    1    6    6    0  503  0.24010008896E+03 -0.72514819459E+02 -0.51612857247E+02  0.25606705917E+03  0.00000000000E+00 0.  1.
<mgrwt>
<rscale>  0 0.29528725E+04</rscale>
<asrwt>0</asrwt>
<pdfrwt beam="1">  1        2 0.30887529E+00 0.29528725E+04</pdfrwt>
<pdfrwt beam="2">  1       -1 0.16703963E+00 0.29528725E+04</pdfrwt>
<totfact> 0.16735006E+00</totfact>
</mgrwt>
</event>
<event>
12    6  0.1395358E-007  0.1917237E+04  0.7818608E-02  0.8646323E-01
         -1   -1    0    0    0  501 -0.00000000000E+00  0.00000000000E+00  0.61219750504E+03  0.61219750504E+03  0.00000000000E+00 0.  1.
          2   -1    0    0  501    0  0.00000000000E+00 -0.00000000000E+00 -0.15010675325E+04  0.15010675325E+04  0.00000000000E+00 0. -1.
         24    2    1    2    0    0  0.42229910655E+03  0.61177280172E+03 -0.37652414643E+03  0.83710100374E+03  0.79781960938E+02 0.  0.
        254    2    1    2    0    0 -0.42229910655E+03 -0.61177280172E+03 -0.51234588100E+03  0.12761640338E+04  0.90193893529E+03 0.  0.
         23    2    4    4    0    0  0.41415814114E+02  0.26188634531E+02  0.18985363913E+03  0.21616024676E+03  0.90993042311E+02 0.  0.
         23    2    4    4    0    0 -0.46371492067E+03 -0.63796143625E+03 -0.70219952013E+03  0.10600037870E+04  0.92182105725E+02 0.  0.
          4    1    3    3  502    0  0.15146845033E+03  0.15847117887E+03 -0.12268704589E+03  0.25121289220E+03  0.00000000000E+00 0. -1.
         -1    1    3    3    0  502  0.27083065622E+03  0.45330162285E+03 -0.25383710053E+03  0.58588811154E+03  0.00000000000E+00 0.  1.
         11    1    5    5    0    0  0.36603873874E+00  0.24401069548E+02  0.16772616859E+03  0.16949222345E+03  0.00000000000E+00 0.  1.
        -11    1    5    5    0    0  0.41049775376E+02  0.17875649835E+01  0.22127470541E+02  0.46668023308E+02  0.00000000000E+00 0. -1.
          3    1    6    6  503    0 -0.12115690131E+03 -0.13971642867E+03 -0.11884175512E+03  0.21982501663E+03  0.00000000000E+00 0. -1.
         -3    1    6    6    0  503 -0.34255801935E+03 -0.49824500758E+03 -0.58335776502E+03  0.84017877039E+03  0.00000000000E+00 0.  1.
<mgrwt>
<rscale>  0 0.19172374E+04</rscale>
<asrwt>0</asrwt>
<pdfrwt beam="1">  1        2 0.23093347E+00 0.19172374E+04</pdfrwt>
<pdfrwt beam="2">  1       -1 0.94184232E-01 0.19172374E+04</pdfrwt>
<totfact> 0.14747482E+01</totfact>
</mgrwt>
</event>
<event>
12    6  0.1395358E-007  0.2535072E+04  0.7818608E-02  0.8390596E-01
         -1   -1    0    0    0  501 -0.00000000000E+00  0.00000000000E+00  0.54250052292E+03  0.54250052292E+03  0.00000000000E+00 0.  1.
          2   -1    0    0  501    0  0.00000000000E+00 -0.00000000000E+00 -0.29615597633E+04  0.29615597633E+04  0.00000000000E+00 0. -1.
         24    2    1    2    0    0 -0.56378948981E+03  0.94795777722E+03 -0.93671234422E+03  0.14492714978E+04  0.80469386871E+02 0.  0.
        254    2    1    2    0    0  0.56378948981E+03 -0.94795777722E+03 -0.14823468962E+04  0.20547887885E+04  0.89906735478E+03 0.  0.
         23    2    4    4    0    0  0.77869760965E+03 -0.58017968639E+03 -0.11426964026E+04  0.15023827778E+04  0.91763318763E+02 0.  0.
         23    2    4    4    0    0 -0.21490811984E+03 -0.36777809083E+03 -0.33965049359E+03  0.55240601071E+03  0.91343958783E+02 0.  0.
          2    1    3    3  502    0 -0.13561067056E+03  0.29450884216E+03 -0.29274328371E+03  0.43683445633E+03  0.00000000000E+00 0. -1.
         -1    1    3    3    0  502 -0.42817881925E+03  0.65344893506E+03 -0.64396906051E+03  0.10124370414E+04  0.00000000000E+00 0.  1.
         11    1    5    5    0    0  0.70236662881E+03 -0.53703294065E+03 -0.99914733169E+03  0.13341733962E+04  0.00000000000E+00 0. -1.
        -11    1    5    5    0    0  0.76330980847E+02 -0.43146745745E+02 -0.14354907090E+03  0.16820938161E+03  0.00000000000E+00 0.  1.
          1    1    6    6  503    0 -0.88013313827E+02 -0.14454555853E+03 -0.19305072563E+03  0.25672620545E+03  0.00000000000E+00 0. -1.
         -1    1    6    6    0  503 -0.12689480601E+03 -0.22323253230E+03 -0.14659976796E+03  0.29567980526E+03  0.00000000000E+00 0.  1.
<mgrwt>
<rscale>  0 0.25350722E+04</rscale>
<asrwt>0</asrwt>
<pdfrwt beam="1">  1        2 0.45562458E+00 0.25350722E+04</pdfrwt>
<pdfrwt beam="2">  1       -1 0.83461619E-01 0.25350722E+04</pdfrwt>
<totfact> 0.26507167E+00</totfact>
</mgrwt>
</event>
<event>
12    6  0.1395358E-007  0.1685539E+04  0.7818608E-02  0.8769655E-01
          2   -1    0    0  501    0  0.00000000000E+00  0.00000000000E+00  0.13389074478E+04  0.13389074478E+04  0.00000000000E+00 0. -1.
         -1   -1    0    0    0  501 -0.00000000000E+00 -0.00000000000E+00 -0.53047739472E+03  0.53047739472E+03  0.00000000000E+00 0.  1.
         24    2    1    2    0    0 -0.37279877391E+03 -0.58426071508E+02 -0.22599236004E+03  0.44705899906E+03  0.79979185963E+02 0.  0.
        254    2    1    2    0    0  0.37279877391E+03  0.58426071508E+02  0.10344224131E+04  0.14223258434E+04  0.90032690980E+03 0.  0.
         23    2    4    4    0    0  0.54362230647E+03 -0.42634982541E+02  0.10660473477E+04  0.12009639140E+04  0.92273622031E+02 0.  0.
         23    2    4    4    0    0 -0.17082353256E+03  0.10106105405E+03 -0.31624934586E+02  0.22136192946E+03  0.92773656866E+02 0.  0.
          2    1    3    3  502    0 -0.14870538444E+03 -0.62833663263E+02 -0.88284339738E+02  0.18399860120E+03  0.00000000000E+00 0. -1.
         -1    1    3    3    0  502 -0.22409338947E+03  0.44075917553E+01 -0.13770802030E+03  0.26306039786E+03  0.00000000000E+00 0.  1.
         11    1    5    5    0    0  0.15611968706E+03 -0.52065820355E+02  0.28786814717E+03  0.33159052534E+03  0.00000000000E+00 0. -1.
        -11    1    5    5    0    0  0.38750261940E+03  0.94308378139E+01  0.77817920051E+03  0.86937338863E+03  0.00000000000E+00 0.  1.
          1    1    6    6  503    0 -0.10525994803E+03  0.90400575774E+02  0.15939261332E+02  0.13966381354E+03  0.00000000000E+00 0. -1.
         -1    1    6    6    0  503 -0.65563584523E+02  0.10660478274E+02 -0.47564195918E+02  0.81698115926E+02  0.00000000000E+00 0.  1.
<mgrwt>
<rscale>  0 0.16855386E+04</rscale>
<asrwt>0</asrwt>
<pdfrwt beam="1">  1        2 0.20598576E+00 0.16855386E+04</pdfrwt>
<pdfrwt beam="2">  1       -1 0.81611907E-01 0.16855386E+04</pdfrwt>
<totfact> 0.25471345E+01</totfact>
</mgrwt>
</event>
<event>
12    6  0.1395358E-007  0.2324336E+04  0.7818608E-02  0.8468387E-01
         -1   -1    0    0    0  501 -0.00000000000E+00  0.00000000000E+00  0.11859895388E+04  0.11859895388E+04  0.00000000000E+00 0.  1.
          2   -1    0    0  501    0  0.00000000000E+00 -0.00000000000E+00 -0.11388253390E+04  0.11388253390E+04  0.00000000000E+00 0. -1.
         24    2    1    2    0    0 -0.39759678702E+03  0.45015210019E+03 -0.76236444632E+03  0.97365658967E+03  0.78022350920E+02 0.  0.
        254    2    1    2    0    0  0.39759678702E+03 -0.45015210019E+03  0.80952864604E+03  0.13511582881E+04  0.89976217551E+03 0.  0.
         23    2    4    4    0    0  0.46766935028E+03  0.11381131555E+03  0.25505147525E+03  0.55240406495E+03  0.91822433031E+02 0.  0.
         23    2    4    4    0    0 -0.70072563257E+02 -0.56396341575E+03  0.55447717079E+03  0.79875422319E+03  0.87169247479E+02 0.  0.
          2    1    3    3  502    0 -0.38364654686E+03  0.43510758225E+03 -0.75441368206E+03  0.95165292241E+03  0.00000000000E+00 0. -1.
         -1    1    3    3    0  502 -0.13950240158E+02  0.15044517944E+02 -0.79507642546E+01  0.22003667260E+02  0.00000000000E+00 0.  1.
         11    1    5    5    0    0  0.77484523521E+02 -0.12411994667E+02  0.25930226466E+02  0.82645542175E+02  0.00000000000E+00 0.  1.
        -11    1    5    5    0    0  0.39018482676E+03  0.12622331022E+03  0.22912124878E+03  0.46975852277E+03  0.00000000000E+00 0. -1.
          2    1    6    6  503    0 -0.67286426026E+02 -0.42977932094E+03  0.46872773552E+03  0.63948683950E+03  0.00000000000E+00 0. -1.
         -2    1    6    6    0  503 -0.27861372308E+01 -0.13418409480E+03  0.85749435266E+02  0.15926738369E+03  0.00000000000E+00 0.  1.
<mgrwt>
<rscale>  0 0.23243364E+04</rscale>
<asrwt>0</asrwt>
<pdfrwt beam="1">  1        2 0.17520390E+00 0.23243364E+04</pdfrwt>
<pdfrwt beam="2">  1       -1 0.18245993E+00 0.23243364E+04</pdfrwt>
<totfact> 0.42509086E+00</totfact>
</mgrwt>
</event>
<event>
12    6  0.1395358E-007  0.1473654E+04  0.7818608E-02  0.8902164E-01
         -3   -1    0    0    0  501 -0.00000000000E+00  0.00000000000E+00  0.12178367134E+04  0.12178367134E+04  0.00000000000E+00 0.  1.
          2   -1    0    0  501    0  0.00000000000E+00 -0.00000000000E+00 -0.44580220277E+03  0.44580220277E+03  0.00000000000E+00 0. -1.
         24    2    1    2    0    0  0.21509381114E+03 -0.25450359723E+03 -0.11025826470E+03  0.35989487069E+03  0.79561324908E+02 0.  0.
        254    2    1    2    0    0 -0.21509381114E+03  0.25450359723E+03  0.88229277528E+03  0.13037440454E+04  0.90015030195E+03 0.  0.
         23    2    4    4    0    0 -0.24004676328E+03  0.53124399922E+03  0.32340075762E+03  0.67316628509E+03  0.93392516247E+02 0.  0.
         23    2    4    4    0    0  0.24952952138E+02 -0.27674040199E+03  0.55889201767E+03  0.63057776034E+03  0.89778196194E+02 0.  0.
          2    1    3    3  502    0  0.16133651065E+03 -0.13340987193E+03 -0.55881274321E+02  0.21668036463E+03  0.00000000000E+00 0. -1.
         -1    1    3    3    0  502  0.53757300488E+02 -0.12109372530E+03 -0.54376990377E+02  0.14321450606E+03  0.00000000000E+00 0.  1.
         11    1    5    5    0    0 -0.54761550850E+02  0.18176782793E+03  0.14680880268E+03  0.23998165611E+03  0.00000000000E+00 0. -1.
        -11    1    5    5    0    0 -0.18528521243E+03  0.34947617129E+03  0.17659195494E+03  0.43318462899E+03  0.00000000000E+00 0.  1.
          1    1    6    6  503    0  0.25948146362E+02 -0.22260004960E+03  0.35668705466E+03  0.42124784076E+03  0.00000000000E+00 0. -1.
         -1    1    6    6    0  503 -0.99519422341E+00 -0.54140352393E+02  0.20220496301E+03  0.20932991958E+03  0.00000000000E+00 0.  1.
<mgrwt>
<rscale>  0 0.14736544E+04</rscale>
<asrwt>0</asrwt>
<pdfrwt beam="1">  1        2 0.68584955E-01 0.14736544E+04</pdfrwt>
<pdfrwt beam="2">  1       -3 0.18735949E+00 0.14736544E+04</pdfrwt>
<totfact> 0.75195932E+00</totfact>
</mgrwt>
</event>
<event>
12    6  0.1395358E-007  0.2987991E+04  0.7818608E-02  0.8247168E-01
          2   -1    0    0  501    0  0.00000000000E+00  0.00000000000E+00  0.20150322362E+04  0.20150322362E+04  0.00000000000E+00 0. -1.
         -1   -1    0    0    0  501 -0.00000000000E+00 -0.00000000000E+00 -0.11076859399E+04  0.11076859399E+04  0.00000000000E+00 0.  1.
         24    2    1    2    0    0 -0.86032041618E+03  0.38768226292E+03  0.14320380732E+04  0.17168056817E+04  0.78993355561E+02 0.  0.
        254    2    1    2    0    0  0.86032041618E+03 -0.38768226292E+03 -0.52469177689E+03  0.14059124945E+04  0.90046639356E+03 0.  0.
         23    2    4    4    0    0  0.73631719281E+03 -0.41547770492E+03  0.77439215997E+01  0.85067136008E+03  0.93792658759E+02 0.  0.
         23    2    4    4    0    0  0.12400322337E+03  0.27795442000E+02 -0.53243569849E+03  0.55524113439E+03  0.93035252965E+02 0.  0.
          4    1    3    3  502    0 -0.73442754590E+03  0.31716891639E+03  0.12567592838E+04  0.14897730831E+04  0.00000000000E+00 0. -1.
         -3    1    3    3    0  502 -0.12589287028E+03  0.70513346523E+02  0.17527878940E+03  0.22703259863E+03  0.00000000000E+00 0.  1.
         11    1    5    5    0    0  0.69903361180E+03 -0.41495670711E+03  0.12952988484E+02  0.81302204098E+03  0.00000000000E+00 0.  1.
        -11    1    5    5    0    0  0.37283581006E+02 -0.52099780692E+00 -0.52090668845E+01  0.37649319106E+02  0.00000000000E+00 0. -1.
          1    1    6    6  503    0  0.56248294130E+02 -0.31440219887E+02 -0.27758590844E+03  0.28496718159E+03  0.00000000000E+00 0. -1.
         -1    1    6    6    0  503  0.67754929237E+02  0.59235661887E+02 -0.25484979005E+03  0.27027395280E+03  0.00000000000E+00 0.  1.
<mgrwt>
<rscale>  0 0.29879912E+04</rscale>
<asrwt>0</asrwt>
<pdfrwt beam="1">  1        2 0.31000496E+00 0.29879912E+04</pdfrwt>
<pdfrwt beam="2">  1       -1 0.17041322E+00 0.29879912E+04</pdfrwt>
<totfact> 0.15608300E+00</totfact>
</mgrwt>
</event>
<event>
12    6  0.1395358E-007  0.3386966E+04  0.7818608E-02  0.8141113E-01
          2   -1    0    0  501    0  0.00000000000E+00  0.00000000000E+00  0.18734112841E+04  0.18734112841E+04  0.00000000000E+00 0. -1.
         -1   -1    0    0    0  501 -0.00000000000E+00 -0.00000000000E+00 -0.15308352707E+04  0.15308352707E+04  0.00000000000E+00 0.  1.
         24    2    1    2    0    0 -0.23776105648E+03 -0.95792396305E+03  0.13902080442E+04  0.17061572085E+04  0.64384588156E+02 0.  0.
        254    2    1    2    0    0  0.23776105648E+03  0.95792396305E+03 -0.10476320308E+04  0.16980893463E+04  0.90101382729E+03 0.  0.
         23    2    4    4    0    0 -0.47701530918E+02  0.50424805241E+03  0.34477439816E+01  0.51475570361E+03  0.91760629098E+02 0.  0.
         23    2    4    4    0    0  0.28546258740E+03  0.45367591064E+03 -0.10510797748E+04  0.11833336427E+04  0.90548860603E+02 0.  0.
          4    1    3    3  502    0 -0.13207901323E+03 -0.65677472157E+03  0.94505661989E+03  0.11584169869E+04  0.00000000000E+00 0. -1.
         -3    1    3    3    0  502 -0.10568204325E+03 -0.30114924148E+03  0.44515142427E+03  0.54774022167E+03  0.00000000000E+00 0.  1.
         11    1    5    5    0    0  0.13892019074E+02  0.14182878176E+03 -0.29967073368E+02  0.14562423224E+03  0.00000000000E+00 0. -1.
        -11    1    5    5    0    0 -0.61593549992E+02  0.36241927065E+03  0.33414817349E+02  0.36913147137E+03  0.00000000000E+00 0.  1.
          4    1    6    6  503    0  0.10497745085E+03  0.98125185561E+02 -0.31383325203E+03  0.34516681085E+03  0.00000000000E+00 0. -1.
         -4    1    6    6    0  503  0.18048513655E+03  0.35555072508E+03 -0.73724652276E+03  0.83816683181E+03  0.00000000000E+00 0.  1.
<mgrwt>
<rscale>  0 0.33869656E+04</rscale>
<asrwt>0</asrwt>
<pdfrwt beam="1">  1        2 0.28821712E+00 0.33869656E+04</pdfrwt>
<pdfrwt beam="2">  1       -1 0.23551312E+00 0.33869656E+04</pdfrwt>
<totfact> 0.64330074E-01</totfact>
</mgrwt>
</event>
<event>
12    6  0.1395358E-007  0.2114057E+04  0.7818608E-02  0.8555076E-01
          2   -1    0    0  501    0  0.00000000000E+00  0.00000000000E+00  0.15466954725E+04  0.15466954725E+04  0.00000000000E+00 0. -1.
         -1   -1    0    0    0  501 -0.00000000000E+00 -0.00000000000E+00 -0.72238477448E+03  0.72238477448E+03  0.00000000000E+00 0.  1.
         24    2    1    2    0    0 -0.77827357840E+03 -0.27824286744E+03  0.87058877685E+02  0.83506339027E+03  0.81380350624E+02 0.  0.
        254    2    1    2    0    0  0.77827357840E+03  0.27824286744E+03  0.73725182037E+03  0.14340168567E+04  0.91089804187E+03 0.  0.
         23    2    4    4    0    0 -0.98825981373E+01 -0.15668996057E+03  0.44851523467E+03  0.48392952486E+03  0.91501146465E+02 0.  0.
         23    2    4    4    0    0  0.78815617653E+03  0.43493282801E+03  0.28873658569E+03  0.95008733188E+03  0.94553682080E+02 0.  0.
          2    1    3    3  502    0 -0.21328499584E+03 -0.11232346253E+03  0.39859499855E+02  0.24432729977E+03  0.00000000000E+00 0. -1.
         -1    1    3    3    0  502 -0.56498858256E+03 -0.16591940491E+03  0.47199377830E+02  0.59073609049E+03  0.00000000000E+00 0.  1.
         11    1    5    5    0    0 -0.36713456080E+02 -0.10221685439E+03  0.19462683200E+03  0.22288061134E+03  0.00000000000E+00 0.  1.
        -11    1    5    5    0    0  0.26830857943E+02 -0.54473106189E+02  0.25388840267E+03  0.26104891352E+03  0.00000000000E+00 0. -1.
          2    1    6    6  503    0  0.18300308306E+03  0.68172931650E+02  0.35298665986E+02  0.19845320063E+03  0.00000000000E+00 0. -1.
         -2    1    6    6    0  503  0.60515309347E+03  0.36675989636E+03  0.25343791971E+03  0.75163413125E+03  0.00000000000E+00 0.  1.
<mgrwt>
<rscale>  0 0.21140570E+04</rscale>
<asrwt>0</asrwt>
<pdfrwt beam="1">  1        2 0.23795315E+00 0.21140570E+04</pdfrwt>
<pdfrwt beam="2">  1       -1 0.11113612E+00 0.21140570E+04</pdfrwt>
<totfact> 0.93309177E+00</totfact>
</mgrwt>
</event>
<event>
12    6  0.1395358E-007  0.2496412E+04  0.7818608E-02  0.8404265E-01
         -1   -1    0    0    0  501 -0.00000000000E+00  0.00000000000E+00  0.77502321519E+03  0.77502321519E+03  0.00000000000E+00 0.  1.
          2   -1    0    0  501    0  0.00000000000E+00 -0.00000000000E+00 -0.20102861570E+04  0.20102861570E+04  0.00000000000E+00 0. -1.
         24    2    1    2    0    0  0.96441383230E+03 -0.13946803661E+03 -0.10643022859E+04  0.14452296918E+04  0.80025827366E+02 0.  0.
        254    2    1    2    0    0 -0.96441383230E+03  0.13946803661E+03 -0.17096065589E+03  0.13400796804E+04  0.90390299857E+03 0.  0.
         23    2    4    4    0    0 -0.20668774123E+03  0.21119829710E+03  0.30758191471E+03  0.43641410283E+03  0.92336838924E+02 0.  0.
         23    2    4    4    0    0 -0.75772609107E+03 -0.71730260492E+02 -0.47854257059E+03  0.90366557758E+03  0.91183468225E+02 0.  0.
          2    1    3    3  502    0  0.37210270136E+03 -0.36031558498E+02 -0.45999977125E+03  0.59275499417E+03  0.00000000000E+00 0. -1.
         -1    1    3    3    0  502  0.59231113094E+03 -0.10343647811E+03 -0.60430251470E+03  0.85247469764E+03  0.00000000000E+00 0.  1.
         11    1    5    5    0    0 -0.14191389409E+03  0.19645267181E+03  0.25398394289E+03  0.35105704500E+03  0.00000000000E+00 0.  1.
        -11    1    5    5    0    0 -0.64773847140E+02  0.14745625283E+02  0.53597971817E+02  0.85357057829E+02  0.00000000000E+00 0. -1.
          4    1    6    6  503    0 -0.46638727596E+03 -0.71298906219E+01 -0.32094152888E+03  0.56619024319E+03  0.00000000000E+00 0. -1.
         -4    1    6    6    0  503 -0.29133881511E+03 -0.64600369870E+02 -0.15760104171E+03  0.33747533439E+03  0.00000000000E+00 0.  1.
<mgrwt>
<rscale>  0 0.24964122E+04</rscale>
<asrwt>0</asrwt>
<pdfrwt beam="1">  1        2 0.30927479E+00 0.24964122E+04</pdfrwt>
<pdfrwt beam="2">  1       -1 0.11923434E+00 0.24964122E+04</pdfrwt>
<totfact> 0.42091579E+00</totfact>
</mgrwt>
</event>
<event>
12    6  0.1395358E-007  0.2924096E+04  0.7818608E-02  0.8265744E-01
          2   -1    0    0  501    0  0.00000000000E+00  0.00000000000E+00  0.18962444332E+04  0.18962444332E+04  0.00000000000E+00 0. -1.
         -1   -1    0    0    0  501 -0.00000000000E+00 -0.00000000000E+00 -0.11272727590E+04  0.11272727590E+04  0.00000000000E+00 0.  1.
         24    2    1    2    0    0  0.44777117283E+03 -0.62529784868E+03 -0.76301323698E+03  0.10860508260E+04  0.76293997689E+02 0.  0.
        254    2    1    2    0    0 -0.44777117283E+03  0.62529784868E+03  0.15319849112E+04  0.19374663662E+04  0.90294060118E+03 0.  0.
         23    2    4    4    0    0 -0.28035631397E+02  0.72186077577E+03  0.78649450415E+03  0.10717110859E+04  0.90122529356E+02 0.  0.
         23    2    4    4    0    0 -0.41973554144E+03 -0.96562927093E+02  0.74549040705E+03  0.86575528034E+03  0.90961171901E+02 0.  0.
          4    1    3    3  502    0  0.28605926613E+03 -0.34973241554E+03 -0.48034658671E+03  0.65945091522E+03  0.00000000000E+00 0. -1.
         -3    1    3    3    0  502  0.16171190670E+03 -0.27556543314E+03 -0.28266665027E+03  0.42659991079E+03  0.00000000000E+00 0.  1.
         11    1    5    5    0    0 -0.60119673006E+02  0.41895771653E+03  0.44630956791E+03  0.61508712694E+03  0.00000000000E+00 0. -1.
        -11    1    5    5    0    0  0.32084041609E+02  0.30290305925E+03  0.34018493624E+03  0.45662395893E+03  0.00000000000E+00 0.  1.
          1    1    6    6  503    0 -0.19624766525E+03 -0.91297311410E+02  0.35350591422E+03  0.41450546024E+03  0.00000000000E+00 0. -1.
         -1    1    6    6    0  503 -0.22348787619E+03 -0.52656156831E+01  0.39198449284E+03  0.45124982010E+03  0.00000000000E+00 0.  1.
<mgrwt>
<rscale>  0 0.29240962E+04</rscale>
<asrwt>0</asrwt>
<pdfrwt beam="1">  1        2 0.29172991E+00 0.29240962E+04</pdfrwt>
<pdfrwt beam="2">  1       -1 0.17342658E+00 0.29240962E+04</pdfrwt>
<totfact> 0.17367276E+00</totfact>
</mgrwt>
</event>
<event>
12    6  0.1395358E-007  0.2776736E+04  0.7818608E-02  0.8310528E-01
          2   -1    0    0  501    0  0.00000000000E+00  0.00000000000E+00  0.17618709321E+04  0.17618709321E+04  0.00000000000E+00 0. -1.
         -1   -1    0    0    0  501 -0.00000000000E+00 -0.00000000000E+00 -0.10940445495E+04  0.10940445495E+04  0.00000000000E+00 0.  1.
         24    2    1    2    0    0 -0.80970542046E+03 -0.93387825644E+03  0.15096989937E+03  0.12477054841E+04  0.78902463033E+02 0.  0.
        254    2    1    2    0    0  0.80970542046E+03  0.93387825644E+03  0.51685648325E+03  0.16082099976E+04  0.88963324256E+03 0.  0.
         23    2    4    4    0    0  0.35730942087E+03  0.26147043120E+03 -0.22565112433E+03  0.50539462470E+03  0.92024388760E+02 0.  0.
         23    2    4    4    0    0  0.45239599959E+03  0.67240782524E+03  0.74250760758E+03  0.11028153729E+04  0.89943179158E+02 0.  0.
          2    1    3    3  502    0 -0.35944458674E+03 -0.42242260509E+03  0.10696810212E+03  0.56487471452E+03  0.00000000000E+00 0. -1.
         -1    1    3    3    0  502 -0.45026083372E+03 -0.51145565135E+03  0.44001797245E+02  0.68283076955E+03  0.00000000000E+00 0.  1.
         11    1    5    5    0    0  0.33479890694E+03  0.25854459235E+03 -0.19137748047E+03  0.46428542337E+03  0.00000000000E+00 0. -1.
        -11    1    5    5    0    0  0.22510513929E+02  0.29258388490E+01 -0.34273643859E+02  0.41109201326E+02  0.00000000000E+00 0.  1.
          3    1    6    6  503    0  0.18919866143E+03  0.25999892091E+03  0.35266521806E+03  0.47725080240E+03  0.00000000000E+00 0. -1.
         -3    1    6    6    0  503  0.26319733816E+03  0.41240890433E+03  0.38984238951E+03  0.62556457048E+03  0.00000000000E+00 0.  1.
<mgrwt>
<rscale>  0 0.27767357E+04</rscale>
<asrwt>0</asrwt>
<pdfrwt beam="1">  1        2 0.27105707E+00 0.27767357E+04</pdfrwt>
<pdfrwt beam="2">  1       -1 0.16831455E+00 0.27767357E+04</pdfrwt>
<totfact> 0.22764445E+00</totfact>
</mgrwt>
</event>
<event>
12    6  0.1395358E-007  0.2013834E+04  0.7818608E-02  0.8600180E-01
         -1   -1    0    0    0  501 -0.00000000000E+00  0.00000000000E+00  0.15448904401E+04  0.15448904401E+04  0.00000000000E+00 0.  1.
          2   -1    0    0  501    0  0.00000000000E+00 -0.00000000000E+00 -0.65628079139E+03  0.65628079139E+03  0.00000000000E+00 0. -1.
         24    2    1    2    0    0 -0.15368877371E+03 -0.27389340487E+03 -0.45184162672E+03  0.55596665739E+03  0.79374001416E+02 0.  0.
        254    2    1    2    0    0  0.15368877371E+03  0.27389340487E+03  0.13404512754E+04  0.16452045741E+04  0.90069452783E+03 0.  0.
         23    2    4    4    0    0  0.31702023360E+03  0.12112837910E+03  0.79510976626E+02  0.36131490003E+03  0.95144883427E+02 0.  0.
         23    2    4    4    0    0 -0.16333145989E+03  0.15276502577E+03  0.12609402988E+04  0.12838896740E+04  0.91585693149E+02 0.  0.
          2    1    3    3  502    0 -0.47689374000E+02 -0.86888055838E+02 -0.21118063496E+03  0.23328324248E+03  0.00000000000E+00 0. -1.
         -1    1    3    3    0  502 -0.10599939971E+03 -0.18700534903E+03 -0.24066099176E+03  0.32268341491E+03  0.00000000000E+00 0.  1.
         11    1    5    5    0    0  0.18257146524E+03  0.25506389851E+02  0.65899529426E+02  0.19576941493E+03  0.00000000000E+00 0. -1.
        -11    1    5    5    0    0  0.13444876836E+03  0.95621989250E+02  0.13611447200E+02  0.16554548510E+03  0.00000000000E+00 0.  1.
          1    1    6    6  503    0 -0.13268102979E+03  0.16201898559E+03  0.10736379466E+04  0.10938705809E+04  0.00000000000E+00 0. -1.
         -1    1    6    6    0  503 -0.30650430099E+02 -0.92539598247E+01  0.18730235217E+03  0.19001909316E+03  0.00000000000E+00 0.  1.
<mgrwt>
<rscale>  0 0.20138341E+04</rscale>
<asrwt>0</asrwt>
<pdfrwt beam="1">  1        2 0.10096628E+00 0.20138341E+04</pdfrwt>
<pdfrwt beam="2">  1       -1 0.23767545E+00 0.20138341E+04</pdfrwt>
<totfact> 0.39530085E+00</totfact>
</mgrwt>
</event>
<event>
12    6  0.1395358E-007  0.1765406E+04  0.7818608E-02  0.8724916E-01
          2   -1    0    0  501    0  0.00000000000E+00  0.00000000000E+00  0.10897129595E+04  0.10897129595E+04  0.00000000000E+00 0. -1.
         -1   -1    0    0    0  501 -0.00000000000E+00 -0.00000000000E+00 -0.71501827028E+03  0.71501827028E+03  0.00000000000E+00 0.  1.
         24    2    1    2    0    0 -0.20475626114E+03 -0.40716614463E+03  0.61372182237E+03  0.76823008124E+03  0.76246879699E+02 0.  0.
        254    2    1    2    0    0  0.20475626114E+03  0.40716614463E+03 -0.23902713315E+03  0.10365011485E+04  0.89971732490E+03 0.  0.
         23    2    4    4    0    0  0.48712212157E+03  0.30079355643E+03  0.83435960060E+02  0.58590333735E+03  0.92501007415E+02 0.  0.
         23    2    4    4    0    0 -0.28236586043E+03  0.10637258820E+03 -0.32246309321E+03  0.45059781119E+03  0.89500470984E+02 0.  0.
          4    1    3    3  502    0 -0.20425057281E+03 -0.40965127641E+03  0.60215332334E+03  0.75638686501E+03  0.00000000000E+00 0. -1.
         -3    1    3    3    0  502 -0.50568832334E+00  0.24851317852E+01  0.11568499037E+02  0.11843216229E+02  0.00000000000E+00 0.  1.
         11    1    5    5    0    0  0.26594481901E+03  0.12786885302E+03  0.77464685796E+02  0.30508665634E+03  0.00000000000E+00 0. -1.
        -11    1    5    5    0    0  0.22117730256E+03  0.17292470341E+03  0.59712742632E+01  0.28081668101E+03  0.00000000000E+00 0.  1.
          4    1    6    6  503    0 -0.16574168003E+03  0.10680726497E+03 -0.21911592127E+03  0.29477089969E+03  0.00000000000E+00 0. -1.
         -4    1    6    6    0  503 -0.11662418040E+03 -0.43467677521E+00 -0.10334717194E+03  0.15582691149E+03  0.00000000000E+00 0.  1.
<mgrwt>
<rscale>  0 0.17654061E+04</rscale>
<asrwt>0</asrwt>
<pdfrwt beam="1">  1        2 0.16764815E+00 0.17654061E+04</pdfrwt>
<pdfrwt beam="2">  1       -1 0.11000281E+00 0.17654061E+04</pdfrwt>
<totfact> 0.18219763E+01</totfact>
</mgrwt>
</event>
<event>
12    6  0.1395358E-007  0.2006627E+04  0.7818608E-02  0.8603529E-01
         -1   -1    0    0    0  501 -0.00000000000E+00  0.00000000000E+00  0.62758527808E+03  0.62758527808E+03  0.00000000000E+00 0.  1.
          2   -1    0    0  501    0  0.00000000000E+00 -0.00000000000E+00 -0.16039851990E+04  0.16039851990E+04  0.00000000000E+00 0. -1.
         24    2    1    2    0    0  0.53710627832E+03  0.24777573450E+03  0.20609127587E+03  0.63152075471E+03  0.80429353000E+02 0.  0.
        254    2    1    2    0    0 -0.53710627832E+03 -0.24777573450E+03 -0.11824911968E+04  0.16000497224E+04  0.90110915808E+03 0.  0.
         23    2    4    4    0    0 -0.57397683153E+03 -0.40221203352E+03 -0.12230670875E+04  0.14123768275E+04  0.87699938873E+02 0.  0.
         23    2    4    4    0    0  0.36870553203E+02  0.15443629902E+03  0.40575890686E+02  0.18767289490E+03  0.91458758066E+02 0.  0.
          4    1    3    3  502    0  0.19046679668E+03  0.11262616442E+03  0.43589508268E+02  0.22552671412E+03  0.00000000000E+00 0. -1.
         -3    1    3    3    0  502  0.34663948164E+03  0.13514957008E+03  0.16250176760E+03  0.40599404059E+03  0.00000000000E+00 0.  1.
         11    1    5    5    0    0 -0.35201432959E+03 -0.21013212095E+03 -0.77435672590E+03  0.87618373384E+03  0.00000000000E+00 0. -1.
        -11    1    5    5    0    0 -0.22196250194E+03 -0.19207991257E+03 -0.44871036159E+03  0.53619309365E+03  0.00000000000E+00 0.  1.
          3    1    6    6  503    0  0.21502493173E+02  0.24682122640E+02  0.46512660402E+02  0.56876989797E+02  0.00000000000E+00 0. -1.
         -3    1    6    6    0  503  0.15368060030E+02  0.12975417638E+03 -0.59367697160E+01  0.13079590511E+03  0.00000000000E+00 0.  1.
<mgrwt>
<rscale>  0 0.20066265E+04</rscale>
<asrwt>0</asrwt>
<pdfrwt beam="1">  1        2 0.24676695E+00 0.20066265E+04</pdfrwt>
<pdfrwt beam="2">  1       -1 0.96551582E-01 0.20066265E+04</pdfrwt>
<totfact> 0.12115008E+01</totfact>
</mgrwt>
</event>
<event>
12    6  0.1395358E-007  0.1151969E+04  0.7818608E-02  0.9155969E-01
          2   -1    0    0  501    0  0.00000000000E+00  0.00000000000E+00  0.24611665182E+04  0.24611665182E+04  0.00000000000E+00 0. -1.
         -1   -1    0    0    0  501 -0.00000000000E+00 -0.00000000000E+00 -0.13479705635E+03  0.13479705635E+03  0.00000000000E+00 0.  1.
         24    2    1    2    0    0 -0.50714840310E+02  0.18014606210E+03  0.65629962483E+03  0.68684924001E+03  0.77511819987E+02 0.  0.
        254    2    1    2    0    0  0.50714840310E+02 -0.18014606210E+03  0.16700698370E+04  0.19091143346E+04  0.90584749440E+03 0.  0.
         23    2    4    4    0    0 -0.35704952058E+03 -0.25829782405E+03  0.11667804704E+04  0.12504885178E+04  0.90237137978E+02 0.  0.
         23    2    4    4    0    0  0.40776436089E+03  0.78151761948E+02  0.50328936669E+03  0.65862581677E+03  0.90046143636E+02 0.  0.
          4    1    3    3  502    0 -0.13509358877E+02  0.99166966667E+02  0.46724029896E+03  0.47783897605E+03  0.00000000000E+00 0. -1.
         -3    1    3    3    0  502 -0.37205481433E+02  0.80979095435E+02  0.18905932587E+03  0.20901026397E+03  0.00000000000E+00 0.  1.
         11    1    5    5    0    0 -0.14853200467E+03 -0.56686571613E+02  0.37805396246E+03  0.41012183841E+03  0.00000000000E+00 0. -1.
        -11    1    5    5    0    0 -0.20851751591E+03 -0.20161125244E+03  0.78872650789E+03  0.84036667937E+03  0.00000000000E+00 0.  1.
          1    1    6    6  503    0  0.76758541343E+02 -0.19979593760E+02  0.10349518041E+03  0.13039290703E+03  0.00000000000E+00 0. -1.
         -1    1    6    6    0  503  0.33100581955E+03  0.98131355708E+02  0.39979418628E+03  0.52823290974E+03  0.00000000000E+00 0.  1.
<mgrwt>
<rscale>  0 0.11519688E+04</rscale>
<asrwt>0</asrwt>
<pdfrwt beam="1">  1        2 0.37864097E+00 0.11519688E+04</pdfrwt>
<pdfrwt beam="2">  1       -1 0.20738011E-01 0.11519688E+04</pdfrwt>
<totfact> 0.80095782E+01</totfact>
</mgrwt>
</event>
<event>
12    6  0.1395358E-007  0.2492221E+04  0.7818608E-02  0.8405762E-01
          2   -1    0    0  501    0  0.00000000000E+00  0.00000000000E+00  0.19898459526E+04  0.19898459526E+04  0.00000000000E+00 0. -1.
         -1   -1    0    0    0  501 -0.00000000000E+00 -0.00000000000E+00 -0.78035781346E+03  0.78035781346E+03  0.00000000000E+00 0.  1.
         24    2    1    2    0    0  0.10318973145E+04  0.21615725569E+03  0.78478583408E+03  0.13171327433E+04  0.86103608069E+02 0.  0.
        254    2    1    2    0    0 -0.10318973145E+04 -0.21615725569E+03  0.42470230508E+03  0.14530710227E+04  0.90526643722E+03 0.  0.
         23    2    4    4    0    0 -0.41851260384E+03 -0.48867395615E+02 -0.26822253636E+03  0.50803766085E+03  0.92833797187E+02 0.  0.
         23    2    4    4    0    0 -0.61338471065E+03 -0.16728986008E+03  0.69292484144E+03  0.94503336190E+03  0.93362297915E+02 0.  0.
          4    1    3    3  502    0  0.60247977945E+03  0.91004509331E+02  0.48350387448E+03  0.77784298030E+03  0.00000000000E+00 0. -1.
         -3    1    3    3    0  502  0.42941753504E+03  0.12515274636E+03  0.30128195960E+03  0.53928976302E+03  0.00000000000E+00 0.  1.
         11    1    5    5    0    0 -0.97736496600E+02 -0.37935609341E+02 -0.10330474875E+03  0.14718493244E+03  0.00000000000E+00 0. -1.
        -11    1    5    5    0    0 -0.32077610724E+03 -0.10931786274E+02 -0.16491778761E+03  0.36085272841E+03  0.00000000000E+00 0.  1.
          1    1    6    6  503    0 -0.37034025525E+03 -0.94822675206E+02  0.34842543438E+03  0.51724609976E+03  0.00000000000E+00 0. -1.
         -1    1    6    6    0  503 -0.24304445539E+03 -0.72467184869E+02  0.34449940706E+03  0.42778726214E+03  0.00000000000E+00 0.  1.
<mgrwt>
<rscale>  0 0.24922214E+04</rscale>
<asrwt>0</asrwt>
<pdfrwt beam="1">  1        2 0.30613015E+00 0.24922214E+04</pdfrwt>
<pdfrwt beam="2">  1       -1 0.12005505E+00 0.24922214E+04</pdfrwt>
<totfact> 0.42504699E+00</totfact>
</mgrwt>
</event>
<event>
12    6  0.1395358E-007  0.2172647E+04  0.7818608E-02  0.8529900E-01
         -1   -1    0    0    0  501 -0.00000000000E+00  0.00000000000E+00  0.12072344721E+04  0.12072344721E+04  0.00000000000E+00 0.  1.
          2   -1    0    0  501    0  0.00000000000E+00 -0.00000000000E+00 -0.97752249769E+03  0.97752249769E+03  0.00000000000E+00 0. -1.
         24    2    1    2    0    0  0.72352995809E+03  0.36946593319E+03  0.46868113302E+03  0.94130900184E+03  0.79999727823E+02 0.  0.
        254    2    1    2    0    0 -0.72352995809E+03 -0.36946593319E+03 -0.23896915863E+03  0.12434479679E+04  0.91052507607E+03 0.  0.
         23    2    4    4    0    0 -0.86488515643E+03 -0.48983595272E+03 -0.11585752088E+03  0.10047252736E+04  0.89912824315E+02 0.  0.
         23    2    4    4    0    0  0.14135519834E+03  0.12037001952E+03 -0.12311163775E+03  0.23872269429E+03  0.85801024025E+02 0.  0.
          4    1    3    3  502    0  0.43981748862E+03  0.21329963763E+03  0.23782326761E+03  0.54359549789E+03  0.00000000000E+00 0. -1.
         -3    1    3    3    0  502  0.28371246947E+03  0.15616629556E+03  0.23085786541E+03  0.39771350395E+03  0.00000000000E+00 0.  1.
         11    1    5    5    0    0 -0.28291231825E+03 -0.20702835419E+03 -0.27100385547E+02  0.35161705043E+03  0.00000000000E+00 0.  1.
        -11    1    5    5    0    0 -0.58197283818E+03 -0.28280759853E+03 -0.88757135329E+02  0.65310822322E+03  0.00000000000E+00 0. -1.
          3    1    6    6  503    0  0.28937440957E+02  0.20383160534E+01 -0.54359001143E+02  0.61615186657E+02  0.00000000000E+00 0. -1.
         -3    1    6    6    0  503  0.11241775738E+03  0.11833170347E+03 -0.68752636606E+02  0.17710750764E+03  0.00000000000E+00 0.  1.
<mgrwt>
<rscale>  0 0.21726471E+04</rscale>
<asrwt>0</asrwt>
<pdfrwt beam="1">  1        2 0.15038808E+00 0.21726471E+04</pdfrwt>
<pdfrwt beam="2">  1       -1 0.18572838E+00 0.21726471E+04</pdfrwt>
<totfact> 0.51544094E+00</totfact>
</mgrwt>
</event>
<event>
12    6  0.1395358E-007  0.1433086E+04  0.7818608E-02  0.8930211E-01
          2   -1    0    0  501    0  0.00000000000E+00  0.00000000000E+00  0.17529333822E+04  0.17529333822E+04  0.00000000000E+00 0. -1.
         -1   -1    0    0    0  501 -0.00000000000E+00 -0.00000000000E+00 -0.29289990971E+03  0.29289990971E+03  0.00000000000E+00 0.  1.
         24    2    1    2    0    0 -0.16519950184E+03 -0.15283275261E+03 -0.75804440077E+02  0.25067152293E+03  0.80256922410E+02 0.  0.
        254    2    1    2    0    0  0.16519950184E+03  0.15283275261E+03  0.15358379125E+04  0.17951617689E+04  0.90175326860E+03 0.  0.
         23    2    4    4    0    0 -0.77268952554E+02  0.48201711669E+03  0.99419335623E+03  0.11114125467E+04  0.92230296415E+02 0.  0.
         23    2    4    4    0    0  0.24246845439E+03 -0.32918436408E+03  0.54164455631E+03  0.68374922225E+03  0.83551640447E+02 0.  0.
          4    1    3    3  502    0 -0.89471262811E+01  0.89484373616E+01 -0.10561065380E+02  0.16482163143E+02  0.00000000000E+00 0. -1.
         -3    1    3    3    0  502 -0.15625237555E+03 -0.16178118997E+03 -0.65243374697E+02  0.23418935978E+03  0.00000000000E+00 0.  1.
         11    1    5    5    0    0 -0.35459381823E+02  0.48459406087E+02  0.97079903577E+02  0.11414985535E+03  0.00000000000E+00 0.  1.
        -11    1    5    5    0    0 -0.41809570731E+02  0.43355771060E+03  0.89711345265E+03  0.99726269135E+03  0.00000000000E+00 0. -1.
          3    1    6    6  503    0  0.23972843435E+03 -0.30584102668E+03  0.47878255765E+03  0.61663700290E+03  0.00000000000E+00 0. -1.
         -3    1    6    6    0  503  0.27400200392E+01 -0.23343337403E+02  0.62861998659E+02  0.67112219352E+02  0.00000000000E+00 0.  1.
<mgrwt>
<rscale>  0 0.14330862E+04</rscale>
<asrwt>0</asrwt>
<pdfrwt beam="1">  1        2 0.26968205E+00 0.14330862E+04</pdfrwt>
<pdfrwt beam="2">  1       -1 0.45061526E-01 0.14330862E+04</pdfrwt>
<totfact> 0.49519173E+01</totfact>
</mgrwt>
</event>
<event>
12    6  0.1395358E-007  0.4815629E+04  0.7818608E-02  0.7857595E-01
          2   -1    0    0  501    0  0.00000000000E+00  0.00000000000E+00  0.33768536624E+04  0.33768536624E+04  0.00000000000E+00 0. -1.
         -1   -1    0    0    0  501 -0.00000000000E+00 -0.00000000000E+00 -0.17168555289E+04  0.17168555289E+04  0.00000000000E+00 0.  1.
         24    2    1    2    0    0  0.14209556222E+04 -0.18345983432E+04  0.69557819876E+03  0.24238847629E+04  0.80761080074E+02 0.  0.
        254    2    1    2    0    0 -0.14209556222E+04  0.18345983432E+04  0.96441993476E+03  0.26698244285E+04  0.90165997317E+03 0.  0.
         23    2    4    4    0    0 -0.54486020039E+03  0.84912564140E+03 -0.34734413341E+02  0.10134159173E+04  0.88985105552E+02 0.  0.
         23    2    4    4    0    0 -0.87609542180E+03  0.98547270176E+03  0.99915434811E+03  0.16564085112E+04  0.81731943753E+02 0.  0.
          2    1    3    3  502    0  0.83418005122E+03 -0.10138630893E+04  0.40414002392E+03  0.13737189962E+04  0.00000000000E+00 0. -1.
         -1    1    3    3    0  502  0.58677557098E+03 -0.82073525387E+03  0.29143817483E+03  0.10501657666E+04  0.00000000000E+00 0.  1.
         11    1    5    5    0    0 -0.40182421037E+03  0.63381734626E+03 -0.64466829105E+02  0.75322181097E+03  0.00000000000E+00 0.  1.
        -11    1    5    5    0    0 -0.14303599002E+03  0.21530829514E+03  0.29732415764E+02  0.26019410628E+03  0.00000000000E+00 0. -1.
          1    1    6    6  503    0 -0.70316969612E+03  0.82643886810E+03  0.84652949805E+03  0.13762488929E+04  0.00000000000E+00 0. -1.
         -1    1    6    6    0  503 -0.17292572568E+03  0.15903383366E+03  0.15262485005E+03  0.28015961826E+03  0.00000000000E+00 0.  1.
<mgrwt>
<rscale>  0 0.48156287E+04</rscale>
<asrwt>0</asrwt>
<pdfrwt beam="1">  1        2 0.51951595E+00 0.48156287E+04</pdfrwt>
<pdfrwt beam="2">  1       -1 0.26413162E+00 0.48156287E+04</pdfrwt>
<totfact> 0.46717932E-02</totfact>
</mgrwt>
</event>
<event>
12    6  0.1395358E-007  0.2902053E+04  0.7818608E-02  0.8272267E-01
         -1   -1    0    0    0  501 -0.00000000000E+00  0.00000000000E+00  0.96866374303E+03  0.96866374303E+03  0.00000000000E+00 0.  1.
          2   -1    0    0  501    0  0.00000000000E+00 -0.00000000000E+00 -0.21735905969E+04  0.21735905969E+04  0.00000000000E+00 0. -1.
         24    2    1    2    0    0  0.70711554171E+03  0.96817660934E+03 -0.11168608971E+04  0.16403709197E+04  0.77846995247E+02 0.  0.
        254    2    1    2    0    0 -0.70711554171E+03 -0.96817660934E+03 -0.88065956829E+02  0.15018834202E+04  0.90028876426E+03 0.  0.
         23    2    4    4    0    0 -0.56998856842E+03 -0.29214943967E+03 -0.37674306156E+03  0.74859734170E+03  0.90688380377E+02 0.  0.
         23    2    4    4    0    0 -0.13712697330E+03 -0.67602716966E+03  0.28867710474E+03  0.75328607854E+03  0.91043420405E+02 0.  0.
          4    1    3    3  502    0  0.38148777874E+03  0.46376153934E+03 -0.58297636245E+03  0.83694033830E+03  0.00000000000E+00 0. -1.
         -3    1    3    3    0  502  0.32562776298E+03  0.50441506999E+03 -0.53388453462E+03  0.80343058142E+03  0.00000000000E+00 0.  1.
         11    1    5    5    0    0 -0.62963982089E+02 -0.59266952630E+02 -0.73962004075E+02  0.11378669853E+03  0.00000000000E+00 0.  1.
        -11    1    5    5    0    0 -0.50702458633E+03 -0.23288248704E+03 -0.30278105749E+03  0.63481064318E+03  0.00000000000E+00 0. -1.
          4    1    6    6  503    0 -0.18289565887E+02 -0.31826051230E+03  0.13097459161E+03  0.34464272161E+03  0.00000000000E+00 0. -1.
         -4    1    6    6    0  503 -0.11883740741E+03 -0.35776665736E+03  0.15770251312E+03  0.40864335693E+03  0.00000000000E+00 0.  1.
<mgrwt>
<rscale>  0 0.29020533E+04</rscale>
<asrwt>0</asrwt>
<pdfrwt beam="1">  1        2 0.33439855E+00 0.29020533E+04</pdfrwt>
<pdfrwt beam="2">  1       -1 0.14902519E+00 0.29020533E+04</pdfrwt>
<totfact> 0.18618472E+00</totfact>
</mgrwt>
</event>
<event>
12    6  0.1395358E-007  0.1809780E+04  0.7818608E-02  0.8701116E-01
          4   -1    0    0  501    0  0.00000000000E+00  0.00000000000E+00  0.88532931407E+03  0.88532931407E+03  0.00000000000E+00 0. -1.
         -3   -1    0    0    0  501 -0.00000000000E+00 -0.00000000000E+00 -0.92488284582E+03  0.92488284582E+03  0.00000000000E+00 0.  1.
         24    2    1    2    0    0 -0.12414441763E+02  0.67078692590E+03 -0.12032615299E+03  0.68486752679E+03  0.66752736533E+02 0.  0.
        254    2    1    2    0    0  0.12414441763E+02 -0.67078692590E+03  0.80772621237E+02  0.11253446331E+04  0.89987060658E+03 0.  0.
         23    2    4    4    0    0 -0.19779938154E+03 -0.71697908433E+03 -0.18462702290E+03  0.77170161518E+03  0.90844056380E+02 0.  0.
         23    2    4    4    0    0  0.21021382330E+03  0.46192158432E+02  0.26539964414E+03  0.35364301792E+03  0.91119953953E+02 0.  0.
          4    1    3    3  502    0 -0.33344449521E+02  0.37932847965E+03 -0.47688952478E+02  0.38376579313E+03  0.00000000000E+00 0. -1.
         -3    1    3    3    0  502  0.20930007757E+02  0.29145844625E+03 -0.72637200512E+02  0.30110173366E+03  0.00000000000E+00 0.  1.
         11    1    5    5    0    0 -0.17716578526E+02 -0.45253824524E+02  0.98270115697E+01  0.49581810627E+02  0.00000000000E+00 0. -1.
        -11    1    5    5    0    0 -0.18008280301E+03 -0.67172525981E+03 -0.19445403447E+03  0.72211980455E+03  0.00000000000E+00 0.  1.
          4    1    6    6  503    0  0.73431737109E+02 -0.25564647919E+02  0.10836461891E+03  0.13337414243E+03  0.00000000000E+00 0. -1.
         -4    1    6    6    0  503  0.13678208619E+03  0.71756806352E+02  0.15703502523E+03  0.22026887549E+03  0.00000000000E+00 0.  1.
<mgrwt>
<rscale>  0 0.18097800E+04</rscale>
<asrwt>0</asrwt>
<pdfrwt beam="1">  1        4 0.13620451E+00 0.18097800E+04</pdfrwt>
<pdfrwt beam="2">  1       -3 0.14228967E+00 0.18097800E+04</pdfrwt>
<totfact> 0.30602456E-01</totfact>
</mgrwt>
</event>
<event>
12    6  0.1395358E-007  0.1486054E+04  0.7818608E-02  0.8893780E-01
         -1   -1    0    0    0  501 -0.00000000000E+00  0.00000000000E+00  0.30362741257E+03  0.30362741257E+03  0.00000000000E+00 0.  1.
          2   -1    0    0  501    0  0.00000000000E+00 -0.00000000000E+00 -0.18183108574E+04  0.18183108574E+04  0.00000000000E+00 0. -1.
         24    2    1    2    0    0 -0.42813205930E+03 -0.21654787733E+02 -0.74230442306E+03  0.86090637451E+03  0.79862000668E+02 0.  0.
        254    2    1    2    0    0  0.42813205930E+03  0.21654787733E+02 -0.77237902172E+03  0.12610318954E+04  0.89992560695E+03 0.  0.
         23    2    4    4    0    0 -0.21755455779E+03 -0.15734788764E+03 -0.83783426853E+02  0.29587238861E+03  0.91828450749E+02 0.  0.
         23    2    4    4    0    0  0.64568661709E+03  0.17900267537E+03 -0.68859559486E+03  0.96515950680E+03  0.91737751435E+02 0.  0.
          4    1    3    3  502    0 -0.27797255354E+03  0.31101328182E+01 -0.54422553507E+03  0.61111361175E+03  0.00000000000E+00 0. -1.
         -3    1    3    3    0  502 -0.15015950576E+03 -0.24764920551E+02 -0.19807888799E+03  0.24979276276E+03  0.00000000000E+00 0.  1.
         11    1    5    5    0    0  0.92579176491E+01 -0.73360768417E+01 -0.28465379675E+01  0.12150302096E+02  0.00000000000E+00 0.  1.
        -11    1    5    5    0    0 -0.22681247544E+03 -0.15001181080E+03 -0.80936888885E+02  0.28372208651E+03  0.00000000000E+00 0. -1.
          1    1    6    6  503    0  0.62864846753E+03  0.15609583359E+03 -0.66017376213E+03  0.92487523548E+03  0.00000000000E+00 0. -1.
         -1    1    6    6    0  503  0.17038149555E+02  0.22906841780E+02 -0.28421832728E+02  0.40284271325E+02  0.00000000000E+00 0.  1.
<mgrwt>
<rscale>  0 0.14860539E+04</rscale>
<asrwt>0</asrwt>
<pdfrwt beam="1">  1        2 0.27974013E+00 0.14860539E+04</pdfrwt>
<pdfrwt beam="2">  1       -1 0.46711910E-01 0.14860539E+04</pdfrwt>
<totfact> 0.42408722E+01</totfact>
</mgrwt>
</event>
<event>
12    6  0.1395358E-007  0.2041337E+04  0.7818608E-02  0.8587534E-01
          2   -1    0    0  501    0  0.00000000000E+00  0.00000000000E+00  0.15200754106E+04  0.15200754106E+04  0.00000000000E+00 0. -1.
         -1   -1    0    0    0  501 -0.00000000000E+00 -0.00000000000E+00 -0.68533729723E+03  0.68533729723E+03  0.00000000000E+00 0.  1.
         24    2    1    2    0    0  0.54612492281E+02 -0.34323487469E+03  0.11377692132E+04  0.11920860409E+04  0.75879132949E+02 0.  0.
        254    2    1    2    0    0 -0.54612492281E+02  0.34323487469E+03 -0.30303109983E+03  0.10133266670E+04  0.90233606988E+03 0.  0.
         23    2    4    4    0    0 -0.20162868475E+02  0.24375812467E+03  0.29792667410E+03  0.39636018610E+03  0.92285044186E+02 0.  0.
         23    2    4    4    0    0 -0.34449623806E+02  0.99476750013E+02 -0.60095777392E+03  0.61696648086E+03  0.91733266032E+02 0.  0.
          2    1    3    3  502    0 -0.12264772585E+00 -0.13689377433E+03  0.54899860112E+03  0.56580861121E+03  0.00000000000E+00 0. -1.
         -1    1    3    3    0  502  0.54735140007E+02 -0.20634110035E+03  0.58877061211E+03  0.62627742969E+03  0.00000000000E+00 0.  1.
         11    1    5    5    0    0 -0.17094361972E+02  0.18137036016E+01  0.35291341580E+02  0.39255388452E+02  0.00000000000E+00 0.  1.
        -11    1    5    5    0    0 -0.30685065030E+01  0.24194442107E+03  0.26263533252E+03  0.35710479765E+03  0.00000000000E+00 0. -1.
          4    1    6    6  503    0 -0.75575364639E+01  0.10792978052E+03 -0.52286363208E+03  0.53394038209E+03  0.00000000000E+00 0. -1.
         -4    1    6    6    0  503 -0.26892087342E+02 -0.84530305079E+01 -0.78094141847E+02  0.83026098771E+02  0.00000000000E+00 0.  1.
<mgrwt>
<rscale>  0 0.20413372E+04</rscale>
<asrwt>0</asrwt>
<pdfrwt beam="1">  1        2 0.23385775E+00 0.20413372E+04</pdfrwt>
<pdfrwt beam="2">  1       -1 0.10543651E+00 0.20413372E+04</pdfrwt>
<totfact> 0.11000150E+01</totfact>
</mgrwt>
</event>
<event>
12    6  0.1395358E-007  0.1502604E+04  0.7818608E-02  0.8882723E-01
          2   -1    0    0  501    0  0.00000000000E+00  0.00000000000E+00  0.35343853042E+03  0.35343853042E+03  0.00000000000E+00 0. -1.
         -1   -1    0    0    0  501 -0.00000000000E+00 -0.00000000000E+00 -0.15970368163E+04  0.15970368163E+04  0.00000000000E+00 0.  1.
         24    2    1    2    0    0  0.43374902167E+03 -0.16033750103E+03 -0.54840273630E+03  0.72146776661E+03  0.76966544877E+02 0.  0.
        254    2    1    2    0    0 -0.43374902167E+03  0.16033750103E+03 -0.69519554955E+03  0.12290075801E+04  0.90184059111E+03 0.  0.
         23    2    4    4    0    0 -0.60281616029E+03  0.37855134323E+03 -0.43744080031E+03  0.84045419656E+03  0.91216008289E+02 0.  0.
         23    2    4    4    0    0  0.16906713862E+03 -0.21821384220E+03 -0.25775474925E+03  0.38855338353E+03  0.91297550932E+02 0.  0.
          4    1    3    3  502    0  0.14921842893E+03 -0.33184966022E+02 -0.13640001914E+03  0.20487153712E+03  0.00000000000E+00 0. -1.
         -3    1    3    3    0  502  0.28453059274E+03 -0.12715253501E+03 -0.41200271717E+03  0.51659622948E+03  0.00000000000E+00 0.  1.
         11    1    5    5    0    0 -0.24299037044E+03  0.10473540089E+03 -0.18169240698E+03  0.32097656469E+03  0.00000000000E+00 0.  1.
        -11    1    5    5    0    0 -0.35982578986E+03  0.27381594234E+03 -0.25574839333E+03  0.51947763187E+03  0.00000000000E+00 0. -1.
          4    1    6    6  503    0 -0.52561453231E+01 -0.43803049120E+02 -0.36782911088E+02  0.57439679003E+02  0.00000000000E+00 0.  1.
         -4    1    6    6    0  503  0.17432328395E+03 -0.17441079308E+03 -0.22097183816E+03  0.33111370453E+03  0.00000000000E+00 0. -1.
<mgrwt>
<rscale>  0 0.15026035E+04</rscale>
<asrwt>0</asrwt>
<pdfrwt beam="1">  1        2 0.54375160E-01 0.15026035E+04</pdfrwt>
<pdfrwt beam="2">  1       -1 0.24569797E+00 0.15026035E+04</pdfrwt>
<totfact> 0.75208182E+00</totfact>
</mgrwt>
</event>
<event>
12    6  0.1395358E-007  0.1875705E+04  0.7818608E-02  0.8667045E-01
          2   -1    0    0  501    0  0.00000000000E+00  0.00000000000E+00  0.78594675949E+03  0.78594675949E+03  0.00000000000E+00 0. -1.
         -1   -1    0    0    0  501 -0.00000000000E+00 -0.00000000000E+00 -0.11191184917E+04  0.11191184917E+04  0.00000000000E+00 0.  1.
         24    2    1    2    0    0 -0.55785049629E+03  0.35263731954E+03  0.16132629527E+03  0.68404492024E+03  0.79630546985E+02 0.  0.
        254    2    1    2    0    0  0.55785049629E+03 -0.35263731954E+03 -0.49449802747E+03  0.12210203310E+04  0.90045105035E+03 0.  0.
         23    2    4    4    0    0  0.54461816094E+03  0.16170343540E+03 -0.36736055286E+03  0.68307256948E+03  0.94220046370E+02 0.  0.
         23    2    4    4    0    0  0.13232335350E+02 -0.51434075494E+03 -0.12713747462E+03  0.53794776147E+03  0.92208186862E+02 0.  0.
          2    1    3    3  502    0 -0.21795416068E+02  0.19706458849E+02  0.24719472592E+02  0.38398398498E+02  0.00000000000E+00 0. -1.
         -1    1    3    3    0  502 -0.53605508022E+03  0.33293086069E+03  0.13660682268E+03  0.64564652174E+03  0.00000000000E+00 0.  1.
         11    1    5    5    0    0  0.10197936632E+03  0.14955064632E+02 -0.29485201221E+02  0.10720458108E+03  0.00000000000E+00 0. -1.
        -11    1    5    5    0    0  0.44263879462E+03  0.14674837077E+03 -0.33787535164E+03  0.57586798841E+03  0.00000000000E+00 0.  1.
          1    1    6    6  503    0  0.30437457041E+02 -0.73508247567E+02 -0.36645294575E+02  0.87594399741E+02  0.00000000000E+00 0. -1.
         -1    1    6    6    0  503 -0.17205121691E+02 -0.44083250738E+03 -0.90492180040E+02  0.45035336173E+03  0.00000000000E+00 0.  1.
<mgrwt>
<rscale>  0 0.18757053E+04</rscale>
<asrwt>0</asrwt>
<pdfrwt beam="1">  1        2 0.12091489E+00 0.18757053E+04</pdfrwt>
<pdfrwt beam="2">  1       -1 0.17217208E+00 0.18757053E+04</pdfrwt>
<totfact> 0.89597726E+00</totfact>
</mgrwt>
</event>
<event>
12    6  0.1395358E-007  0.1370090E+04  0.7818608E-02  0.8975758E-01
         -1   -1    0    0    0  501 -0.00000000000E+00  0.00000000000E+00  0.61754775260E+03  0.61754775260E+03  0.00000000000E+00 0.  1.
          2   -1    0    0  501    0  0.00000000000E+00 -0.00000000000E+00 -0.75992010685E+03  0.75992010685E+03  0.00000000000E+00 0. -1.
         24    2    1    2    0    0  0.41565549533E+02 -0.26617635413E+03 -0.31710725017E+03  0.42288063827E+03  0.75455150307E+02 0.  0.
        254    2    1    2    0    0 -0.41565549533E+02  0.26617635413E+03  0.17473489592E+03  0.95458722118E+03  0.89895880472E+03 0.  0.
         23    2    4    4    0    0 -0.37094299945E+03  0.22121125877E+03 -0.16487536136E+03  0.47084534438E+03  0.89321462686E+02 0.  0.
         23    2    4    4    0    0  0.32937744992E+03  0.44965095360E+02  0.33961025728E+03  0.48374187679E+03  0.90331125279E+02 0.  0.
          4    1    3    3  502    0 -0.69181479361E+01 -0.12462924372E+03 -0.18567395428E+03  0.22373003031E+03  0.00000000000E+00 0. -1.
         -3    1    3    3    0  502  0.48483697469E+02 -0.14154711041E+03 -0.13143329589E+03  0.19915060796E+03  0.00000000000E+00 0.  1.
         11    1    5    5    0    0 -0.10524604160E+03  0.96276591055E+02 -0.87042006227E+02  0.16709943778E+03  0.00000000000E+00 0.  1.
        -11    1    5    5    0    0 -0.26569695786E+03  0.12493466771E+03 -0.77833355133E+02  0.30374590661E+03  0.00000000000E+00 0. -1.
          1    1    6    6  503    0  0.22706296411E+03  0.34407224158E+02  0.17135654863E+03  0.28653885165E+03  0.00000000000E+00 0. -1.
         -1    1    6    6    0  503  0.10231448581E+03  0.10557871202E+02  0.16825370865E+03  0.19720302514E+03  0.00000000000E+00 0.  1.
<mgrwt>
<rscale>  0 0.13700904E+04</rscale>
<asrwt>0</asrwt>
<pdfrwt beam="1">  1        2 0.11691079E+00 0.13700904E+04</pdfrwt>
<pdfrwt beam="2">  1       -1 0.95007347E-01 0.13700904E+04</pdfrwt>
<totfact> 0.43976171E+01</totfact>
</mgrwt>
</event>
<event>
12    6  0.1395358E-007  0.3972718E+04  0.7818608E-02  0.8010073E-01
          2   -1    0    0  501    0  0.00000000000E+00  0.00000000000E+00  0.24831658163E+04  0.24831658163E+04  0.00000000000E+00 0. -1.
         -1   -1    0    0    0  501 -0.00000000000E+00 -0.00000000000E+00 -0.15889483325E+04  0.15889483325E+04  0.00000000000E+00 0.  1.
         24    2    1    2    0    0  0.16334153779E+04  0.36353764067E+03 -0.46284717663E+03  0.17381289999E+04  0.81605750955E+02 0.  0.
        254    2    1    2    0    0 -0.16334153779E+04 -0.36353764067E+03  0.13570646605E+04  0.23339851489E+04  0.89758385096E+03 0.  0.
         23    2    4    4    0    0 -0.97061101145E+03 -0.10373984250E+03  0.24690425916E+03  0.10111645114E+04  0.92974541991E+02 0.  0.
         23    2    4    4    0    0 -0.66280436643E+03 -0.25979779818E+03  0.11101604013E+04  0.13228206375E+04  0.10292617811E+03 0.  0.
          2    1    3    3  502    0  0.87618246368E+03  0.15344765541E+03 -0.24201552388E+03  0.92185324560E+03  0.00000000000E+00 0. -1.
         -1    1    3    3    0  502  0.75723291419E+03  0.21008998527E+03 -0.22083165275E+03  0.81627575433E+03  0.00000000000E+00 0.  1.
         11    1    5    5    0    0 -0.89124227189E+03 -0.78493123326E+02  0.20477061945E+03  0.91782621678E+03  0.00000000000E+00 0. -1.
        -11    1    5    5    0    0 -0.79368739555E+02 -0.25246719169E+02  0.42133639710E+02  0.93338294620E+02  0.00000000000E+00 0.  1.
          4    1    6    6  503    0 -0.55495013985E+03 -0.17603495959E+03  0.87855393246E+03  0.10539520753E+04  0.00000000000E+00 0. -1.
         -4    1    6    6    0  503 -0.10785422658E+03 -0.83762838586E+02  0.23160646885E+03  0.26886856218E+03  0.00000000000E+00 0.  1.
<mgrwt>
<rscale>  0 0.39727181E+04</rscale>
<asrwt>0</asrwt>
<pdfrwt beam="1">  1        2 0.38202551E+00 0.39727181E+04</pdfrwt>
<pdfrwt beam="2">  1       -1 0.24445359E+00 0.39727181E+04</pdfrwt>
<totfact> 0.24250026E-01</totfact>
</mgrwt>
</event>
<event>
12    6  0.1395358E-007  0.1636056E+04  0.7818608E-02  0.8798699E-01
         -1   -1    0    0    0  501 -0.00000000000E+00  0.00000000000E+00  0.31891052690E+03  0.31891052690E+03  0.00000000000E+00 0.  1.
          2   -1    0    0  501    0  0.00000000000E+00 -0.00000000000E+00 -0.20982985698E+04  0.20982985698E+04  0.00000000000E+00 0. -1.
         24    2    1    2    0    0 -0.14942447388E+03  0.15040271424E+03 -0.14003464811E+04  0.14185481354E+04  0.79748953796E+02 0.  0.
        254    2    1    2    0    0  0.14942447388E+03 -0.15040271424E+03 -0.37904156181E+03  0.99866096126E+03  0.89927891119E+03 0.  0.
         23    2    4    4    0    0 -0.91238808628E+02 -0.44161225243E+03 -0.39952330972E+03  0.60931848038E+03  0.91127568932E+02 0.  0.
         23    2    4    4    0    0  0.24066328251E+03  0.29120953820E+03  0.20481747908E+02  0.38934248088E+03  0.91903507726E+02 0.  0.
          4    1    3    3  502    0 -0.10171742852E+03  0.12464779953E+03 -0.12094058533E+04  0.12200598458E+04  0.00000000000E+00 0. -1.
         -3    1    3    3    0  502 -0.47707045365E+02  0.25754914707E+02 -0.19094062775E+03  0.19848828967E+03  0.00000000000E+00 0.  1.
         11    1    5    5    0    0 -0.25131987380E+02 -0.31964178003E+03 -0.29397768663E+03  0.43500041904E+03  0.00000000000E+00 0.  1.
        -11    1    5    5    0    0 -0.66106821248E+02 -0.12197047240E+03 -0.10554562309E+03  0.17431806133E+03  0.00000000000E+00 0. -1.
          2    1    6    6  503    0  0.20761581495E+02  0.10317730385E+02 -0.19610567172E+02  0.30365657762E+02  0.00000000000E+00 0. -1.
         -2    1    6    6    0  503  0.21990170102E+03  0.28089180781E+03  0.40092315080E+02  0.35897682312E+03  0.00000000000E+00 0.  1.
<mgrwt>
<rscale>  0 0.16360556E+04</rscale>
<asrwt>0</asrwt>
<pdfrwt beam="1">  1        2 0.32281517E+00 0.16360556E+04</pdfrwt>
<pdfrwt beam="2">  1       -1 0.49063158E-01 0.16360556E+04</pdfrwt>
<totfact> 0.26698277E+01</totfact>
</mgrwt>
</event>
<event>
12    6  0.1395358E-007  0.1252613E+04  0.7818608E-02  0.9068011E-01
          2   -1    0    0  501    0  0.00000000000E+00  0.00000000000E+00  0.19552221530E+04  0.19552221530E+04  0.00000000000E+00 0. -1.
         -1   -1    0    0    0  501 -0.00000000000E+00 -0.00000000000E+00 -0.20062168735E+03  0.20062168735E+03  0.00000000000E+00 0.  1.
         24    2    1    2    0    0  0.20335900657E+03  0.43542084970E+02  0.58729911202E+02  0.22529765197E+03  0.63710523449E+02 0.  0.
        254    2    1    2    0    0 -0.20335900657E+03 -0.43542084970E+02  0.16958705544E+04  0.19305461884E+04  0.89876629292E+03 0.  0.
         23    2    4    4    0    0 -0.11549295792E+03  0.26619999878E+03  0.15212021995E+04  0.15512780427E+04  0.90589025321E+02 0.  0.
         23    2    4    4    0    0 -0.87866048646E+02 -0.30974208375E+03  0.17466835497E+03  0.37926814563E+03  0.98360007691E+02 0.  0.
          4    1    3    3  502    0  0.68359238468E+02 -0.95720013320E+01  0.37872798221E+02  0.78733458825E+02  0.00000000000E+00 0. -1.
         -1    1    3    3    0  502  0.13499976810E+03  0.53114086302E+02  0.20857112980E+02  0.14656419315E+03  0.00000000000E+00 0.  1.
         11    1    5    5    0    0 -0.18423200762E+02  0.36340685068E+02  0.94318329193E+02  0.10274243008E+03  0.00000000000E+00 0.  1.
        -11    1    5    5    0    0 -0.97069757161E+02  0.22985931371E+03  0.14268838703E+04  0.14485356127E+04  0.00000000000E+00 0. -1.
          3    1    6    6  503    0 -0.95514155152E+02 -0.28448441244E+03  0.12925414368E+03  0.32674296995E+03  0.00000000000E+00 0. -1.
         -3    1    6    6    0  503  0.76481065063E+01 -0.25257671313E+02  0.45414211289E+02  0.52525175681E+02  0.00000000000E+00 0.  1.
<mgrwt>
<rscale>  0 0.12526132E+04</rscale>
<asrwt>0</asrwt>
<pdfrwt beam="1">  1        2 0.30080340E+00 0.12526132E+04</pdfrwt>
<pdfrwt beam="2">  1       -1 0.30864876E-01 0.12526132E+04</pdfrwt>
<totfact> 0.76988798E+01</totfact>
</mgrwt>
</event>
<event>
12    6  0.1395358E-007  0.2725984E+04  0.7818608E-02  0.8326623E-01
         -1   -1    0    0    0  501 -0.00000000000E+00  0.00000000000E+00  0.13933481126E+04  0.13933481126E+04  0.00000000000E+00 0.  1.
          2   -1    0    0  501    0  0.00000000000E+00 -0.00000000000E+00 -0.13332976154E+04  0.13332976154E+04  0.00000000000E+00 0. -1.
         24    2    1    2    0    0  0.42969271541E+03 -0.93119223926E+03 -0.62163177604E+03  0.12019924844E+04  0.81271468110E+02 0.  0.
        254    2    1    2    0    0 -0.42969271541E+03  0.93119223926E+03  0.68168227314E+03  0.15246532436E+04  0.89895604757E+03 0.  0.
         23    2    4    4    0    0  0.53752447303E+02  0.81783744789E+03  0.25312955412E+03  0.86257454066E+03  0.90624777341E+02 0.  0.
         23    2    4    4    0    0 -0.48344516272E+03  0.11335479137E+03  0.42855271902E+03  0.66207870290E+03  0.90123480706E+02 0.  0.
          4    1    3    3  502    0  0.35139441677E+03 -0.69559687863E+03 -0.49577166856E+03  0.92364636146E+03  0.00000000000E+00 0. -1.
         -3    1    3    3    0  502  0.78298298646E+02 -0.23559536063E+03 -0.12586010747E+03  0.27834612297E+03  0.00000000000E+00 0.  1.
         11    1    5    5    0    0  0.24453984195E+02  0.72821968367E+03  0.20614156917E+03  0.75722932561E+03  0.00000000000E+00 0. -1.
        -11    1    5    5    0    0  0.29298463108E+02  0.89617764222E+02  0.46987984953E+02  0.10534521505E+03  0.00000000000E+00 0.  1.
          4    1    6    6  503    0 -0.41950661206E+03  0.91419815095E+02  0.32530456892E+03  0.53867099673E+03  0.00000000000E+00 0. -1.
         -4    1    6    6    0  503 -0.63938550659E+02  0.21934976273E+02  0.10324815010E+03  0.12340770618E+03  0.00000000000E+00 0.  1.
<mgrwt>
<rscale>  0 0.27259844E+04</rscale>
<asrwt>0</asrwt>
<pdfrwt beam="1">  1        2 0.20512271E+00 0.27259844E+04</pdfrwt>
<pdfrwt beam="2">  1       -1 0.21436125E+00 0.27259844E+04</pdfrwt>
<totfact> 0.18936790E+00</totfact>
</mgrwt>
</event>
<event>
12    6  0.1395358E-007  0.3167913E+04  0.7818608E-02  0.8197343E-01
         -1   -1    0    0    0  501 -0.00000000000E+00  0.00000000000E+00  0.25780746603E+04  0.25780746603E+04  0.00000000000E+00 0.  1.
          2   -1    0    0  501    0  0.00000000000E+00 -0.00000000000E+00 -0.97317524024E+03  0.97317524024E+03  0.00000000000E+00 0. -1.
         24    2    1    2    0    0  0.32364392264E+03  0.44836688617E+03  0.22465210700E+04  0.23149972340E+04  0.81098841164E+02 0.  0.
        254    2    1    2    0    0 -0.32364392264E+03 -0.44836688617E+03 -0.64162164994E+03  0.12362526666E+04  0.90047990577E+03 0.  0.
         23    2    4    4    0    0  0.30405528334E+03 -0.18289605387E+03 -0.23590152986E+03  0.43785996890E+03  0.10085255937E+03 0.  0.
         23    2    4    4    0    0 -0.62769920598E+03 -0.26547083230E+03 -0.40572012008E+03  0.79839269768E+03  0.91329228006E+02 0.  0.
          2    1    3    3  502    0  0.28848415227E+03  0.34588599870E+03  0.18312523257E+04  0.18858274870E+04  0.00000000000E+00 0. -1.
         -1    1    3    3    0  502  0.35159770375E+02  0.10248088747E+03  0.41526874432E+03  0.42916974702E+03  0.00000000000E+00 0.  1.
         11    1    5    5    0    0  0.78808552940E+02 -0.10086803011E+03 -0.65831256092E+02  0.14394061899E+03  0.00000000000E+00 0.  1.
        -11    1    5    5    0    0  0.22524673040E+03 -0.82028023751E+02 -0.17007027377E+03  0.29391934992E+03  0.00000000000E+00 0. -1.
          3    1    6    6  503    0 -0.13197715501E+03 -0.96226825772E+02 -0.10916713625E+03  0.19645619125E+03  0.00000000000E+00 0. -1.
         -3    1    6    6    0  503 -0.49572205097E+03 -0.16924400653E+03 -0.29655298383E+03  0.60193650643E+03  0.00000000000E+00 0.  1.
<mgrwt>
<rscale>  0 0.31679131E+04</rscale>
<asrwt>0</asrwt>
<pdfrwt beam="1">  1        2 0.14971927E+00 0.31679131E+04</pdfrwt>
<pdfrwt beam="2">  1       -1 0.39662687E+00 0.31679131E+04</pdfrwt>
<totfact> 0.19013195E-01</totfact>
</mgrwt>
</event>
<event>
12    6  0.1395358E-007  0.1822294E+04  0.7818608E-02  0.8694533E-01
         -3   -1    0    0    0  501 -0.00000000000E+00  0.00000000000E+00  0.81064558976E+03  0.81064558976E+03  0.00000000000E+00 0.  1.
          2   -1    0    0  501    0  0.00000000000E+00 -0.00000000000E+00 -0.10241087876E+04  0.10241087876E+04  0.00000000000E+00 0. -1.
         24    2    1    2    0    0  0.36025626754E+03  0.54975471975E+03 -0.27685313091E+03  0.71730467899E+03  0.76573599974E+02 0.  0.
        254    2    1    2    0    0 -0.36025626754E+03 -0.54975471975E+03  0.63389933104E+02  0.11174496983E+04  0.90147696283E+03 0.  0.
         23    2    4    4    0    0 -0.60535906326E+03 -0.42202125886E+03  0.23451430582E+03  0.77982172422E+03  0.92538767744E+02 0.  0.
         23    2    4    4    0    0  0.24510279572E+03 -0.12773346089E+03 -0.17112437272E+03  0.33762797412E+03  0.91202414821E+02 0.  0.
          2    1    3    3  502    0  0.26217256669E+03  0.45376978142E+03 -0.22973520665E+03  0.57220602447E+03  0.00000000000E+00 0. -1.
         -1    1    3    3    0  502  0.98083700849E+02  0.95984938325E+02 -0.47117924256E+02  0.14509865452E+03  0.00000000000E+00 0.  1.
         11    1    5    5    0    0 -0.54891181137E+03 -0.39677078231E+03  0.23797329102E+03  0.71788753827E+03  0.00000000000E+00 0.  1.
        -11    1    5    5    0    0 -0.56447251888E+02 -0.25250476547E+02 -0.34589851961E+01  0.61934185957E+02  0.00000000000E+00 0. -1.
          3    1    6    6  503    0  0.41869246149E+02 -0.55779495009E+02 -0.14735671885E+02  0.71284822104E+02  0.00000000000E+00 0. -1.
         -3    1    6    6    0  503  0.20323354957E+03 -0.71953965882E+02 -0.15638870083E+03  0.26634315201E+03  0.00000000000E+00 0.  1.
<mgrwt>
<rscale>  0 0.18222945E+04</rscale>
<asrwt>0</asrwt>
<pdfrwt beam="1">  1        2 0.15755520E+00 0.18222945E+04</pdfrwt>
<pdfrwt beam="2">  1       -3 0.12471471E+00 0.18222945E+04</pdfrwt>
<totfact> 0.74560748E+00</totfact>
</mgrwt>
</event>
<event>
12    6  0.1395358E-007  0.1175491E+04  0.7818608E-02  0.9134584E-01
          2   -1    0    0  501    0  0.00000000000E+00  0.00000000000E+00  0.10208661859E+04  0.10208661859E+04  0.00000000000E+00 0. -1.
         -1   -1    0    0    0  501 -0.00000000000E+00 -0.00000000000E+00 -0.33838404857E+03  0.33838404857E+03  0.00000000000E+00 0.  1.
         24    2    1    2    0    0 -0.12472530697E+03 -0.18524642734E+02  0.36849558673E+03  0.39746502036E+03  0.79308766151E+02 0.  0.
        254    2    1    2    0    0  0.12472530697E+03  0.18524642734E+02  0.31398655063E+03  0.96178521413E+03  0.90030199353E+03 0.  0.
         23    2    4    4    0    0  0.23456723492E+03  0.28980076636E+03  0.47909041961E+03  0.61390253271E+03  0.91336836033E+02 0.  0.
         23    2    4    4    0    0 -0.10984192795E+03 -0.27127612363E+03 -0.16510386898E+03  0.34788268142E+03  0.90039369682E+02 0.  0.
          4    1    3    3  502    0 -0.12462490750E+03 -0.21105445707E+01  0.35490001652E+03  0.37615135742E+03  0.00000000000E+00 0. -1.
         -3    1    3    3    0  502 -0.10039946896E+00 -0.16414098163E+02  0.13595570208E+02  0.21313662938E+02  0.00000000000E+00 0.  1.
         11    1    5    5    0    0  0.20180959481E+03  0.23600700479E+03  0.44397051787E+03  0.54178984819E+03  0.00000000000E+00 0. -1.
        -11    1    5    5    0    0  0.32757640109E+02  0.53793761569E+02  0.35119901747E+02  0.72112684515E+02  0.00000000000E+00 0.  1.
          2    1    6    6  503    0 -0.11287330846E+03 -0.20644242706E+03 -0.15609650882E+03  0.28235612180E+03  0.00000000000E+00 0. -1.
         -2    1    6    6    0  503  0.30313805074E+01 -0.64833696567E+02 -0.90073601619E+01  0.65526559618E+02  0.00000000000E+00 0.  1.
<mgrwt>
<rscale>  0 0.11754911E+04</rscale>
<asrwt>0</asrwt>
<pdfrwt beam="1">  1        2 0.15705633E+00 0.11754911E+04</pdfrwt>
<pdfrwt beam="2">  1       -1 0.52059085E-01 0.11754911E+04</pdfrwt>
<totfact> 0.10227003E+02</totfact>
</mgrwt>
</event>
<event>
12    6  0.1395358E-007  0.1648307E+04  0.7818608E-02  0.8791409E-01
          2   -1    0    0  501    0  0.00000000000E+00  0.00000000000E+00  0.12169331743E+04  0.12169331743E+04  0.00000000000E+00 0. -1.
         -1   -1    0    0    0  501 -0.00000000000E+00 -0.00000000000E+00 -0.55814781864E+03  0.55814781864E+03  0.00000000000E+00 0.  1.
         24    2    1    2    0    0 -0.43342486629E+03  0.27591857507E+03  0.50212074031E+03  0.72282661032E+03  0.79780297996E+02 0.  0.
        254    2    1    2    0    0  0.43342486629E+03 -0.27591857507E+03  0.15666461532E+03  0.10522543826E+04  0.90482446319E+03 0.  0.
         23    2    4    4    0    0  0.63956793712E+03 -0.42146404279E+03  0.97498665058E+02  0.77772759575E+03  0.93140420568E+02 0.  0.
         23    2    4    4    0    0 -0.20614307083E+03  0.14554546772E+03  0.59165950264E+02  0.27452678683E+03  0.90475953673E+02 0.  0.
          4    1    3    3  502    0 -0.17034918924E+03  0.15480549602E+03  0.21353070652E+03  0.31397284995E+03  0.00000000000E+00 0. -1.
         -3    1    3    3    0  502 -0.26307567705E+03  0.12111307905E+03  0.28859003378E+03  0.40885376037E+03  0.00000000000E+00 0.  1.
         11    1    5    5    0    0  0.34063027304E+02 -0.48244087215E+02 -0.42015332954E+01  0.59206711295E+02  0.00000000000E+00 0.  1.
        -11    1    5    5    0    0  0.60550490982E+03 -0.37321995557E+03  0.10170019835E+03  0.71852088446E+03  0.00000000000E+00 0. -1.
          3    1    6    6  503    0 -0.17294595201E+03  0.14857270883E+03  0.29495979988E+02  0.22990033702E+03  0.00000000000E+00 0. -1.
         -3    1    6    6    0  503 -0.33197118817E+02 -0.30272411137E+01  0.29669970276E+02  0.44626449810E+02  0.00000000000E+00 0.  1.
<mgrwt>
<rscale>  0 0.16483065E+04</rscale>
<asrwt>0</asrwt>
<pdfrwt beam="1">  1        2 0.18722049E+00 0.16483065E+04</pdfrwt>
<pdfrwt beam="2">  1       -1 0.85868895E-01 0.16483065E+04</pdfrwt>
<totfact> 0.26997799E+01</totfact>
</mgrwt>
</event>
<event>
12    6  0.1395358E-007  0.1253580E+04  0.7818608E-02  0.9067209E-01
          2   -1    0    0  501    0  0.00000000000E+00  0.00000000000E+00  0.15184107090E+04  0.15184107090E+04  0.00000000000E+00 0. -1.
         -1   -1    0    0    0  501 -0.00000000000E+00 -0.00000000000E+00 -0.25873481493E+03  0.25873481493E+03  0.00000000000E+00 0.  1.
         24    2    1    2    0    0 -0.24382290419E+03 -0.79376804376E+02  0.51284528263E+03  0.57898934236E+03  0.80424430142E+02 0.  0.
        254    2    1    2    0    0  0.24382290419E+03  0.79376804376E+02  0.74683061145E+03  0.11981561816E+04  0.90115036901E+03 0.  0.
         23    2    4    4    0    0  0.46758563122E+02  0.32125485983E+03  0.80029033207E+03  0.86865474598E+03  0.93302754081E+02 0.  0.
         23    2    4    4    0    0  0.19706434106E+03 -0.24187805545E+03 -0.53459720626E+02  0.32950143559E+03  0.91509049281E+02 0.  0.
          4    1    3    3  502    0 -0.19932305838E+03 -0.90794663253E+02  0.45620592110E+03  0.50606046568E+03  0.00000000000E+00 0. -1.
         -3    1    3    3    0  502 -0.44499845811E+02  0.11417858877E+02  0.56639361528E+02  0.72928876673E+02  0.00000000000E+00 0.  1.
         11    1    5    5    0    0  0.79689234791E+01  0.26915345116E+03  0.58958973366E+03  0.64816906595E+03  0.00000000000E+00 0. -1.
        -11    1    5    5    0    0  0.38789639643E+02  0.52101408665E+02  0.21070059841E+03  0.22048568003E+03  0.00000000000E+00 0.  1.
          3    1    6    6  503    0  0.14048420835E+03 -0.22099461635E+03 -0.25752723225E+02  0.26313045435E+03  0.00000000000E+00 0. -1.
         -3    1    6    6    0  503  0.56580132712E+02 -0.20883439101E+02 -0.27706997401E+02  0.66370981244E+02  0.00000000000E+00 0.  1.
<mgrwt>
<rscale>  0 0.12535800E+04</rscale>
<asrwt>0</asrwt>
<pdfrwt beam="1">  1        2 0.23360164E+00 0.12535800E+04</pdfrwt>
<pdfrwt beam="2">  1       -1 0.39805357E-01 0.12535800E+04</pdfrwt>
<totfact> 0.85301407E+01</totfact>
</mgrwt>
</event>
<event>
12    6  0.1395358E-007  0.1177598E+04  0.7818608E-02  0.9132694E-01
          2   -1    0    0  501    0  0.00000000000E+00  0.00000000000E+00  0.94714355667E+03  0.94714355667E+03  0.00000000000E+00 0. -1.
         -1   -1    0    0    0  501 -0.00000000000E+00 -0.00000000000E+00 -0.36603156740E+03  0.36603156740E+03  0.00000000000E+00 0.  1.
         24    2    1    2    0    0 -0.16165269822E+03 -0.11345746236E+02 -0.68061742821E+02  0.19216841924E+03  0.77691567872E+02 0.  0.
        254    2    1    2    0    0  0.16165269822E+03  0.11345746236E+02  0.64917373209E+03  0.11210067048E+04  0.89942713826E+03 0.  0.
         23    2    4    4    0    0 -0.24719686865E+03 -0.29085885286E+03  0.22565230248E+03  0.45309866910E+03  0.93135804979E+02 0.  0.
         23    2    4    4    0    0  0.40884956687E+03  0.30220459909E+03  0.42352142961E+03  0.66790803573E+03  0.90802834778E+02 0.  0.
          4    1    3    3  502    0 -0.10810599654E+03 -0.31194726388E+02 -0.13741618025E+02  0.11335276577E+03  0.00000000000E+00 0. -1.
         -1    1    3    3    0  502 -0.53546701679E+02  0.19848980152E+02 -0.54320124796E+02  0.78815653468E+02  0.00000000000E+00 0.  1.
         11    1    5    5    0    0 -0.25149356939E+03 -0.26997152423E+03  0.22416617396E+03  0.43172226359E+03  0.00000000000E+00 0. -1.
        -11    1    5    5    0    0  0.42967007336E+01 -0.20887328628E+02  0.14861285271E+01  0.21376405507E+02  0.00000000000E+00 0.  1.
          4    1    6    6  503    0  0.28149828402E+03  0.18455998104E+03  0.32788057173E+03  0.46990354311E+03  0.00000000000E+00 0. -1.
         -4    1    6    6    0  503  0.12735128286E+03  0.11764461805E+03  0.95640857881E+02  0.19800449262E+03  0.00000000000E+00 0.  1.
<mgrwt>
<rscale>  0 0.11775983E+04</rscale>
<asrwt>0</asrwt>
<pdfrwt beam="1">  1        2 0.14571439E+00 0.11775983E+04</pdfrwt>
<pdfrwt beam="2">  1       -1 0.56312549E-01 0.11775983E+04</pdfrwt>
<totfact> 0.98087950E+01</totfact>
</mgrwt>
</event>
<event>
12    6  0.1395358E-007  0.1897645E+04  0.7818608E-02  0.8656029E-01
         -1   -1    0    0    0  501 -0.00000000000E+00  0.00000000000E+00  0.20468971978E+03  0.20468971978E+03  0.00000000000E+00 0.  1.
          2   -1    0    0  501    0  0.00000000000E+00 -0.00000000000E+00 -0.43981896100E+04  0.43981896100E+04  0.00000000000E+00 0. -1.
         24    2    1    2    0    0 -0.60563314147E+01 -0.73453064318E+03 -0.16878146939E+04  0.18424894300E+04  0.80479275944E+02 0.  0.
        254    2    1    2    0    0  0.60563314147E+01  0.73453064318E+03 -0.25056851963E+04  0.27603898997E+04  0.89538938498E+03 0.  0.
         23    2    4    4    0    0  0.37658219363E+02  0.80148214083E+03 -0.11829224907E+04  0.14324311059E+04  0.93602835290E+02 0.  0.
         23    2    4    4    0    0 -0.31601887948E+02 -0.66951497647E+02 -0.13227627056E+04  0.13279587938E+04  0.91061519234E+02 0.  0.
          2    1    3    3  502    0  0.12208209492E+02 -0.42992070695E+03 -0.10766259534E+04  0.11593551217E+04  0.00000000000E+00 0. -1.
         -1    1    3    3    0  502 -0.18264540906E+02 -0.30460993623E+03 -0.61118874049E+03  0.68313430832E+03  0.00000000000E+00 0.  1.
         11    1    5    5    0    0  0.54717432239E+02  0.34773724815E+03 -0.47047841360E+03  0.58759265551E+03  0.00000000000E+00 0.  1.
        -11    1    5    5    0    0 -0.17059212876E+02  0.45374489268E+03 -0.71244407706E+03  0.84483845042E+03  0.00000000000E+00 0. -1.
          3    1    6    6  503    0  0.11614670699E+02 -0.57366158903E+02 -0.41381031941E+03  0.41792912942E+03  0.00000000000E+00 0. -1.
         -3    1    6    6    0  503 -0.43216558648E+02 -0.95853387442E+01 -0.90895238621E+03  0.91002966438E+03  0.00000000000E+00 0.  1.
<mgrwt>
<rscale>  0 0.18976451E+04</rscale>
<asrwt>0</asrwt>
<pdfrwt beam="1">  1        2 0.67664456E+00 0.18976451E+04</pdfrwt>
<pdfrwt beam="2">  1       -1 0.31490726E-01 0.18976451E+04</pdfrwt>
<totfact> 0.15668606E+00</totfact>
</mgrwt>
</event>
<event>
12    6  0.1395358E-007  0.1222684E+04  0.7818608E-02  0.9093229E-01
          2   -1    0    0  501    0  0.00000000000E+00  0.00000000000E+00  0.61777344365E+03  0.61777344365E+03  0.00000000000E+00 0. -1.
         -1   -1    0    0    0  501 -0.00000000000E+00 -0.00000000000E+00 -0.60497788376E+03  0.60497788376E+03  0.00000000000E+00 0.  1.
         24    2    1    2    0    0 -0.90303017031E+02  0.23320410149E+03 -0.10727617531E+03  0.28398909191E+03  0.81257853136E+02 0.  0.
        254    2    1    2    0    0  0.90303017031E+02 -0.23320410149E+03  0.12007173520E+03  0.93876223550E+03  0.89683807087E+03 0.  0.
         23    2    4    4    0    0  0.42996357414E+03 -0.11521972030E+03  0.28093480497E+03  0.53426183383E+03  0.91471762923E+02 0.  0.
         23    2    4    4    0    0 -0.33966055711E+03 -0.11798438119E+03 -0.16086306978E+03  0.40450040167E+03  0.91945850768E+02 0.  0.
          2    1    3    3  502    0 -0.38014427552E+02  0.18875108039E+03 -0.93275906986E+02  0.21394499731E+03  0.00000000000E+00 0. -1.
         -1    1    3    3    0  502 -0.52288589479E+02  0.44453021103E+02 -0.14000268323E+02  0.70044094597E+02  0.00000000000E+00 0.  1.
         11    1    5    5    0    0  0.39693087163E+03 -0.81366034299E+02  0.26585494861E+03  0.48461675795E+03  0.00000000000E+00 0. -1.
        -11    1    5    5    0    0  0.33032702505E+02 -0.33853686003E+02  0.15079856368E+02  0.49645075877E+02  0.00000000000E+00 0.  1.
          1    1    6    6  503    0 -0.31739556869E+03 -0.96099017216E+02 -0.11911156374E+03  0.35236704265E+03  0.00000000000E+00 0. -1.
         -1    1    6    6    0  503 -0.22264988418E+02 -0.21885363972E+02 -0.41751506041E+02  0.52133359015E+02  0.00000000000E+00 0.  1.
<mgrwt>
<rscale>  0 0.12226844E+04</rscale>
<asrwt>0</asrwt>
<pdfrwt beam="1">  1        2 0.95042068E-01 0.12226844E+04</pdfrwt>
<pdfrwt beam="2">  1       -1 0.93073521E-01 0.12226844E+04</pdfrwt>
<totfact> 0.60450732E+01</totfact>
</mgrwt>
</event>
<event>
12    6  0.1395358E-007  0.1146357E+04  0.7818608E-02  0.9161151E-01
         -1   -1    0    0    0  501 -0.00000000000E+00  0.00000000000E+00  0.26508228425E+03  0.26508228425E+03  0.00000000000E+00 0.  1.
          2   -1    0    0  501    0  0.00000000000E+00 -0.00000000000E+00 -0.12393653457E+04  0.12393653457E+04  0.00000000000E+00 0. -1.
         24    2    1    2    0    0 -0.10539157731E+03  0.15647817059E+03 -0.31974815644E+03  0.37623199033E+03  0.60982165976E+02 0.  0.
        254    2    1    2    0    0  0.10539157731E+03 -0.15647817059E+03 -0.65453490505E+03  0.11282156396E+04  0.89936743613E+03 0.  0.
         23    2    4    4    0    0  0.41153449838E+03  0.16342584099E+03 -0.42683135017E+03  0.62175499795E+03  0.91244874534E+02 0.  0.
         23    2    4    4    0    0 -0.30614292107E+03 -0.31990401158E+03 -0.22770355487E+03  0.50646064169E+03  0.92689848079E+02 0.  0.
          2    1    3    3  502    0 -0.98751173672E+02  0.13840892351E+03 -0.31231235418E+03  0.35559503791E+03  0.00000000000E+00 0. -1.
         -1    1    3    3    0  502 -0.66404036411E+01  0.18069247073E+02 -0.74358022561E+01  0.20636952427E+02  0.00000000000E+00 0.  1.
         11    1    5    5    0    0  0.19966517614E+03  0.11513120262E+03 -0.17674486117E+03  0.29044814051E+03  0.00000000000E+00 0. -1.
        -11    1    5    5    0    0  0.21186932224E+03  0.48294638369E+02 -0.25008648901E+03  0.33130685744E+03  0.00000000000E+00 0.  1.
          2    1    6    6  503    0 -0.19578696058E+03 -0.26373792053E+03 -0.16075916300E+03  0.36569623071E+03  0.00000000000E+00 0. -1.
         -2    1    6    6    0  503 -0.11035596048E+03 -0.56166091043E+02 -0.66944391869E+02  0.14076441099E+03  0.00000000000E+00 0.  1.
<mgrwt>
<rscale>  0 0.11463574E+04</rscale>
<asrwt>0</asrwt>
<pdfrwt beam="1">  1        2 0.19067159E+00 0.11463574E+04</pdfrwt>
<pdfrwt beam="2">  1       -1 0.40781890E-01 0.11463574E+04</pdfrwt>
<totfact> 0.11896742E+02</totfact>
</mgrwt>
</event>
<event>
12    6  0.1395358E-007  0.1268445E+04  0.7818608E-02  0.9054970E-01
         -1   -1    0    0    0  501 -0.00000000000E+00  0.00000000000E+00  0.24276697258E+03  0.24276697258E+03  0.00000000000E+00 0.  1.
          2   -1    0    0  501    0  0.00000000000E+00 -0.00000000000E+00 -0.16568894993E+04  0.16568894993E+04  0.00000000000E+00 0. -1.
         24    2    1    2    0    0  0.18182526442E+01 -0.21649701889E+03 -0.69091098023E+03  0.72838860355E+03  0.79484023147E+02 0.  0.
        254    2    1    2    0    0 -0.18182526442E+01  0.21649701889E+03 -0.72321154648E+03  0.11712678683E+04  0.89552175472E+03 0.  0.
         23    2    4    4    0    0 -0.32172389297E+03 -0.19915631099E+03 -0.29911730026E+03  0.49074272368E+03  0.90486253180E+02 0.  0.
         23    2    4    4    0    0  0.31990564032E+03  0.41565332989E+03 -0.42409424622E+03  0.68052514465E+03  0.90284181676E+02 0.  0.
          2    1    3    3  502    0 -0.37841817492E+02 -0.12847415016E+03 -0.41469312082E+03  0.43578434445E+03  0.00000000000E+00 0. -1.
         -1    1    3    3    0  502  0.39660070136E+02 -0.88022868731E+02 -0.27621785942E+03  0.29260425910E+03  0.00000000000E+00 0.  1.
         11    1    5    5    0    0 -0.95684125213E+02 -0.13706855149E+02 -0.75566728355E+02  0.12269335813E+03  0.00000000000E+00 0. -1.
        -11    1    5    5    0    0 -0.22603976776E+03 -0.18544945584E+03 -0.22355057190E+03  0.36804936554E+03  0.00000000000E+00 0.  1.
          1    1    6    6  503    0  0.44867292107E+02  0.35019857028E+02 -0.18023090333E+02  0.59701725875E+02  0.00000000000E+00 0. -1.
         -1    1    6    6    0  503  0.27503834822E+03  0.38063347286E+03 -0.40607115589E+03  0.62082341877E+03  0.00000000000E+00 0.  1.
<mgrwt>
<rscale>  0 0.12684448E+04</rscale>
<asrwt>0</asrwt>
<pdfrwt beam="1">  1        2 0.25490609E+00 0.12684448E+04</pdfrwt>
<pdfrwt beam="2">  1       -1 0.37348763E-01 0.12684448E+04</pdfrwt>
<totfact> 0.80040667E+01</totfact>
</mgrwt>
</event>
<event>
12    6  0.1395358E-007  0.2824317E+04  0.7818608E-02  0.8295758E-01
          2   -1    0    0  501    0  0.00000000000E+00  0.00000000000E+00  0.11973546350E+04  0.11973546350E+04  0.00000000000E+00 0. -1.
         -1   -1    0    0    0  501 -0.00000000000E+00 -0.00000000000E+00 -0.16654978672E+04  0.16654978672E+04  0.00000000000E+00 0.  1.
         24    2    1    2    0    0 -0.75726156219E+02 -0.10695419218E+04 -0.89529724953E+03  0.13991455116E+04  0.79978899641E+02 0.  0.
        254    2    1    2    0    0  0.75726156219E+02  0.10695419218E+04  0.42715401730E+03  0.14637069906E+04  0.90017955251E+03 0.  0.
         23    2    4    4    0    0  0.16319810249E+03  0.61396956435E+02  0.40257569913E+03  0.44735094814E+03  0.87478399380E+02 0.  0.
         23    2    4    4    0    0 -0.87471946273E+02  0.10081449653E+04  0.24578318177E+02  0.10163560425E+04  0.91476220142E+02 0.  0.
          2    1    3    3  502    0 -0.51398609141E+02 -0.90637503818E+03 -0.78999031623E+03  0.12034293609E+04  0.00000000000E+00 0. -1.
         -1    1    3    3    0  502 -0.24327547079E+02 -0.16316688360E+03 -0.10530693330E+03  0.19571615072E+03  0.00000000000E+00 0.  1.
         11    1    5    5    0    0  0.12776630201E+03  0.56695056342E+02  0.21530471687E+03  0.25669958794E+03  0.00000000000E+00 0.  1.
        -11    1    5    5    0    0  0.35431800480E+02  0.47019000930E+01  0.18727098226E+03  0.19065136020E+03  0.00000000000E+00 0. -1.
          1    1    6    6  503    0  0.80211225479E+01  0.17354411174E+03  0.29953662442E+02  0.17629270835E+03  0.00000000000E+00 0. -1.
         -1    1    6    6    0  503 -0.95493068821E+02  0.83460085361E+03 -0.53753442648E+01  0.84006333414E+03  0.00000000000E+00 0.  1.
<mgrwt>
<rscale>  0 0.28243170E+04</rscale>
<asrwt>0</asrwt>
<pdfrwt beam="1">  1        2 0.18420841E+00 0.28243170E+04</pdfrwt>
<pdfrwt beam="2">  1       -1 0.25623044E+00 0.28243170E+04</pdfrwt>
<totfact> 0.11941765E+00</totfact>
</mgrwt>
</event>
<event>
12    6  0.1395358E-007  0.3033605E+04  0.7818608E-02  0.8234199E-01
          2   -1    0    0  501    0  0.00000000000E+00  0.00000000000E+00  0.23771261976E+04  0.23771261976E+04  0.00000000000E+00 0. -1.
         -1   -1    0    0    0  501 -0.00000000000E+00 -0.00000000000E+00 -0.96784503353E+03  0.96784503353E+03  0.00000000000E+00 0.  1.
         24    2    1    2    0    0  0.95077259991E+03 -0.88759757929E+03  0.12325019493E+03  0.13088188271E+04  0.77576491987E+02 0.  0.
        254    2    1    2    0    0 -0.95077259991E+03  0.88759757929E+03  0.12860309691E+04  0.20361524040E+04  0.89456299912E+03 0.  0.
         23    2    4    4    0    0 -0.10585055910E+04  0.52460627495E+03  0.89147165526E+03  0.14824220649E+04  0.84897799682E+02 0.  0.
         23    2    4    4    0    0  0.10773299112E+03  0.36299130435E+03  0.39455931388E+03  0.55373033915E+03  0.87012366465E+02 0.  0.
          2    1    3    3  502    0  0.36289998877E+03 -0.38904191337E+03  0.60594069540E+02  0.53546396095E+03  0.00000000000E+00 0. -1.
         -1    1    3    3    0  502  0.58787261114E+03 -0.49855566592E+03  0.62656125388E+02  0.77335486615E+03  0.00000000000E+00 0.  1.
         11    1    5    5    0    0 -0.17424230907E+03  0.80562791114E+02  0.18508766546E+03  0.26666118856E+03  0.00000000000E+00 0. -1.
        -11    1    5    5    0    0 -0.88426328196E+03  0.44404348383E+03  0.70638398980E+03  0.12157608763E+04  0.00000000000E+00 0.  1.
          4    1    6    6  503    0  0.13815064091E+02  0.17313851126E+03  0.14384711429E+03  0.22552115725E+03  0.00000000000E+00 0. -1.
         -4    1    6    6    0  503  0.93917927032E+02  0.18985279308E+03  0.25071219959E+03  0.32820918190E+03  0.00000000000E+00 0.  1.
<mgrwt>
<rscale>  0 0.30336050E+04</rscale>
<asrwt>0</asrwt>
<pdfrwt beam="1">  1        2 0.36571172E+00 0.30336050E+04</pdfrwt>
<pdfrwt beam="2">  1       -1 0.14889924E+00 0.30336050E+04</pdfrwt>
<totfact> 0.14148497E+00</totfact>
</mgrwt>
</event>
<event>
12    6  0.1395358E-007  0.2268417E+04  0.7818608E-02  0.8490479E-01
          2   -1    0    0  501    0  0.00000000000E+00  0.00000000000E+00  0.13087398172E+04  0.13087398172E+04  0.00000000000E+00 0. -1.
         -1   -1    0    0    0  501 -0.00000000000E+00 -0.00000000000E+00 -0.98295272719E+03  0.98295272719E+03  0.00000000000E+00 0.  1.
         24    2    1    2    0    0  0.79742205763E+03  0.52333382295E+03  0.11993913096E+03  0.96462634576E+03  0.79739347662E+02 0.  0.
        254    2    1    2    0    0 -0.79742205763E+03 -0.52333382295E+03  0.20584795908E+03  0.13270661986E+04  0.89942819896E+03 0.  0.
         23    2    4    4    0    0 -0.10819775423E+03 -0.46321965416E+03  0.37044232520E+03  0.60987559968E+03  0.91877792569E+02 0.  0.
         23    2    4    4    0    0 -0.68922430340E+03 -0.60114168793E+02 -0.16459436613E+03  0.71719059896E+03  0.92882701234E+02 0.  0.
          2    1    3    3  502    0  0.67607472469E+03  0.45567776316E+03  0.12878320093E+03  0.82541163672E+03  0.00000000000E+00 0. -1.
         -1    1    3    3    0  502  0.12134733294E+03  0.67656059786E+02 -0.88440699711E+01  0.13921470904E+03  0.00000000000E+00 0.  1.
         11    1    5    5    0    0 -0.11028403675E+03 -0.36558979474E+03  0.25749569240E+03  0.46056758286E+03  0.00000000000E+00 0.  1.
        -11    1    5    5    0    0  0.20862825218E+01 -0.97629859419E+02  0.11294663281E+03  0.14930801682E+03  0.00000000000E+00 0. -1.
          1    1    6    6  503    0 -0.85894784533E+02 -0.38823737666E+02 -0.25992368160E+02  0.97779342496E+02  0.00000000000E+00 0. -1.
         -1    1    6    6    0  503 -0.60332951887E+03 -0.21290431127E+02 -0.13860199797E+03  0.61941125647E+03  0.00000000000E+00 0.  1.
<mgrwt>
<rscale>  0 0.22684174E+04</rscale>
<asrwt>0</asrwt>
<pdfrwt beam="1">  1        2 0.20134459E+00 0.22684174E+04</pdfrwt>
<pdfrwt beam="2">  1       -1 0.15122350E+00 0.22684174E+04</pdfrwt>
<totfact> 0.57770696E+00</totfact>
</mgrwt>
</event>
<event>
12    6  0.1395358E-007  0.1747304E+04  0.7818608E-02  0.8734836E-01
          2   -1    0    0  501    0  0.00000000000E+00  0.00000000000E+00  0.12842418909E+04  0.12842418909E+04  0.00000000000E+00 0. -1.
         -1   -1    0    0    0  501 -0.00000000000E+00 -0.00000000000E+00 -0.59433335105E+03  0.59433335105E+03  0.00000000000E+00 0.  1.
         24    2    1    2    0    0 -0.21577129536E+02  0.63453484756E+03  0.33294318042E+03  0.72122812756E+03  0.78859402205E+02 0.  0.
        254    2    1    2    0    0  0.21577129536E+02 -0.63453484756E+03  0.35696535946E+03  0.11573471144E+04  0.89940426401E+03 0.  0.
         23    2    4    4    0    0  0.44161001963E+03 -0.38425566425E+03  0.11096293221E+03  0.60258156853E+03  0.90110762204E+02 0.  0.
         23    2    4    4    0    0 -0.42003289009E+03 -0.25027918331E+03  0.24600242725E+03  0.55476554589E+03  0.90445112307E+02 0.  0.
          4    1    3    3  502    0 -0.69613999391E+01  0.51182250606E+03  0.30011250455E+03  0.59336182401E+03  0.00000000000E+00 0. -1.
         -3    1    3    3    0  502 -0.14615729597E+02  0.12271234149E+03  0.32830675864E+02  0.12786630355E+03  0.00000000000E+00 0.  1.
         11    1    5    5    0    0  0.19704824316E+03 -0.12005746239E+03  0.64450321305E+02  0.23957388907E+03  0.00000000000E+00 0. -1.
        -11    1    5    5    0    0  0.24456177647E+03 -0.26419820185E+03  0.46512610906E+02  0.36300767946E+03  0.00000000000E+00 0.  1.
          4    1    6    6  503    0 -0.31478631315E+03 -0.22196828976E+03  0.16528005605E+03  0.41913940585E+03  0.00000000000E+00 0. -1.
         -4    1    6    6    0  503 -0.10524657694E+03 -0.28310893545E+02  0.80722371198E+02  0.13562614004E+03  0.00000000000E+00 0.  1.
<mgrwt>
<rscale>  0 0.17473040E+04</rscale>
<asrwt>0</asrwt>
<pdfrwt beam="1">  1        2 0.19757567E+00 0.17473040E+04</pdfrwt>
<pdfrwt beam="2">  1       -1 0.91435900E-01 0.17473040E+04</pdfrwt>
<totfact> 0.21286740E+01</totfact>
</mgrwt>
</event>
<event>
12    6  0.1395358E-007  0.1643711E+04  0.7818608E-02  0.8794136E-01
         -1   -1    0    0    0  501 -0.00000000000E+00  0.00000000000E+00  0.55693430342E+03  0.55693430342E+03  0.00000000000E+00 0.  1.
          2   -1    0    0  501    0  0.00000000000E+00 -0.00000000000E+00 -0.12127941851E+04  0.12127941851E+04  0.00000000000E+00 0. -1.
         24    2    1    2    0    0  0.41089056565E+03 -0.22407263781E+03  0.12185740340E+03  0.49033858328E+03  0.80889403076E+02 0.  0.
        254    2    1    2    0    0 -0.41089056565E+03  0.22407263781E+03 -0.77771728507E+03  0.12793899052E+04  0.90164003356E+03 0.  0.
         23    2    4    4    0    0  0.37763910878E+02  0.16521236496E+03 -0.79408112752E+03  0.81684455188E+03  0.89156863777E+02 0.  0.
         23    2    4    4    0    0 -0.44865447653E+03  0.58860272852E+02  0.16363842452E+02  0.46254535333E+03  0.94472522576E+02 0.  0.
          2    1    3    3  502    0  0.13204203009E+03 -0.80116192279E+02  0.21341166970E+01  0.15446118098E+03  0.00000000000E+00 0. -1.
         -1    1    3    3    0  502  0.27884853557E+03 -0.14395644553E+03  0.11972328671E+03  0.33587740230E+03  0.00000000000E+00 0.  1.
         11    1    5    5    0    0  0.35098606173E+02  0.58271962396E+02 -0.48560712988E+03  0.49034867018E+03  0.00000000000E+00 0. -1.
        -11    1    5    5    0    0  0.26653047045E+01  0.10694040257E+03 -0.30847399764E+03  0.32649588171E+03  0.00000000000E+00 0.  1.
          2    1    6    6  503    0 -0.40647419640E+03  0.79362730932E+02  0.45209139210E+01  0.41417406251E+03  0.00000000000E+00 0. -1.
         -2    1    6    6    0  503 -0.42180280133E+02 -0.20502458081E+02  0.11842928531E+02  0.48371290820E+02  0.00000000000E+00 0.  1.
<mgrwt>
<rscale>  0 0.16437113E+04</rscale>
<asrwt>0</asrwt>
<pdfrwt beam="1">  1        2 0.18658372E+00 0.16437113E+04</pdfrwt>
<pdfrwt beam="2">  1       -1 0.85682201E-01 0.16437113E+04</pdfrwt>
<totfact> 0.27290649E+01</totfact>
</mgrwt>
</event>
<event>
12    6  0.1395358E-007  0.1194246E+04  0.7818608E-02  0.9117908E-01
          2   -1    0    0  501    0  0.00000000000E+00  0.00000000000E+00  0.27321256580E+04  0.27321256580E+04  0.00000000000E+00 0. -1.
         -1   -1    0    0    0  501 -0.00000000000E+00 -0.00000000000E+00 -0.13050485684E+03  0.13050485684E+03  0.00000000000E+00 0.  1.
         24    2    1    2    0    0 -0.14486691295E+02  0.24741029031E+03  0.47113306405E+03  0.53879246045E+03  0.83121810745E+02 0.  0.
        254    2    1    2    0    0  0.14486691295E+02 -0.24741029031E+03  0.21304877371E+04  0.23238380544E+04  0.89432856886E+03 0.  0.
         23    2    4    4    0    0  0.22206401789E+03  0.15154726795E+03  0.15866281697E+04  0.16118720916E+04  0.91998306602E+02 0.  0.
         23    2    4    4    0    0 -0.20757732659E+03 -0.39895755826E+03  0.54385956739E+03  0.71196596275E+03  0.94110696845E+02 0.  0.
          2    1    3    3  502    0  0.15886685389E+02  0.11221880034E+03  0.28530290374E+03  0.30699054188E+03  0.00000000000E+00 0. -1.
         -1    1    3    3    0  502 -0.30373376683E+02  0.13519148997E+03  0.18583016031E+03  0.23180191857E+03  0.00000000000E+00 0.  1.
         11    1    5    5    0    0  0.98329109402E+02  0.12212622299E+03  0.90420180440E+03  0.91769511886E+03  0.00000000000E+00 0.  1.
        -11    1    5    5    0    0  0.12373490849E+03  0.29421044956E+02  0.68242636529E+03  0.69417697276E+03  0.00000000000E+00 0. -1.
          3    1    6    6  503    0 -0.11604729845E+03 -0.13205285670E+03  0.18114410629E+03  0.25242448313E+03  0.00000000000E+00 0. -1.
         -3    1    6    6    0  503 -0.91530028140E+02 -0.26690470156E+03  0.36271546110E+03  0.45954147961E+03  0.00000000000E+00 0.  1.
<mgrwt>
<rscale>  0 0.11942456E+04</rscale>
<asrwt>0</asrwt>
<pdfrwt beam="1">  1        2 0.42032698E+00 0.11942456E+04</pdfrwt>
<pdfrwt beam="2">  1       -1 0.20077672E-01 0.11942456E+04</pdfrwt>
<totfact> 0.58632171E+01</totfact>
</mgrwt>
</event>
<event>
12    6  0.1395358E-007  0.3614703E+04  0.7818608E-02  0.8087132E-01
          2   -1    0    0  501    0  0.00000000000E+00  0.00000000000E+00  0.12934619228E+04  0.12934619228E+04  0.00000000000E+00 0. -1.
         -1   -1    0    0    0  501 -0.00000000000E+00 -0.00000000000E+00 -0.25254077010E+04  0.25254077010E+04  0.00000000000E+00 0.  1.
         24    2    1    2    0    0 -0.16882466568E+04  0.80590623597E+00 -0.72792078609E+03  0.18401937480E+04  0.79163979095E+02 0.  0.
        254    2    1    2    0    0  0.16882466568E+04 -0.80590623597E+00 -0.50402499215E+03  0.19786758757E+04  0.90052185138E+03 0.  0.
         23    2    4    4    0    0  0.15159430998E+04 -0.20597799647E+03 -0.64530949258E+03  0.16627056213E+04  0.87494142998E+02 0.  0.
         23    2    4    4    0    0  0.17230355698E+03  0.20517209024E+03  0.14128450043E+03  0.31597025440E+03  0.89954373118E+02 0.  0.
          4    1    3    3  502    0 -0.58094131583E+03 -0.16788670241E+02 -0.21423422514E+03  0.61941179768E+03  0.00000000000E+00 0. -1.
         -3    1    3    3    0  502 -0.11073053410E+04  0.17594576477E+02 -0.51368656095E+03  0.12207819503E+04  0.00000000000E+00 0.  1.
         11    1    5    5    0    0  0.37544328956E+03 -0.19867281488E+02 -0.13519272319E+03  0.39953653769E+03  0.00000000000E+00 0. -1.
        -11    1    5    5    0    0  0.11404998103E+04 -0.18611071499E+03 -0.51011676939E+03  0.12631690837E+04  0.00000000000E+00 0.  1.
          3    1    6    6  503    0  0.88933869502E+02  0.11146121609E+03  0.12474263966E+03  0.18945596319E+03  0.00000000000E+00 0. -1.
         -3    1    6    6    0  503  0.83369687479E+02  0.93710874146E+02  0.16541860769E+02  0.12651429121E+03  0.00000000000E+00 0.  1.
<mgrwt>
<rscale>  0 0.36147026E+04</rscale>
<asrwt>0</asrwt>
<pdfrwt beam="1">  1        2 0.19899414E+00 0.36147026E+04</pdfrwt>
<pdfrwt beam="2">  1       -1 0.38852426E+00 0.36147026E+04</pdfrwt>
<totfact> 0.13235783E-01</totfact>
</mgrwt>
</event>
<event>
12    6  0.1395358E-007  0.1380452E+04  0.7818608E-02  0.8968091E-01
          2   -1    0    0  501    0  0.00000000000E+00  0.00000000000E+00  0.52393309122E+03  0.52393309122E+03  0.00000000000E+00 0. -1.
         -1   -1    0    0    0  501 -0.00000000000E+00 -0.00000000000E+00 -0.90929867742E+03  0.90929867742E+03  0.00000000000E+00 0.  1.
         24    2    1    2    0    0  0.54168568890E+02  0.34521401127E+03  0.72733972475E+02  0.36556039516E+03  0.78976099734E+02 0.  0.
        254    2    1    2    0    0 -0.54168568890E+02 -0.34521401127E+03 -0.45809955867E+03  0.10676713735E+04  0.89886595701E+03 0.  0.
         23    2    4    4    0    0  0.81199700236E+02 -0.33105276056E+03  0.18927692911E+03  0.39963569350E+03  0.87713226099E+02 0.  0.
         23    2    4    4    0    0 -0.13536826913E+03 -0.14161250706E+02 -0.64737648779E+03  0.66803567998E+03  0.93006685131E+02 0.  0.
          2    1    3    3  502    0  0.45262535785E+02  0.28638794502E+03  0.90033913156E+02  0.30359983155E+03  0.00000000000E+00 0. -1.
         -1    1    3    3    0  502  0.89060331050E+01  0.58826066245E+02 -0.17299940682E+02  0.61960563612E+02  0.00000000000E+00 0.  1.
         11    1    5    5    0    0  0.32493956016E+02 -0.14086106692E+03  0.13035902301E+03  0.19465654942E+03  0.00000000000E+00 0. -1.
        -11    1    5    5    0    0  0.48705744219E+02 -0.19019169364E+03  0.58917906105E+02  0.20497914408E+03  0.00000000000E+00 0.  1.
          3    1    6    6  503    0 -0.58864475773E+02 -0.15838196864E+02 -0.48169034381E+03  0.48553214343E+03  0.00000000000E+00 0. -1.
         -3    1    6    6    0  503 -0.76503793353E+02  0.16769461580E+01 -0.16568614398E+03  0.18250353655E+03  0.00000000000E+00 0.  1.
<mgrwt>
<rscale>  0 0.13804516E+04</rscale>
<asrwt>0</asrwt>
<pdfrwt beam="1">  1        2 0.80605092E-01 0.13804516E+04</pdfrwt>
<pdfrwt beam="2">  1       -1 0.13989210E+00 0.13804516E+04</pdfrwt>
<totfact> 0.27291146E+01</totfact>
</mgrwt>
</event>
<event>
12    6  0.1395358E-007  0.1095016E+04  0.7818608E-02  0.9210063E-01
         -1   -1    0    0    0  501 -0.00000000000E+00  0.00000000000E+00  0.26636537921E+03  0.26636537921E+03  0.00000000000E+00 0.  1.
          2   -1    0    0  501    0  0.00000000000E+00 -0.00000000000E+00 -0.11253909155E+04  0.11253909155E+04  0.00000000000E+00 0. -1.
         24    2    1    2    0    0  0.41297433309E+02 -0.11888027622E+03 -0.26362187726E+03  0.30307534090E+03  0.80747569727E+02 0.  0.
        254    2    1    2    0    0 -0.41297433309E+02  0.11888027622E+03 -0.59540365899E+03  0.10886809538E+04  0.90270853763E+03 0.  0.
         23    2    4    4    0    0  0.10812498128E+03  0.23624218539E+03  0.14848228420E+03  0.31563410358E+03  0.10038185537E+03 0.  0.
         23    2    4    4    0    0 -0.14942241459E+03 -0.11736190916E+03 -0.74388594319E+03  0.77304685020E+03  0.90190134907E+02 0.  0.
          4    1    3    3  502    0  0.14957146025E+02 -0.68105236652E+02 -0.22100611081E+03  0.23174499022E+03  0.00000000000E+00 0. -1.
         -1    1    3    3    0  502  0.26340287284E+02 -0.50775039571E+02 -0.42615766451E+02  0.71330350678E+02  0.00000000000E+00 0.  1.
         11    1    5    5    0    0  0.89077414847E+02  0.17910561236E+03  0.60445775875E+02  0.20896721761E+03  0.00000000000E+00 0.  1.
        -11    1    5    5    0    0  0.19047566430E+02  0.57136573024E+02  0.88036508321E+02  0.10666688596E+03  0.00000000000E+00 0. -1.
          1    1    6    6  503    0 -0.49746903675E+02 -0.91457618746E+02 -0.44131077129E+03  0.45342523894E+03  0.00000000000E+00 0. -1.
         -1    1    6    6    0  503 -0.99675510911E+02 -0.25904290416E+02 -0.30257517190E+03  0.31962161126E+03  0.00000000000E+00 0.  1.
<mgrwt>
<rscale>  0 0.10950163E+04</rscale>
<asrwt>0</asrwt>
<pdfrwt beam="1">  1        2 0.17313706E+00 0.10950163E+04</pdfrwt>
<pdfrwt beam="2">  1       -1 0.40979289E-01 0.10950163E+04</pdfrwt>
<totfact> 0.13853115E+02</totfact>
</mgrwt>
</event>
<event>
12    6  0.1395358E-007  0.4395641E+04  0.7818608E-02  0.7929166E-01
         -1   -1    0    0    0  501 -0.00000000000E+00  0.00000000000E+00  0.29543221032E+04  0.29543221032E+04  0.00000000000E+00 0.  1.
          2   -1    0    0  501    0  0.00000000000E+00 -0.00000000000E+00 -0.16350330346E+04  0.16350330346E+04  0.00000000000E+00 0. -1.
         24    2    1    2    0    0 -0.17886124415E+04  0.76403303271E+03 -0.20802072513E+03  0.19577003141E+04  0.80230647846E+02 0.  0.
        254    2    1    2    0    0  0.17886124415E+04 -0.76403303271E+03  0.15273097937E+04  0.26316548237E+04  0.90002831281E+03 0.  0.
         23    2    4    4    0    0  0.15457004385E+04 -0.33477653276E+03  0.14003883016E+04  0.21143870196E+04  0.90993961481E+02 0.  0.
         23    2    4    4    0    0  0.24291200306E+03 -0.42925649994E+03  0.12692149210E+03  0.51726780405E+03  0.90496032920E+02 0.  0.
          2    1    3    3  502    0 -0.77180918257E+03  0.35000755553E+03 -0.55318785776E+02  0.84926725551E+03  0.00000000000E+00 0. -1.
         -1    1    3    3    0  502 -0.10168032590E+04  0.41402547717E+03 -0.15270193935E+03  0.11084330586E+04  0.00000000000E+00 0.  1.
         11    1    5    5    0    0  0.61972628291E+03 -0.17904447112E+03  0.58220596671E+03  0.86895418524E+03  0.00000000000E+00 0. -1.
        -11    1    5    5    0    0  0.92597415555E+03 -0.15573206165E+03  0.81818233492E+03  0.12454328344E+04  0.00000000000E+00 0.  1.
          4    1    6    6  503    0  0.21466911771E+03 -0.30378347039E+03  0.80929938248E+02  0.38067950022E+03  0.00000000000E+00 0.  1.
         -4    1    6    6    0  503  0.28242885351E+02 -0.12547302955E+03  0.45991553851E+02  0.13658830383E+03  0.00000000000E+00 0. -1.
<mgrwt>
<rscale>  0 0.43956407E+04</rscale>
<asrwt>0</asrwt>
<pdfrwt beam="1">  1        2 0.25154354E+00 0.43956407E+04</pdfrwt>
<pdfrwt beam="2">  1       -1 0.45451109E+00 0.43956407E+04</pdfrwt>
<totfact> 0.27975912E-02</totfact>
</mgrwt>
</event>
<event>
12    6  0.1395358E-007  0.1309877E+04  0.7818608E-02  0.9021769E-01
         -1   -1    0    0    0  501 -0.00000000000E+00  0.00000000000E+00  0.31865863493E+03  0.31865863493E+03  0.00000000000E+00 0.  1.
          2   -1    0    0  501    0  0.00000000000E+00 -0.00000000000E+00 -0.13460933534E+04  0.13460933534E+04  0.00000000000E+00 0. -1.
         24    2    1    2    0    0  0.95357713381E+02  0.23285043139E+03 -0.55617287590E+03  0.61752868561E+03  0.93279112179E+02 0.  0.
        254    2    1    2    0    0 -0.95357713381E+02 -0.23285043139E+03 -0.47126184255E+03  0.10472233027E+04  0.90070889003E+03 0.  0.
         23    2    4    4    0    0 -0.25796291190E+03  0.25484593973E+03 -0.52198399410E+02  0.37770002861E+03  0.91876666220E+02 0.  0.
         23    2    4    4    0    0  0.16260519852E+03 -0.48769637113E+03 -0.41906344314E+03  0.66952327410E+03  0.91427808596E+02 0.  0.
          4    1    3    3  502    0  0.10368538723E+03  0.23621598588E+03 -0.54651052257E+03  0.60433633251E+03  0.00000000000E+00 0. -1.
         -3    1    3    3    0  502 -0.83276738456E+01 -0.33655544824E+01 -0.96623533282E+01  0.13192353107E+02  0.00000000000E+00 0.  1.
         11    1    5    5    0    0 -0.97576908846E+02  0.61566984161E+02 -0.51971822175E+02  0.12654175982E+03  0.00000000000E+00 0.  1.
        -11    1    5    5    0    0 -0.16038600305E+03  0.19327895557E+03 -0.22657723531E+00  0.25115826879E+03  0.00000000000E+00 0. -1.
          4    1    6    6  503    0  0.62226675985E+02 -0.28243848507E+03 -0.27703846226E+03  0.40049215551E+03  0.00000000000E+00 0. -1.
         -4    1    6    6    0  503  0.10037852253E+03 -0.20525788605E+03 -0.14202498088E+03  0.26903111859E+03  0.00000000000E+00 0.  1.
<mgrwt>
<rscale>  0 0.13098767E+04</rscale>
<asrwt>0</asrwt>
<pdfrwt beam="1">  1        2 0.20709129E+00 0.13098767E+04</pdfrwt>
<pdfrwt beam="2">  1       -1 0.49024404E-01 0.13098767E+04</pdfrwt>
<totfact> 0.72291374E+01</totfact>
</mgrwt>
</event>
<event>
12    6  0.1395358E-007  0.1971936E+04  0.7818608E-02  0.8619855E-01
         -1   -1    0    0    0  501 -0.00000000000E+00  0.00000000000E+00  0.38048261021E+03  0.38048261021E+03  0.00000000000E+00 0.  1.
          2   -1    0    0  501    0  0.00000000000E+00 -0.00000000000E+00 -0.25550001092E+04  0.25550001092E+04  0.00000000000E+00 0. -1.
         24    2    1    2    0    0 -0.56320134151E+03 -0.29097950346E+03 -0.19148318582E+03  0.66709590926E+03  0.80537688008E+02 0.  0.
        254    2    1    2    0    0  0.56320134151E+03  0.29097950346E+03 -0.19830343132E+04  0.22683868102E+04  0.90071572137E+03 0.  0.
         23    2    4    4    0    0 -0.16199360810E+02  0.86740624521E+02 -0.14335919278E+04  0.14392079615E+04  0.91364029392E+02 0.  0.
         23    2    4    4    0    0  0.57940070232E+03  0.20423887894E+03 -0.54944238544E+03  0.82917884868E+03  0.90730009665E+02 0.  0.
          2    1    3    3  502    0 -0.34306120644E+03 -0.21483018310E+03 -0.14199235528E+03  0.42895783929E+03  0.00000000000E+00 0. -1.
         -1    1    3    3    0  502 -0.22014013507E+03 -0.76149320361E+02 -0.49490830537E+02  0.23813806996E+03  0.00000000000E+00 0.  1.
         11    1    5    5    0    0  0.38108473215E+02  0.41388573558E+02 -0.62948826708E+03  0.63199742733E+03  0.00000000000E+00 0.  1.
        -11    1    5    5    0    0 -0.54307834025E+02  0.45352050963E+02 -0.80410366067E+03  0.80721053416E+03  0.00000000000E+00 0. -1.
          3    1    6    6  503    0  0.39315159844E+03  0.16615553262E+03 -0.42263875706E+03  0.60066576342E+03  0.00000000000E+00 0. -1.
         -3    1    6    6    0  503  0.18624910387E+03  0.38083346316E+02 -0.12680362838E+03  0.22851308525E+03  0.00000000000E+00 0.  1.
<mgrwt>
<rscale>  0 0.19719362E+04</rscale>
<asrwt>0</asrwt>
<pdfrwt beam="1">  1        2 0.39307696E+00 0.19719362E+04</pdfrwt>
<pdfrwt beam="2">  1       -1 0.58535784E-01 0.19719362E+04</pdfrwt>
<totfact> 0.10145455E+01</totfact>
</mgrwt>
</event>
<event>
12    6  0.1395358E-007  0.3060873E+04  0.7818608E-02  0.8226559E-01
          2   -1    0    0  501    0  0.00000000000E+00  0.00000000000E+00  0.18114861040E+04  0.18114861040E+04  0.00000000000E+00 0. -1.
         -1   -1    0    0    0  501 -0.00000000000E+00 -0.00000000000E+00 -0.12929915762E+04  0.12929915762E+04  0.00000000000E+00 0.  1.
         24    2    1    2    0    0  0.56508154436E+03  0.11044913233E+04 -0.41375985831E+03  0.13102473003E+04  0.79577211656E+02 0.  0.
        254    2    1    2    0    0 -0.56508154436E+03 -0.11044913233E+04  0.93225438609E+03  0.17942303798E+04  0.90052550238E+03 0.  0.
         23    2    4    4    0    0 -0.67852291561E+03 -0.53044023739E+03  0.81662357877E+03  0.11909415888E+04  0.98527183935E+02 0.  0.
         23    2    4    4    0    0  0.11344137125E+03 -0.57405108592E+03  0.11563080732E+03  0.60328879106E+03  0.90461527005E+02 0.  0.
          2    1    3    3  502    0  0.19448923431E+03  0.42629187199E+03 -0.12222529936E+03  0.48424151639E+03  0.00000000000E+00 0. -1.
         -1    1    3    3    0  502  0.37059231005E+03  0.67819945131E+03 -0.29153455894E+03  0.82600578393E+03  0.00000000000E+00 0.  1.
         11    1    5    5    0    0 -0.44582164440E+03 -0.39747458037E+03  0.52985587848E+03  0.79842985454E+03  0.00000000000E+00 0. -1.
        -11    1    5    5    0    0 -0.23270127121E+03 -0.13296565701E+03  0.28676770029E+03  0.39251173421E+03  0.00000000000E+00 0.  1.
          3    1    6    6  503    0  0.89033532245E+02 -0.23626184414E+03  0.66337447654E+02  0.26105035112E+03  0.00000000000E+00 0. -1.
         -3    1    6    6    0  503  0.24407839000E+02 -0.33778924178E+03  0.49293359668E+02  0.34223843994E+03  0.00000000000E+00 0.  1.
<mgrwt>
<rscale>  0 0.30608733E+04</rscale>
<asrwt>0</asrwt>
<pdfrwt beam="1">  1        2 0.27869017E+00 0.30608733E+04</pdfrwt>
<pdfrwt beam="2">  1       -1 0.19892178E+00 0.30608733E+04</pdfrwt>
<totfact> 0.12618730E+00</totfact>
</mgrwt>
</event>
<event>
12    6  0.1395358E-007  0.2181199E+04  0.7818608E-02  0.8526295E-01
         -1   -1    0    0    0  501 -0.00000000000E+00  0.00000000000E+00  0.64818213174E+03  0.64818213174E+03  0.00000000000E+00 0.  1.
          2   -1    0    0  501    0  0.00000000000E+00 -0.00000000000E+00 -0.18349886307E+04  0.18349886307E+04  0.00000000000E+00 0. -1.
         24    2    1    2    0    0  0.78528255700E+03  0.25349208917E+03 -0.80118575084E+02  0.83317498875E+03  0.82671894943E+02 0.  0.
        254    2    1    2    0    0 -0.78528255700E+03 -0.25349208917E+03 -0.11066879239E+04  0.16499957737E+04  0.90377041266E+03 0.  0.
         23    2    4    4    0    0 -0.31991327305E+03  0.30460458487E+03 -0.22498321425E+03  0.50395567182E+03  0.90694085055E+02 0.  0.
         23    2    4    4    0    0 -0.46536928394E+03 -0.55809667404E+03 -0.88170470966E+03  0.11460401019E+04  0.89242658738E+02 0.  0.
          2    1    3    3  502    0  0.65946356541E+03  0.23389861357E+03 -0.45373838125E+02  0.70118438425E+03  0.00000000000E+00 0. -1.
         -1    1    3    3    0  502  0.12581899158E+03  0.19593475603E+02 -0.34744736959E+02  0.13199060450E+03  0.00000000000E+00 0.  1.
         11    1    5    5    0    0 -0.32176511505E+03  0.30604997253E+03 -0.21440834410E+03  0.49312302011E+03  0.00000000000E+00 0.  1.
        -11    1    5    5    0    0  0.18518419914E+01 -0.14453876583E+01 -0.10574870155E+02  0.10832651709E+02  0.00000000000E+00 0. -1.
          2    1    6    6  503    0  0.42185952594E+01 -0.48105209946E+01 -0.86484944066E+01  0.10757979072E+02  0.00000000000E+00 0. -1.
         -2    1    6    6    0  503 -0.46958787920E+03 -0.55328615305E+03 -0.87305621525E+03  0.11352821228E+04  0.00000000000E+00 0.  1.
<mgrwt>
<rscale>  0 0.21811986E+04</rscale>
<asrwt>0</asrwt>
<pdfrwt beam="1">  1        2 0.28230594E+00 0.21811986E+04</pdfrwt>
<pdfrwt beam="2">  1       -1 0.99720330E-01 0.21811986E+04</pdfrwt>
<totfact> 0.82493046E+00</totfact>
</mgrwt>
</event>
<event>
12    6  0.1395358E-007  0.1311578E+04  0.7818608E-02  0.9020433E-01
         -1   -1    0    0    0  501 -0.00000000000E+00  0.00000000000E+00  0.30745033585E+03  0.30745033585E+03  0.00000000000E+00 0.  1.
          2   -1    0    0  501    0  0.00000000000E+00 -0.00000000000E+00 -0.13987933755E+04  0.13987933755E+04  0.00000000000E+00 0. -1.
         24    2    1    2    0    0  0.21517633192E+03  0.18823602575E+03 -0.55667052156E+03  0.63049361765E+03  0.76853608325E+02 0.  0.
        254    2    1    2    0    0 -0.21517633192E+03 -0.18823602575E+03 -0.53467251809E+03  0.10757500937E+04  0.88861122392E+03 0.  0.
         23    2    4    4    0    0 -0.77597011948E+00  0.29993777057E+03 -0.41711045150E+03  0.52182978690E+03  0.91443585937E+02 0.  0.
         23    2    4    4    0    0 -0.21440036181E+03 -0.48817379632E+03 -0.11756206659E+03  0.55392030679E+03  0.93411435172E+02 0.  0.
          2    1    3    3  502    0  0.13303886443E+03  0.91474326634E+02 -0.38074678975E+03  0.41356379167E+03  0.00000000000E+00 0. -1.
         -1    1    3    3    0  502  0.82137467497E+02  0.96761699117E+02 -0.17592373181E+03  0.21692982597E+03  0.00000000000E+00 0.  1.
         11    1    5    5    0    0  0.27695216344E+02  0.16028145521E+03 -0.16178065876E+03  0.22941262267E+03  0.00000000000E+00 0.  1.
        -11    1    5    5    0    0 -0.28471186463E+02  0.13965631536E+03 -0.25532979274E+03  0.29241716423E+03  0.00000000000E+00 0. -1.
          3    1    6    6  503    0 -0.26990792461E+02 -0.10344129482E+03  0.99776922413E+01  0.10736926327E+03  0.00000000000E+00 0. -1.
         -3    1    6    6    0  503 -0.18740956934E+03 -0.38473250150E+03 -0.12753975883E+03  0.44655104352E+03  0.00000000000E+00 0.  1.
<mgrwt>
<rscale>  0 0.13115784E+04</rscale>
<asrwt>0</asrwt>
<pdfrwt beam="1">  1        2 0.21519898E+00 0.13115784E+04</pdfrwt>
<pdfrwt beam="2">  1       -1 0.47300053E-01 0.13115784E+04</pdfrwt>
<totfact> 0.72125212E+01</totfact>
</mgrwt>
</event>
<event>
12    6  0.1395358E-007  0.2517292E+04  0.7818608E-02  0.8396851E-01
         -1   -1    0    0    0  501 -0.00000000000E+00  0.00000000000E+00  0.12178874303E+04  0.12178874303E+04  0.00000000000E+00 0.  1.
          2   -1    0    0  501    0  0.00000000000E+00 -0.00000000000E+00 -0.13007681884E+04  0.13007681884E+04  0.00000000000E+00 0. -1.
         24    2    1    2    0    0  0.22694258619E+03 -0.73585901274E+03 -0.81422446564E+03  0.11247233517E+04  0.95129980904E+02 0.  0.
        254    2    1    2    0    0 -0.22694258619E+03  0.73585901274E+03  0.73134370754E+03  0.13939322670E+04  0.90287990470E+03 0.  0.
         23    2    4    4    0    0  0.29980721470E+03  0.54094724013E+02  0.15360040879E+03  0.35262961079E+03  0.89128848723E+02 0.  0.
         23    2    4    4    0    0 -0.52674980088E+03  0.68176428873E+03  0.57774329875E+03  0.10413026562E+04  0.90862557839E+02 0.  0.
          4    1    3    3  502    0  0.18649483983E+03 -0.65247542036E+03 -0.75293021348E+03  0.10136115656E+04  0.00000000000E+00 0. -1.
         -3    1    3    3    0  502  0.40447746353E+02 -0.83383592386E+02 -0.61294252162E+02  0.11111178611E+03  0.00000000000E+00 0.  1.
         11    1    5    5    0    0  0.10208608041E+03 -0.38704994257E+01  0.12539338633E+02  0.10292610744E+03  0.00000000000E+00 0.  1.
        -11    1    5    5    0    0  0.19772113429E+03  0.57965223439E+02  0.14106107016E+03  0.24970350336E+03  0.00000000000E+00 0. -1.
          4    1    6    6  503    0 -0.13399545454E+03  0.22907800252E+03  0.20711361696E+03  0.33664159489E+03  0.00000000000E+00 0.  1.
         -4    1    6    6    0  503 -0.39275434635E+03  0.45268628621E+03  0.37062968179E+03  0.70466106130E+03  0.00000000000E+00 0. -1.
<mgrwt>
<rscale>  0 0.25172916E+04</rscale>
<asrwt>0</asrwt>
<pdfrwt beam="1">  1        2 0.20011818E+00 0.25172916E+04</pdfrwt>
<pdfrwt beam="2">  1       -1 0.18736730E+00 0.25172916E+04</pdfrwt>
<totfact> 0.30905952E+00</totfact>
</mgrwt>
</event>
<event>
12    6  0.1395358E-007  0.2629566E+04  0.7818608E-02  0.8358227E-01
         -1   -1    0    0    0  501 -0.00000000000E+00  0.00000000000E+00  0.90010998826E+03  0.90010998826E+03  0.00000000000E+00 0.  1.
          2   -1    0    0  501    0  0.00000000000E+00 -0.00000000000E+00 -0.19204929051E+04  0.19204929051E+04  0.00000000000E+00 0. -1.
         24    2    1    2    0    0 -0.69493987954E+03  0.14586349413E+03  0.52982811004E+03  0.88956284083E+03  0.79916371923E+02 0.  0.
        254    2    1    2    0    0  0.69493987954E+03 -0.14586349413E+03 -0.15502110268E+04  0.19310400525E+04  0.90639056786E+03 0.  0.
         23    2    4    4    0    0 -0.19468993658E+03 -0.42627382793E+02 -0.14490066296E+03  0.26215516455E+03  0.89486663840E+02 0.  0.
         23    2    4    4    0    0  0.88962981612E+03 -0.10323611134E+03 -0.14053103639E+04  0.16688848879E+04  0.90446923419E+02 0.  0.
          2    1    3    3  502    0 -0.18490861659E+03  0.10702871726E+02  0.11127122748E+03  0.21607182606E+03  0.00000000000E+00 0. -1.
         -1    1    3    3    0  502 -0.51003126295E+03  0.13516062241E+03  0.41855688256E+03  0.67349101477E+03  0.00000000000E+00 0.  1.
         11    1    5    5    0    0 -0.19304549801E+02 -0.11741928608E+02 -0.61480319204E+02  0.65500902131E+02  0.00000000000E+00 0. -1.
        -11    1    5    5    0    0 -0.17538538678E+03 -0.30885454184E+02 -0.83420343757E+02  0.19665426242E+03  0.00000000000E+00 0.  1.
          3    1    6    6  503    0  0.29096783474E+03 -0.55275644295E+02 -0.39771062095E+03  0.49587439510E+03  0.00000000000E+00 0. -1.
         -3    1    6    6    0  503  0.59866198138E+03 -0.47960467047E+02 -0.10075997429E+04  0.11730104928E+04  0.00000000000E+00 0.  1.
<mgrwt>
<rscale>  0 0.26295664E+04</rscale>
<asrwt>0</asrwt>
<pdfrwt beam="1">  1        2 0.29546044E+00 0.26295664E+04</pdfrwt>
<pdfrwt beam="2">  1       -1 0.13847846E+00 0.26295664E+04</pdfrwt>
<totfact> 0.32034227E+00</totfact>
</mgrwt>
</event>
<event>
12    6  0.1395358E-007  0.1320327E+04  0.7818608E-02  0.9013599E-01
         -1   -1    0    0    0  501 -0.00000000000E+00  0.00000000000E+00  0.14281013727E+04  0.14281013727E+04  0.00000000000E+00 0.  1.
          2   -1    0    0  501    0  0.00000000000E+00 -0.00000000000E+00 -0.30517143136E+03  0.30517143136E+03  0.00000000000E+00 0. -1.
         24    2    1    2    0    0 -0.29517785230E+03  0.10478297790E+03  0.49709582172E+03  0.59314145705E+03  0.81259431148E+02 0.  0.
        254    2    1    2    0    0  0.29517785230E+03 -0.10478297790E+03  0.62583411958E+03  0.11401313470E+04  0.90006761201E+03 0.  0.
         23    2    4    4    0    0  0.35626173911E+03 -0.13266457439E+03 -0.10142466203E+03  0.40394172822E+03  0.91431076098E+02 0.  0.
         23    2    4    4    0    0 -0.61083886812E+02  0.27881596489E+02  0.72725878161E+03  0.73618961876E+03  0.92526724201E+02 0.  0.
          2    1    3    3  502    0 -0.22978507231E+03  0.64232938695E+02  0.31265395275E+03  0.39329320365E+03  0.00000000000E+00 0. -1.
         -1    1    3    3    0  502 -0.65392779984E+02  0.40550039208E+02  0.18444186898E+03  0.19984825340E+03  0.00000000000E+00 0.  1.
         11    1    5    5    0    0  0.51427211584E+02 -0.19871617779E+02 -0.50841118443E+02  0.74996390640E+02  0.00000000000E+00 0.  1.
        -11    1    5    5    0    0  0.30483452752E+03 -0.11279295661E+03 -0.50583543590E+02  0.32894533758E+03  0.00000000000E+00 0. -1.
          3    1    6    6  503    0  0.50967690055E+01 -0.27300042032E+02  0.15260473305E+03  0.15511116626E+03  0.00000000000E+00 0.  1.
         -3    1    6    6    0  503 -0.66180655817E+02  0.55181638521E+02  0.57465404856E+03  0.58107845250E+03  0.00000000000E+00 0. -1.
<mgrwt>
<rscale>  0 0.13203268E+04</rscale>
<asrwt>0</asrwt>
<pdfrwt beam="1">  1        2 0.46949452E-01 0.13203268E+04</pdfrwt>
<pdfrwt beam="2">  1       -1 0.21970790E+00 0.13203268E+04</pdfrwt>
<totfact> 0.13355900E+01</totfact>
</mgrwt>
</event>
<event>
12    6  0.1395358E-007  0.2542505E+04  0.7818608E-02  0.8387998E-01
         -1   -1    0    0    0  501 -0.00000000000E+00  0.00000000000E+00  0.83215132969E+03  0.83215132969E+03  0.00000000000E+00 0.  1.
          2   -1    0    0  501    0  0.00000000000E+00 -0.00000000000E+00 -0.19420534597E+04  0.19420534597E+04  0.00000000000E+00 0. -1.
         24    2    1    2    0    0 -0.77054644410E+03  0.79696938919E+03 -0.41396610961E+03  0.11859506453E+04  0.78796974841E+02 0.  0.
        254    2    1    2    0    0  0.77054644410E+03 -0.79696938919E+03 -0.69593602037E+03  0.15882541441E+04  0.89962339455E+03 0.  0.
         23    2    4    4    0    0  0.31121357423E+03 -0.70092000788E+03 -0.78611058145E+03  0.11015548784E+04  0.85501799441E+02 0.  0.
         23    2    4    4    0    0  0.45933286987E+03 -0.96049381310E+02  0.90174561078E+02  0.48669926568E+03  0.92371828770E+02 0.  0.
          4    1    3    3  502    0 -0.52467878830E+03  0.55922033979E+03 -0.32277929235E+03  0.83198659298E+03  0.00000000000E+00 0. -1.
         -3    1    3    3    0  502 -0.24586765580E+03  0.23774904940E+03 -0.91186817265E+02  0.35396405227E+03  0.00000000000E+00 0.  1.
         11    1    5    5    0    0  0.27799054487E+03 -0.65111554685E+03 -0.75122346724E+03  0.10322629976E+04  0.00000000000E+00 0. -1.
        -11    1    5    5    0    0  0.33223029355E+02 -0.49804461023E+02 -0.34887114203E+02  0.69291880872E+02  0.00000000000E+00 0.  1.
          2    1    6    6  503    0  0.38545892838E+03 -0.98012703844E+02  0.10494526296E+03  0.41133755457E+03  0.00000000000E+00 0. -1.
         -2    1    6    6    0  503  0.73873941486E+02  0.19633225342E+01 -0.14770701880E+02  0.75361711101E+02  0.00000000000E+00 0.  1.
<mgrwt>
<rscale>  0 0.25425046E+04</rscale>
<asrwt>0</asrwt>
<pdfrwt beam="1">  1        2 0.29877745E+00 0.25425046E+04</pdfrwt>
<pdfrwt beam="2">  1       -1 0.12802328E+00 0.25425046E+04</pdfrwt>
<totfact> 0.38361172E+00</totfact>
</mgrwt>
</event>
<event>
12    6  0.1395358E-007  0.1949984E+04  0.7818608E-02  0.8630368E-01
          2   -1    0    0  501    0  0.00000000000E+00  0.00000000000E+00  0.31141646725E+04  0.31141646725E+04  0.00000000000E+00 0. -1.
         -1   -1    0    0    0  501 -0.00000000000E+00 -0.00000000000E+00 -0.30525349151E+03  0.30525349151E+03  0.00000000000E+00 0.  1.
         24    2    1    2    0    0  0.63434159228E+03 -0.40518640658E+03  0.85810162952E+03  0.11441215562E+04  0.78169360817E+02 0.  0.
        254    2    1    2    0    0 -0.63434159228E+03  0.40518640658E+03  0.19508095514E+04  0.22752966078E+04  0.89707940992E+03 0.  0.
         23    2    4    4    0    0 -0.20095885244E+03 -0.23448346101E+03  0.25508538151E+03  0.40961516649E+03  0.85726768829E+02 0.  0.
         23    2    4    4    0    0 -0.43338273983E+03  0.63966986759E+03  0.16957241699E+04  0.18656814413E+04  0.91041975458E+02 0.  0.
          4    1    3    3  502    0  0.12104629704E+03 -0.61897670827E+02  0.19830964800E+03  0.24043760972E+03  0.00000000000E+00 0. -1.
         -3    1    3    3    0  502  0.51329529524E+03 -0.34328873576E+03  0.65979198152E+03  0.90368394646E+03  0.00000000000E+00 0.  1.
         11    1    5    5    0    0 -0.90139280355E+02 -0.46643625364E+02  0.95617647905E+02  0.13943977998E+03  0.00000000000E+00 0. -1.
        -11    1    5    5    0    0 -0.11081957209E+03 -0.18783983564E+03  0.15946773361E+03  0.27017538651E+03  0.00000000000E+00 0.  1.
          1    1    6    6  503    0 -0.16940888427E+03  0.27017921322E+03  0.59743732718E+03  0.67722044951E+03  0.00000000000E+00 0. -1.
         -1    1    6    6    0  503 -0.26397385556E+03  0.36949065437E+03  0.10982868427E+04  0.11884609918E+04  0.00000000000E+00 0.  1.
<mgrwt>
<rscale>  0 0.19499842E+04</rscale>
<asrwt>0</asrwt>
<pdfrwt beam="1">  1        2 0.47910224E+00 0.19499842E+04</pdfrwt>
<pdfrwt beam="2">  1       -1 0.46962078E-01 0.19499842E+04</pdfrwt>
<totfact> 0.70974856E+00</totfact>
</mgrwt>
</event>
<event>
12    6  0.1395358E-007  0.1436934E+04  0.7818608E-02  0.8927509E-01
         -1   -1    0    0    0  501 -0.00000000000E+00  0.00000000000E+00  0.56944218352E+03  0.56944218352E+03  0.00000000000E+00 0.  1.
          2   -1    0    0  501    0  0.00000000000E+00 -0.00000000000E+00 -0.90649198653E+03  0.90649198653E+03  0.00000000000E+00 0. -1.
         24    2    1    2    0    0 -0.17508784676E+03 -0.34705864456E+03 -0.29882156300E+03  0.49497215731E+03  0.67805996435E+02 0.  0.
        254    2    1    2    0    0  0.17508784676E+03  0.34705864456E+03 -0.38228240009E+02  0.98096201274E+03  0.89984421721E+03 0.  0.
         23    2    4    4    0    0  0.28527430219E+03 -0.89595746418E+02 -0.31446863699E+03  0.44516954578E+03  0.99380961824E+02 0.  0.
         23    2    4    4    0    0 -0.11018645542E+03  0.43665439098E+03  0.27624039698E+03  0.53579246696E+03  0.89200328518E+02 0.  0.
          2    1    3    3  502    0  0.46830803740E+01 -0.27599598490E+02 -0.19632492283E+02  0.34192160386E+02  0.00000000000E+00 0. -1.
         -1    1    3    3    0  502 -0.17977092714E+03 -0.31945904607E+03 -0.27918907072E+03  0.46077999693E+03  0.00000000000E+00 0.  1.
         11    1    5    5    0    0  0.67747725797E+02 -0.68441802390E+02 -0.10430482437E+03  0.14196313272E+03  0.00000000000E+00 0.  1.
        -11    1    5    5    0    0  0.21752657639E+03 -0.21153944028E+02 -0.21016381262E+03  0.30320641306E+03  0.00000000000E+00 0. -1.
          2    1    6    6  503    0 -0.12452899921E+03  0.37066249047E+03  0.24452027956E+03  0.46118144000E+03  0.00000000000E+00 0. -1.
         -2    1    6    6    0  503  0.14342543782E+02  0.65991900505E+02  0.31720117418E+02  0.74611026956E+02  0.00000000000E+00 0.  1.
<mgrwt>
<rscale>  0 0.14369339E+04</rscale>
<asrwt>0</asrwt>
<pdfrwt beam="1">  1        2 0.13946030E+00 0.14369339E+04</pdfrwt>
<pdfrwt beam="2">  1       -1 0.87606491E-01 0.14369339E+04</pdfrwt>
<totfact> 0.41231103E+01</totfact>
</mgrwt>
</event>
<event>
12    6  0.1395358E-007  0.1373967E+04  0.7818608E-02  0.8972881E-01
          2   -1    0    0  501    0  0.00000000000E+00  0.00000000000E+00  0.66263235499E+03  0.66263235499E+03  0.00000000000E+00 0. -1.
         -1   -1    0    0    0  501 -0.00000000000E+00 -0.00000000000E+00 -0.71222991314E+03  0.71222991314E+03  0.00000000000E+00 0.  1.
         24    2    1    2    0    0  0.26826848639E+03 -0.15990790083E+03  0.21127873783E+03  0.38691692495E+03  0.86761075444E+02 0.  0.
        254    2    1    2    0    0 -0.26826848639E+03  0.15990790083E+03 -0.26087629598E+03  0.98794534318E+03  0.90024498986E+03 0.  0.
         23    2    4    4    0    0 -0.57929844197E+03  0.46433744888E+02 -0.64038434159E+02  0.59229525999E+03  0.94709959447E+02 0.  0.
         23    2    4    4    0    0  0.31102995558E+03  0.11347415595E+03 -0.19683786182E+03  0.39565008319E+03  0.90431339420E+02 0.  0.
          2    1    3    3  502    0  0.17364433030E+03 -0.11312273546E+03  0.18578020713E+03  0.27832246061E+03  0.00000000000E+00 0. -1.
         -1    1    3    3    0  502  0.94624156099E+02 -0.46785165377E+02  0.25498530704E+02  0.10859446434E+03  0.00000000000E+00 0.  1.
         11    1    5    5    0    0 -0.52350139883E+03  0.61372380805E+02 -0.36623592300E+02  0.52835742752E+03  0.00000000000E+00 0. -1.
        -11    1    5    5    0    0 -0.55797043141E+02 -0.14938635917E+02 -0.27414841859E+02  0.63937832466E+02  0.00000000000E+00 0.  1.
          4    1    6    6  503    0  0.18959542630E+03  0.22686433567E+02 -0.12169692954E+03  0.22643154065E+03  0.00000000000E+00 0. -1.
         -4    1    6    6    0  503  0.12143452927E+03  0.90787722378E+02 -0.75140932277E+02  0.16921854254E+03  0.00000000000E+00 0.  1.
<mgrwt>
<rscale>  0 0.13739674E+04</rscale>
<asrwt>0</asrwt>
<pdfrwt beam="1">  1        2 0.10194344E+00 0.13739674E+04</pdfrwt>
<pdfrwt beam="2">  1       -1 0.10957383E+00 0.13739674E+04</pdfrwt>
<totfact> 0.37683531E+01</totfact>
</mgrwt>
</event>
<event>
12    6  0.1395358E-007  0.1632055E+04  0.7818608E-02  0.8801094E-01
         -3   -1    0    0    0  501 -0.00000000000E+00  0.00000000000E+00  0.77104123456E+03  0.77104123456E+03  0.00000000000E+00 0.  1.
          4   -1    0    0  501    0  0.00000000000E+00 -0.00000000000E+00 -0.86363856378E+03  0.86363856378E+03  0.00000000000E+00 0. -1.
         24    2    1    2    0    0 -0.36484663090E+03  0.31876342865E+03 -0.32105497007E+03  0.58657476859E+03  0.79186348644E+02 0.  0.
        254    2    1    2    0    0  0.36484663090E+03 -0.31876342865E+03  0.22845764085E+03  0.10481050298E+04  0.90089293049E+03 0.  0.
         23    2    4    4    0    0  0.20694072035E+03 -0.88298175015E+02 -0.33423038581E+03  0.41328631059E+03  0.92057559565E+02 0.  0.
         23    2    4    4    0    0  0.15790591055E+03 -0.23046525363E+03  0.56268802665E+03  0.63481871917E+03  0.91260512545E+02 0.  0.
          2    1    3    3  502    0 -0.92018294595E+02  0.11538816280E+03 -0.12785305370E+03  0.19526443095E+03  0.00000000000E+00 0. -1.
         -1    1    3    3    0  502 -0.27282833631E+03  0.20337526585E+03 -0.19320191637E+03  0.39131033763E+03  0.00000000000E+00 0.  1.
         11    1    5    5    0    0  0.13975093898E+03 -0.10273636368E+03 -0.25506109920E+03  0.30844975230E+03  0.00000000000E+00 0. -1.
        -11    1    5    5    0    0  0.67189781371E+02  0.14438188662E+02 -0.79169286607E+02  0.10483655829E+03  0.00000000000E+00 0.  1.
          4    1    6    6  503    0  0.14391487328E+02 -0.31449801689E+02  0.21809202915E+02  0.40888216709E+02  0.00000000000E+00 0.  1.
         -4    1    6    6    0  503  0.14351442322E+03 -0.19901545194E+03  0.54087882373E+03  0.59393050246E+03  0.00000000000E+00 0. -1.
<mgrwt>
<rscale>  0 0.16320551E+04</rscale>
<asrwt>0</asrwt>
<pdfrwt beam="1">  1        4 0.13286747E+00 0.16320551E+04</pdfrwt>
<pdfrwt beam="2">  1       -3 0.11862173E+00 0.16320551E+04</pdfrwt>
<totfact> 0.52059767E-01</totfact>
</mgrwt>
</event>
<event>
12    6  0.1395358E-007  0.1432552E+04  0.7818608E-02  0.8930587E-01
         -1   -1    0    0    0  501 -0.00000000000E+00  0.00000000000E+00  0.73321743482E+03  0.73321743482E+03  0.00000000000E+00 0.  1.
          2   -1    0    0  501    0  0.00000000000E+00 -0.00000000000E+00 -0.69972607459E+03  0.69972607459E+03  0.00000000000E+00 0. -1.
         24    2    1    2    0    0 -0.39677939535E+03 -0.15841944245E+03  0.18872384009E+02  0.43500420277E+03  0.79635929240E+02 0.  0.
        254    2    1    2    0    0  0.39677939535E+03  0.15841944245E+03  0.14618976218E+02  0.99793930664E+03  0.90174194587E+03 0.  0.
         23    2    4    4    0    0  0.14391277376E+03  0.24966909289E+03  0.41094280758E+03  0.51028610110E+03  0.92045485902E+02 0.  0.
         23    2    4    4    0    0  0.25286662158E+03 -0.91249650442E+02 -0.39632383136E+03  0.48765320554E+03  0.92005665846E+02 0.  0.
          4    1    3    3  502    0 -0.15144189214E+03 -0.85691709300E+02 -0.23650610064E+02  0.17560486068E+03  0.00000000000E+00 0. -1.
         -3    1    3    3    0  502 -0.24533750321E+03 -0.72727733150E+02  0.42522994073E+02  0.25939934209E+03  0.00000000000E+00 0.  1.
         11    1    5    5    0    0  0.55893141564E+02  0.67345395739E+02  0.19789415907E+03  0.21638286392E+03  0.00000000000E+00 0. -1.
        -11    1    5    5    0    0  0.88019632200E+02  0.18232369715E+03  0.21304864851E+03  0.29390323719E+03  0.00000000000E+00 0.  1.
          1    1    6    6  503    0  0.27723713773E+02 -0.30645590343E+01 -0.60427317755E+01  0.28539629198E+02  0.00000000000E+00 0. -1.
         -1    1    6    6    0  503  0.22514290781E+03 -0.88185091407E+02 -0.39028109959E+03  0.45911357634E+03  0.00000000000E+00 0.  1.
<mgrwt>
<rscale>  0 0.14325521E+04</rscale>
<asrwt>0</asrwt>
<pdfrwt beam="1">  1        2 0.10765017E+00 0.14325521E+04</pdfrwt>
<pdfrwt beam="2">  1       -1 0.11280268E+00 0.14325521E+04</pdfrwt>
<totfact> 0.32696155E+01</totfact>
</mgrwt>
</event>
<event>
12    6  0.1395358E-007  0.3191202E+04  0.7818608E-02  0.8191144E-01
          2   -1    0    0  501    0  0.00000000000E+00  0.00000000000E+00  0.11982725348E+04  0.11982725348E+04  0.00000000000E+00 0. -1.
         -1   -1    0    0    0  501 -0.00000000000E+00 -0.00000000000E+00 -0.21246777279E+04  0.21246777279E+04  0.00000000000E+00 0.  1.
         24    2    1    2    0    0  0.89413869463E+03 -0.63154829535E+03  0.59102556394E+03  0.12466756246E+04  0.80942208077E+02 0.  0.
        254    2    1    2    0    0 -0.89413869463E+03  0.63154829535E+03 -0.15174307571E+04  0.20762746381E+04  0.89999056418E+03 0.  0.
         23    2    4    4    0    0 -0.27671180632E+03  0.16192282416E+03 -0.11791595723E+04  0.12251780926E+04  0.88632030963E+02 0.  0.
         23    2    4    4    0    0 -0.61742688832E+03  0.46962547119E+03 -0.33827118476E+03  0.85109654546E+03  0.90409566078E+02 0.  0.
          2    1    3    3  502    0  0.33467464849E+03 -0.19126054588E+03  0.22077509366E+03  0.44421769295E+03  0.00000000000E+00 0. -1.
         -1    1    3    3    0  502  0.55946404615E+03 -0.44028774947E+03  0.37025047028E+03  0.80245793161E+03  0.00000000000E+00 0.  1.
         11    1    5    5    0    0 -0.16012913609E+02  0.13188008487E+02 -0.24288325789E+02  0.31941504970E+02  0.00000000000E+00 0.  1.
        -11    1    5    5    0    0 -0.26069889271E+03  0.14873481567E+03 -0.11548712466E+04  0.11932365877E+04  0.00000000000E+00 0. -1.
          2    1    6    6  503    0 -0.61685783220E+03  0.47212470152E+03 -0.33286221003E+03  0.84511098076E+03  0.00000000000E+00 0. -1.
         -2    1    6    6    0  503 -0.56905612073E+00 -0.24992303305E+01 -0.54089747334E+01  0.59855647002E+01  0.00000000000E+00 0.  1.
<mgrwt>
<rscale>  0 0.31912023E+04</rscale>
<asrwt>0</asrwt>
<pdfrwt beam="1">  1        2 0.18434962E+00 0.31912023E+04</pdfrwt>
<pdfrwt beam="2">  1       -1 0.32687349E+00 0.31912023E+04</pdfrwt>
<totfact> 0.40211023E-01</totfact>
</mgrwt>
</event>
<event>
12    6  0.1395358E-007  0.1043479E+04  0.7818608E-02  0.9262102E-01
          2   -1    0    0  501    0  0.00000000000E+00  0.00000000000E+00  0.17332502583E+04  0.17332502583E+04  0.00000000000E+00 0. -1.
         -1   -1    0    0    0  501 -0.00000000000E+00 -0.00000000000E+00 -0.15705302274E+03  0.15705302274E+03  0.00000000000E+00 0.  1.
         24    2    1    2    0    0 -0.73153432528E+02  0.69377685068E+02  0.11143011393E+03  0.16857908372E+03  0.76403856590E+02 0.  0.
        254    2    1    2    0    0  0.73153432528E+02 -0.69377685068E+02  0.14647671217E+04  0.17217241973E+04  0.89923678925E+03 0.  0.
         23    2    4    4    0    0  0.46313217852E+03 -0.15045951758E+03  0.75887489471E+03  0.90630032021E+03  0.91431304167E+02 0.  0.
         23    2    4    4    0    0 -0.38997874599E+03  0.81081832510E+02  0.70589222694E+03  0.81542387712E+03  0.89300489568E+02 0.  0.
          2    1    3    3  502    0 -0.15108202075E+02  0.66105973553E+02  0.67800480933E+02  0.95891411107E+02  0.00000000000E+00 0. -1.
         -1    1    3    3    0  502 -0.58045230453E+02  0.32717115149E+01  0.43629632992E+02  0.72687672611E+02  0.00000000000E+00 0.  1.
         11    1    5    5    0    0  0.45528819027E+03 -0.14117697848E+03  0.70468165008E+03  0.85076113182E+03  0.00000000000E+00 0.  1.
        -11    1    5    5    0    0  0.78439882503E+01 -0.92825390941E+01  0.54193244632E+02  0.55539188394E+02  0.00000000000E+00 0. -1.
          3    1    6    6  503    0 -0.13159421512E+03  0.63435195085E+02  0.20762151561E+03  0.25386562424E+03  0.00000000000E+00 0. -1.
         -3    1    6    6    0  503 -0.25838453088E+03  0.17646637425E+02  0.49827071133E+03  0.56155825288E+03  0.00000000000E+00 0.  1.
<mgrwt>
<rscale>  0 0.10434792E+04</rscale>
<asrwt>0</asrwt>
<pdfrwt beam="1">  1        2 0.26665387E+00 0.10434792E+04</pdfrwt>
<pdfrwt beam="2">  1       -1 0.24162005E-01 0.10434792E+04</pdfrwt>
<totfact> 0.15843868E+02</totfact>
</mgrwt>
</event>
<event>
12    6  0.1395358E-007  0.3103781E+04  0.7818608E-02  0.8214701E-01
         -1   -1    0    0    0  501 -0.00000000000E+00  0.00000000000E+00  0.63301210351E+03  0.63301210351E+03  0.00000000000E+00 0.  1.
          2   -1    0    0  501    0  0.00000000000E+00 -0.00000000000E+00 -0.38046106580E+04  0.38046106580E+04  0.00000000000E+00 0. -1.
         24    2    1    2    0    0  0.10751004277E+04 -0.55184890937E+03 -0.25182107606E+04  0.27943169415E+04  0.80271954121E+02 0.  0.
        254    2    1    2    0    0 -0.10751004277E+04  0.55184890937E+03 -0.65338779392E+03  0.16433058200E+04  0.90175399102E+03 0.  0.
         23    2    4    4    0    0 -0.72863509230E+03  0.23463482798E+03  0.71838237917E+02  0.77434011287E+03  0.92082993767E+02 0.  0.
         23    2    4    4    0    0 -0.34646533541E+03  0.31721408140E+03 -0.72522603184E+03  0.86896570712E+03  0.92117320922E+02 0.  0.
          2    1    3    3  502    0  0.58765610164E+03 -0.26268621213E+03 -0.13853711282E+04  0.15276115026E+04  0.00000000000E+00 0. -1.
         -1    1    3    3    0  502  0.48744432607E+03 -0.28916269725E+03 -0.11328396324E+04  0.12667054390E+04  0.00000000000E+00 0.  1.
         11    1    5    5    0    0 -0.19557353651E+03  0.21711422681E+02  0.10421769955E+02  0.19705077352E+03  0.00000000000E+00 0. -1.
        -11    1    5    5    0    0 -0.53306155579E+03  0.21292340530E+03  0.61416467961E+02  0.57728933935E+03  0.00000000000E+00 0.  1.
          4    1    6    6  503    0 -0.17967125086E+02  0.46399150634E+02 -0.48660923964E+02  0.69595863989E+02  0.00000000000E+00 0. -1.
         -4    1    6    6    0  503 -0.32849821033E+03  0.27081493076E+03 -0.67656510788E+03  0.79936984313E+03  0.00000000000E+00 0.  1.
<mgrwt>
<rscale>  0 0.31037813E+04</rscale>
<asrwt>0</asrwt>
<pdfrwt beam="1">  1        2 0.58532471E+00 0.31037813E+04</pdfrwt>
<pdfrwt beam="2">  1       -1 0.97386479E-01 0.31037813E+04</pdfrwt>
<totfact> 0.47490386E-01</totfact>
</mgrwt>
</event>
<event>
12    6  0.1395358E-007  0.1318713E+04  0.7818608E-02  0.9014856E-01
          2   -1    0    0  501    0  0.00000000000E+00  0.00000000000E+00  0.13954459031E+04  0.13954459031E+04  0.00000000000E+00 0. -1.
         -1   -1    0    0    0  501 -0.00000000000E+00 -0.00000000000E+00 -0.31154985802E+03  0.31154985802E+03  0.00000000000E+00 0.  1.
         24    2    1    2    0    0  0.27482487285E+03  0.12859243002E+01  0.21036365304E+02  0.28705241125E+03  0.80163544098E+02 0.  0.
        254    2    1    2    0    0 -0.27482487285E+03 -0.12859243002E+01  0.10628596798E+04  0.14199433498E+04  0.90057651179E+03 0.  0.
         23    2    4    4    0    0 -0.49114756126E+03  0.27610910055E+02  0.22371897637E+03  0.54805788754E+03  0.91263236954E+02 0.  0.
         23    2    4    4    0    0  0.21632268841E+03 -0.28896834356E+02  0.83914070338E+03  0.87188546230E+03  0.91633000305E+02 0.  0.
          4    1    3    3  502    0  0.11462447720E+03  0.35863094524E+02 -0.89714149065E+01  0.12043844323E+03  0.00000000000E+00 0. -1.
         -3    1    3    3    0  502  0.16020039565E+03 -0.34577170224E+02  0.30007780210E+02  0.16661396803E+03  0.00000000000E+00 0.  1.
         11    1    5    5    0    0 -0.46498198984E+03  0.47157052066E+02  0.20437683296E+03  0.51009991991E+03  0.00000000000E+00 0.  1.
        -11    1    5    5    0    0 -0.26165571419E+02 -0.19546142010E+02  0.19342143412E+02  0.37957967635E+02  0.00000000000E+00 0. -1.
          3    1    6    6  503    0  0.91861972213E+02  0.69203959154E+01  0.50863836560E+03  0.51691343645E+03  0.00000000000E+00 0. -1.
         -3    1    6    6    0  503  0.12446071620E+03 -0.35817230271E+02  0.33050233778E+03  0.35497202585E+03  0.00000000000E+00 0.  1.
<mgrwt>
<rscale>  0 0.13187130E+04</rscale>
<asrwt>0</asrwt>
<pdfrwt beam="1">  1        2 0.21468398E+00 0.13187130E+04</pdfrwt>
<pdfrwt beam="2">  1       -1 0.47930748E-01 0.13187130E+04</pdfrwt>
<totfact> 0.70620999E+01</totfact>
</mgrwt>
</event>
<event>
12    6  0.1395358E-007  0.1930076E+04  0.7818608E-02  0.8640029E-01
          2   -1    0    0  501    0  0.00000000000E+00  0.00000000000E+00  0.21662674096E+04  0.21662674096E+04  0.00000000000E+00 0. -1.
         -1   -1    0    0    0  501 -0.00000000000E+00 -0.00000000000E+00 -0.42990933347E+03  0.42990933347E+03  0.00000000000E+00 0.  1.
         24    2    1    2    0    0 -0.60037653543E+02 -0.44763606346E+03  0.14878569259E+04  0.15580465370E+04  0.99036430816E+02 0.  0.
        254    2    1    2    0    0  0.60037653543E+02  0.44763606346E+03  0.24850115024E+03  0.10381302060E+04  0.90109873918E+03 0.  0.
         23    2    4    4    0    0  0.95080603135E+02  0.47105115020E+03 -0.23624778493E+03  0.54356461561E+03  0.93380770281E+02 0.  0.
         23    2    4    4    0    0 -0.35042949592E+02 -0.23415086738E+02  0.48474893517E+03  0.49456559038E+03  0.88528630587E+02 0.  0.
          4    1    3    3  502    0  0.42857202057E+01 -0.21824146718E+03  0.83562926339E+03  0.86366890139E+03  0.00000000000E+00 0. -1.
         -3    1    3    3    0  502 -0.64323373749E+02 -0.22939459628E+03  0.65222766247E+03  0.69437763565E+03  0.00000000000E+00 0.  1.
         11    1    5    5    0    0  0.73420518245E+02  0.42054594901E+03 -0.17529139023E+03  0.46149381276E+03  0.00000000000E+00 0.  1.
        -11    1    5    5    0    0  0.21660084890E+02  0.50505201186E+02 -0.60956394701E+02  0.82070802843E+02  0.00000000000E+00 0. -1.
          4    1    6    6  503    0 -0.58170778707E+02 -0.22815992049E+01  0.39994501611E+03  0.40415969752E+03  0.00000000000E+00 0. -1.
         -4    1    6    6    0  503  0.23127829115E+02 -0.21133487533E+02  0.84803919059E+02  0.90405892853E+02  0.00000000000E+00 0.  1.
<mgrwt>
<rscale>  0 0.19300762E+04</rscale>
<asrwt>0</asrwt>
<pdfrwt beam="1">  1        2 0.33327190E+00 0.19300762E+04</pdfrwt>
<pdfrwt beam="2">  1       -1 0.66139899E-01 0.19300762E+04</pdfrwt>
<totfact> 0.13295063E+01</totfact>
</mgrwt>
</event>
<event>
12    6  0.1395358E-007  0.1556578E+04  0.7818608E-02  0.8847677E-01
         -1   -1    0    0    0  501 -0.00000000000E+00  0.00000000000E+00  0.10945619962E+04  0.10945619962E+04  0.00000000000E+00 0.  1.
          2   -1    0    0  501    0  0.00000000000E+00 -0.00000000000E+00 -0.55340282690E+03  0.55340282690E+03  0.00000000000E+00 0. -1.
         24    2    1    2    0    0  0.32610706867E+03 -0.37079950709E+03  0.28926241195E+02  0.50103408407E+03  0.79751685102E+02 0.  0.
        254    2    1    2    0    0 -0.32610706867E+03  0.37079950709E+03  0.51223292809E+03  0.11469307390E+04  0.89957181636E+03 0.  0.
         23    2    4    4    0    0 -0.52349748137E+03  0.53691717123E+03  0.36140732533E+03  0.83734344838E+03  0.90549069470E+02 0.  0.
         23    2    4    4    0    0  0.19739041269E+03 -0.16611766414E+03  0.15082560276E+03  0.30958729064E+03  0.80857125311E+02 0.  0.
          4    1    3    3  502    0  0.26670243399E+03 -0.34305337366E+03  0.21679303962E+02  0.43506987680E+03  0.00000000000E+00 0. -1.
         -1    1    3    3    0  502  0.59404634683E+02 -0.27746133425E+02  0.72469372327E+01  0.65964207273E+02  0.00000000000E+00 0.  1.
         11    1    5    5    0    0 -0.36681442955E+03  0.38367538406E+03  0.20937993963E+03  0.57061334122E+03  0.00000000000E+00 0.  1.
        -11    1    5    5    0    0 -0.15668305182E+03  0.15324178717E+03  0.15202738570E+03  0.26673010715E+03  0.00000000000E+00 0. -1.
          1    1    6    6  503    0  0.83695077088E+02 -0.66120693298E+02  0.17999279085E+02  0.10817017176E+03  0.00000000000E+00 0. -1.
         -1    1    6    6    0  503  0.11369533561E+03 -0.99996970847E+02  0.13282632367E+03  0.20141711888E+03  0.00000000000E+00 0.  1.
<mgrwt>
<rscale>  0 0.15565779E+04</rscale>
<asrwt>0</asrwt>
<pdfrwt beam="1">  1        2 0.85138897E-01 0.15565779E+04</pdfrwt>
<pdfrwt beam="2">  1       -1 0.16839415E+00 0.15565779E+04</pdfrwt>
<totfact> 0.15193689E+01</totfact>
</mgrwt>
</event>
<event>
12    6  0.1395358E-007  0.1933152E+04  0.7818608E-02  0.8638528E-01
         -1   -1    0    0    0  501 -0.00000000000E+00  0.00000000000E+00  0.14073688640E+04  0.14073688640E+04  0.00000000000E+00 0.  1.
          2   -1    0    0  501    0  0.00000000000E+00 -0.00000000000E+00 -0.66384118676E+03  0.66384118676E+03  0.00000000000E+00 0. -1.
         24    2    1    2    0    0  0.23778433906E+03  0.23142841938E+03  0.10180464566E+04  0.10736115386E+04  0.78247317146E+02 0.  0.
        254    2    1    2    0    0 -0.23778433906E+03 -0.23142841938E+03 -0.27451877936E+03  0.99759851224E+03  0.89985650312E+03 0.  0.
         23    2    4    4    0    0 -0.91021275091E+02  0.36188604302E+02  0.30784362380E+03  0.33362982319E+03  0.83346713233E+02 0.  0.
         23    2    4    4    0    0 -0.14676306397E+03 -0.26761702368E+03 -0.58236240316E+03  0.66396868905E+03  0.92467200203E+02 0.  0.
          4    1    3    3  502    0  0.13290738127E+01 -0.97000795244E+00 -0.10426936144E+01  0.19479637062E+01  0.00000000000E+00 0. -1.
         -3    1    3    3    0  502  0.23645526525E+03  0.23239842733E+03  0.10190891503E+04  0.10716635748E+04  0.00000000000E+00 0.  1.
         11    1    5    5    0    0 -0.68383145536E+02  0.25638076825E+02  0.29794300493E+03  0.30676310039E+03  0.00000000000E+00 0. -1.
        -11    1    5    5    0    0 -0.22638129556E+02  0.10550527478E+02  0.99006188717E+01  0.26866722798E+02  0.00000000000E+00 0.  1.
          4    1    6    6  503    0 -0.29659547201E+02 -0.14086798640E+03 -0.22479906750E+03  0.26694212684E+03  0.00000000000E+00 0.  1.
         -4    1    6    6    0  503 -0.11710351677E+03 -0.12674903728E+03 -0.35756333566E+03  0.39702656221E+03  0.00000000000E+00 0. -1.
<mgrwt>
<rscale>  0 0.19331523E+04</rscale>
<asrwt>0</asrwt>
<pdfrwt beam="1">  1        2 0.10212941E+00 0.19331523E+04</pdfrwt>
<pdfrwt beam="2">  1       -1 0.21651829E+00 0.19331523E+04</pdfrwt>
<totfact> 0.54246823E+00</totfact>
</mgrwt>
</event>
<event>
12    6  0.1395358E-007  0.1665935E+04  0.7818608E-02  0.8781035E-01
          2   -1    0    0  501    0  0.00000000000E+00  0.00000000000E+00  0.86720355959E+03  0.86720355959E+03  0.00000000000E+00 0. -1.
         -1   -1    0    0    0  501 -0.00000000000E+00 -0.00000000000E+00 -0.80008330672E+03  0.80008330672E+03  0.00000000000E+00 0.  1.
         24    2    1    2    0    0 -0.36362148055E+02 -0.45452486237E+03  0.39319814600E+03  0.60736228305E+03  0.79806669671E+02 0.  0.
        254    2    1    2    0    0  0.36362148055E+02  0.45452486237E+03 -0.32607789313E+03  0.10599245833E+04  0.89955448612E+03 0.  0.
         23    2    4    4    0    0  0.39995757877E+02  0.15461248831E+03 -0.60975146409E+03  0.63679765874E+03  0.90607549505E+02 0.  0.
         23    2    4    4    0    0 -0.36336098220E+01  0.29991237406E+03  0.28367357096E+03  0.42312692452E+03  0.92763485047E+02 0.  0.
          2    1    3    3  502    0  0.18619624714E+02 -0.11317595409E+03  0.12609905448E+03  0.17045955106E+03  0.00000000000E+00 0. -1.
         -1    1    3    3    0  502 -0.54981772770E+02 -0.34134890828E+03  0.26709909152E+03  0.43690273198E+03  0.00000000000E+00 0.  1.
         11    1    5    5    0    0  0.45834607622E+01  0.53283084492E+02 -0.37344541869E+03  0.37725531931E+03  0.00000000000E+00 0. -1.
        -11    1    5    5    0    0  0.35412297115E+02  0.10132940382E+03 -0.23630604540E+03  0.25954233943E+03  0.00000000000E+00 0.  1.
          4    1    6    6  503    0 -0.30953858115E+02  0.75680982425E+02  0.11548211087E+03  0.14149865852E+03  0.00000000000E+00 0.  1.
         -4    1    6    6    0  503  0.27320248293E+02  0.22423139163E+03  0.16819146009E+03  0.28162826600E+03  0.00000000000E+00 0. -1.
<mgrwt>
<rscale>  0 0.16659353E+04</rscale>
<asrwt>0</asrwt>
<pdfrwt beam="1">  1        2 0.13341593E+00 0.16659353E+04</pdfrwt>
<pdfrwt beam="2">  1       -1 0.12308974E+00 0.16659353E+04</pdfrwt>
<totfact> 0.19554754E+01</totfact>
</mgrwt>
</event>
<event>
12    6  0.1395358E-007  0.1563658E+04  0.7818608E-02  0.8843191E-01
          2   -1    0    0  501    0  0.00000000000E+00  0.00000000000E+00  0.64661636123E+03  0.64661636123E+03  0.00000000000E+00 0. -1.
         -1   -1    0    0    0  501 -0.00000000000E+00 -0.00000000000E+00 -0.94531546142E+03  0.94531546142E+03  0.00000000000E+00 0.  1.
         24    2    1    2    0    0 -0.35125658689E+03 -0.28960461237E+03  0.15219669561E+03  0.48674512107E+03  0.80653316042E+02 0.  0.
        254    2    1    2    0    0  0.35125658689E+03  0.28960461237E+03 -0.45089579580E+03  0.11051867016E+04  0.90048798179E+03 0.  0.
         23    2    4    4    0    0  0.62209822010E+03  0.48141493853E+02 -0.23339325568E+03  0.67225489261E+03  0.90168896813E+02 0.  0.
         23    2    4    4    0    0 -0.27084163321E+03  0.24146311852E+03 -0.21750254012E+03  0.43293180898E+03  0.91994393205E+02 0.  0.
          4    1    3    3  502    0 -0.23162291839E+03 -0.22548651787E+03  0.13347707956E+03  0.34972771814E+03  0.00000000000E+00 0. -1.
         -3    1    3    3    0  502 -0.11963366850E+03 -0.64118094507E+02  0.18719616043E+02  0.13701740293E+03  0.00000000000E+00 0.  1.
         11    1    5    5    0    0  0.79422922791E+02 -0.22163463446E+02 -0.42009883104E+02  0.92542152855E+02  0.00000000000E+00 0.  1.
        -11    1    5    5    0    0  0.54267529731E+03  0.70304957299E+02 -0.19138337258E+03  0.57971273975E+03  0.00000000000E+00 0. -1.
          4    1    6    6  503    0 -0.67164487519E+02  0.21109632487E+02 -0.67198554289E+02  0.97325899256E+02  0.00000000000E+00 0. -1.
         -4    1    6    6    0  503 -0.20367714569E+03  0.22035348603E+03 -0.15030398583E+03  0.33560590972E+03  0.00000000000E+00 0.  1.
<mgrwt>
<rscale>  0 0.15636578E+04</rscale>
<asrwt>0</asrwt>
<pdfrwt beam="1">  1        2 0.99479440E-01 0.15636578E+04</pdfrwt>
<pdfrwt beam="2">  1       -1 0.14543315E+00 0.15636578E+04</pdfrwt>
<totfact> 0.18845297E+01</totfact>
</mgrwt>
</event>
<event>
12    6  0.1395358E-007  0.2565724E+04  0.7818608E-02  0.8379938E-01
          2   -1    0    0  501    0  0.00000000000E+00  0.00000000000E+00  0.24739418892E+04  0.24739418892E+04  0.00000000000E+00 0. -1.
         -1   -1    0    0    0  501 -0.00000000000E+00 -0.00000000000E+00 -0.66522767280E+03  0.66522767280E+03  0.00000000000E+00 0.  1.
         24    2    1    2    0    0 -0.34486838811E+02  0.18110032359E+03 -0.56219213395E+03  0.59702807476E+03  0.79974104075E+02 0.  0.
        254    2    1    2    0    0  0.34486838811E+02 -0.18110032359E+03  0.23709063503E+04  0.25421414872E+04  0.89849860865E+03 0.  0.
         23    2    4    4    0    0 -0.14980324123E+03 -0.49794658317E+03  0.15927970911E+04  0.16775765934E+04  0.82878480250E+02 0.  0.
         23    2    4    4    0    0  0.18429008004E+03  0.31684625958E+03  0.77810925922E+03  0.86456489382E+03  0.87544563124E+02 0.  0.
          2    1    3    3  502    0  0.48385886021E+01  0.17250960852E+02 -0.11882349692E+02  0.21498786575E+02  0.00000000000E+00 0. -1.
         -1    1    3    3    0  502 -0.39325427414E+02  0.16384936274E+03 -0.55030978425E+03  0.57552928818E+03  0.00000000000E+00 0.  1.
         11    1    5    5    0    0 -0.13306667811E+03 -0.48994484049E+03  0.15464443773E+04  0.16276495015E+04  0.00000000000E+00 0.  1.
        -11    1    5    5    0    0 -0.16736563114E+02 -0.80017426851E+01  0.46352713762E+02  0.49927091884E+02  0.00000000000E+00 0. -1.
          1    1    6    6  503    0  0.15446028965E+03  0.21793559709E+03  0.48372874908E+03  0.55258248999E+03  0.00000000000E+00 0. -1.
         -1    1    6    6    0  503  0.29829790386E+02  0.98910662487E+02  0.29438051014E+03  0.31198240383E+03  0.00000000000E+00 0.  1.
<mgrwt>
<rscale>  0 0.25657238E+04</rscale>
<asrwt>0</asrwt>
<pdfrwt beam="1">  1        2 0.38060644E+00 0.25657238E+04</pdfrwt>
<pdfrwt beam="2">  1       -1 0.10234272E+00 0.25657238E+04</pdfrwt>
<totfact> 0.32848280E+00</totfact>
</mgrwt>
</event>
<event>
12    6  0.1395358E-007  0.2444923E+04  0.7818608E-02  0.8422874E-01
          2   -1    0    0  501    0  0.00000000000E+00  0.00000000000E+00  0.22847512708E+04  0.22847512708E+04  0.00000000000E+00 0. -1.
         -1   -1    0    0    0  501 -0.00000000000E+00 -0.00000000000E+00 -0.65408075703E+03  0.65408075703E+03  0.00000000000E+00 0.  1.
         24    2    1    2    0    0  0.55244516349E+03  0.75110836838E+03  0.12978668888E+04  0.16000070942E+04  0.78770557739E+02 0.  0.
        254    2    1    2    0    0 -0.55244516349E+03 -0.75110836838E+03  0.33280362502E+03  0.13388249337E+04  0.90129601710E+03 0.  0.
         23    2    4    4    0    0  0.13749980490E+03 -0.36484157054E+03 -0.12453483885E+03  0.42096184787E+03  0.98409264457E+02 0.  0.
         23    2    4    4    0    0 -0.68994496839E+03 -0.38626679784E+03  0.45733846386E+03  0.91786308579E+03  0.89933726729E+02 0.  0.
          2    1    3    3  502    0  0.26152978309E+03  0.33937064498E+03  0.66170127333E+03  0.78830123509E+03  0.00000000000E+00 0. -1.
         -1    1    3    3    0  502  0.29091538040E+03  0.41173772340E+03  0.63616561545E+03  0.81170585911E+03  0.00000000000E+00 0.  1.
         11    1    5    5    0    0  0.16684166624E+02 -0.13336507203E+03 -0.69102549786E+01  0.13458215140E+03  0.00000000000E+00 0. -1.
        -11    1    5    5    0    0  0.12081563828E+03 -0.23147649852E+03 -0.11762458387E+03  0.28637969647E+03  0.00000000000E+00 0.  1.
          1    1    6    6  503    0 -0.22095251243E+03 -0.78281217410E+02  0.14674730715E+03  0.27655511911E+03  0.00000000000E+00 0. -1.
         -1    1    6    6    0  503 -0.46899245596E+03 -0.30798558043E+03  0.31059115671E+03  0.64130796668E+03  0.00000000000E+00 0.  1.
<mgrwt>
<rscale>  0 0.24449228E+04</rscale>
<asrwt>0</asrwt>
<pdfrwt beam="1">  1        2 0.35150019E+00 0.24449228E+04</pdfrwt>
<pdfrwt beam="2">  1       -1 0.10062781E+00 0.24449228E+04</pdfrwt>
<totfact> 0.44279216E+00</totfact>
</mgrwt>
</event>
<event>
12    6  0.1395358E-007  0.1504193E+04  0.7818608E-02  0.8881669E-01
         -1   -1    0    0    0  501 -0.00000000000E+00  0.00000000000E+00  0.10478446344E+04  0.10478446344E+04  0.00000000000E+00 0.  1.
          2   -1    0    0  501    0  0.00000000000E+00 -0.00000000000E+00 -0.53982157761E+03  0.53982157761E+03  0.00000000000E+00 0. -1.
         24    2    1    2    0    0  0.38244099001E+02 -0.44215994711E+03  0.33196383017E+03  0.55944108772E+03  0.76199187292E+02 0.  0.
        254    2    1    2    0    0 -0.38244099001E+02  0.44215994711E+03  0.17605922658E+03  0.10282251243E+04  0.91064923266E+03 0.  0.
         23    2    4    4    0    0 -0.41300803192E+03 -0.44214649861E+01  0.42941138186E+02  0.42334304998E+03  0.82342047837E+02 0.  0.
         23    2    4    4    0    0  0.37476393291E+03  0.44658141210E+03  0.13311808839E+03  0.60488207427E+03  0.90988654639E+02 0.  0.
          4    1    3    3  502    0  0.11224559980E+02 -0.67724670351E+02  0.20487238826E+02  0.71640412308E+02  0.00000000000E+00 0. -1.
         -3    1    3    3    0  502  0.27019539021E+02 -0.37443527676E+03  0.31147659135E+03  0.48780067541E+03  0.00000000000E+00 0.  1.
         11    1    5    5    0    0 -0.29511934830E+03  0.29072027293E+02  0.11266822479E+02  0.29676177955E+03  0.00000000000E+00 0.  1.
        -11    1    5    5    0    0 -0.11788868362E+03 -0.33493492280E+02  0.31674315707E+02  0.12658127044E+03  0.00000000000E+00 0. -1.
          4    1    6    6  503    0  0.97981772271E+02  0.15861605123E+03  0.76292698969E+02  0.20144491883E+03  0.00000000000E+00 0.  1.
         -4    1    6    6    0  503  0.27678216064E+03  0.28796536086E+03  0.56825389426E+02  0.40343715544E+03  0.00000000000E+00 0. -1.
<mgrwt>
<rscale>  0 0.15041930E+04</rscale>
<asrwt>0</asrwt>
<pdfrwt beam="1">  1        2 0.83049473E-01 0.15041930E+04</pdfrwt>
<pdfrwt beam="2">  1       -1 0.16120687E+00 0.15041930E+04</pdfrwt>
<totfact> 0.17781063E+01</totfact>
</mgrwt>
</event>
<event>
12    6  0.1395358E-007  0.1711469E+04  0.7818608E-02  0.8754850E-01
          2   -1    0    0  501    0  0.00000000000E+00  0.00000000000E+00  0.29874266236E+03  0.29874266236E+03  0.00000000000E+00 0. -1.
         -1   -1    0    0    0  501 -0.00000000000E+00 -0.00000000000E+00 -0.24512104544E+04  0.24512104544E+04  0.00000000000E+00 0.  1.
         24    2    1    2    0    0 -0.36849771240E+03  0.45599976495E+03 -0.48072493297E+03  0.76232529811E+03  0.79479867169E+02 0.  0.
        254    2    1    2    0    0  0.36849771240E+03 -0.45599976495E+03 -0.16717428591E+04  0.19876278186E+04  0.90122905464E+03 0.  0.
         23    2    4    4    0    0  0.18465222908E+03 -0.32710021554E+03 -0.10253665974E+03  0.39971421308E+03  0.90369734049E+02 0.  0.
         23    2    4    4    0    0  0.18384548331E+03 -0.12889954941E+03 -0.15692061993E+04  0.15879136056E+04  0.92990683221E+02 0.  0.
          4    1    3    3  502    0 -0.86225597425E+02  0.13585634387E+03 -0.93909443771E+02  0.18630830215E+03  0.00000000000E+00 0. -1.
         -3    1    3    3    0  502 -0.28227211497E+03  0.32014342109E+03 -0.38681548920E+03  0.57601699596E+03  0.00000000000E+00 0.  1.
         11    1    5    5    0    0  0.18210035730E+03 -0.29420040570E+03 -0.69282559476E+02  0.35286611043E+03  0.00000000000E+00 0. -1.
        -11    1    5    5    0    0  0.25518717814E+01 -0.32899809846E+02 -0.33254100262E+02  0.46848102648E+02  0.00000000000E+00 0.  1.
          3    1    6    6  503    0  0.56742236635E+02 -0.59944336678E+02 -0.32438475749E+03  0.33472148991E+03  0.00000000000E+00 0. -1.
         -3    1    6    6    0  503  0.12710324668E+03 -0.68955212733E+02 -0.12448214418E+04  0.12531921157E+04  0.00000000000E+00 0.  1.
<mgrwt>
<rscale>  0 0.17114685E+04</rscale>
<asrwt>0</asrwt>
<pdfrwt beam="1">  1        2 0.45960408E-01 0.17114685E+04</pdfrwt>
<pdfrwt beam="2">  1       -1 0.37710931E+00 0.17114685E+04</pdfrwt>
<totfact> 0.12328896E+00</totfact>
</mgrwt>
</event>
<event>
12    6  0.1395358E-007  0.2062919E+04  0.7818608E-02  0.8577756E-01
         -3   -1    0    0    0  501 -0.00000000000E+00  0.00000000000E+00  0.65370233897E+03  0.65370233897E+03  0.00000000000E+00 0.  1.
          2   -1    0    0  501    0  0.00000000000E+00 -0.00000000000E+00 -0.16275120895E+04  0.16275120895E+04  0.00000000000E+00 0. -1.
         24    2    1    2    0    0 -0.76244027095E+03 -0.28675799030E+03 -0.58671673716E+03  0.10070603514E+04  0.79929405698E+02 0.  0.
        254    2    1    2    0    0  0.76244027095E+03  0.28675799030E+03 -0.38709301339E+03  0.12741540771E+04  0.90004572075E+03 0.  0.
         23    2    4    4    0    0  0.39675394480E+03  0.59465976018E+03 -0.16506915353E+03  0.73912301746E+03  0.89560518080E+02 0.  0.
         23    2    4    4    0    0  0.36568632615E+03 -0.30790176988E+03 -0.22202385985E+03  0.53503105965E+03  0.91834913942E+02 0.  0.
          2    1    3    3  502    0 -0.25378761045E+03 -0.11595897206E+03 -0.16113079836E+03  0.32220764827E+03  0.00000000000E+00 0. -1.
         -1    1    3    3    0  502 -0.50865266049E+03 -0.17079901824E+03 -0.42558593880E+03  0.68485270311E+03  0.00000000000E+00 0.  1.
         11    1    5    5    0    0  0.19872144710E+03  0.28481213595E+03 -0.12552922494E+03  0.36927733838E+03  0.00000000000E+00 0.  1.
        -11    1    5    5    0    0  0.19803249770E+03  0.30984762423E+03 -0.39539928595E+02  0.36984567908E+03  0.00000000000E+00 0. -1.
          2    1    6    6  503    0  0.11926830069E+03 -0.58987044829E+02 -0.90382939036E+02  0.16085233811E+03  0.00000000000E+00 0. -1.
         -2    1    6    6    0  503  0.24641802545E+03 -0.24891472505E+03 -0.13164092082E+03  0.37417872153E+03  0.00000000000E+00 0.  1.
<mgrwt>
<rscale>  0 0.20629188E+04</rscale>
<asrwt>0</asrwt>
<pdfrwt beam="1">  1        2 0.25038647E+00 0.20629188E+04</pdfrwt>
<pdfrwt beam="2">  1       -3 0.10056959E+00 0.20629188E+04</pdfrwt>
<totfact> 0.54622584E+00</totfact>
</mgrwt>
</event>
<event>
12    6  0.1395358E-007  0.3154070E+04  0.7818608E-02  0.8201053E-01
         -1   -1    0    0    0  501 -0.00000000000E+00  0.00000000000E+00  0.21635682642E+04  0.21635682642E+04  0.00000000000E+00 0.  1.
          2   -1    0    0  501    0  0.00000000000E+00 -0.00000000000E+00 -0.11495085115E+04  0.11495085115E+04  0.00000000000E+00 0. -1.
         24    2    1    2    0    0 -0.47538603433E+03  0.33362230740E+03  0.18585544232E+04  0.19487738139E+04  0.78734414624E+02 0.  0.
        254    2    1    2    0    0  0.47538603433E+03 -0.33362230740E+03 -0.84449467046E+03  0.13643029619E+04  0.90047520661E+03 0.  0.
         23    2    4    4    0    0 -0.25367362299E+03 -0.95596493687E+02 -0.13658368664E+03  0.31703022589E+03  0.91455257182E+02 0.  0.
         23    2    4    4    0    0  0.72905965732E+03 -0.23802581372E+03 -0.70791098382E+03  0.10472727360E+04  0.86359426878E+02 0.  0.
          2    1    3    3  502    0 -0.32384584461E+03  0.25511014611E+03  0.14022531310E+04  0.14615988373E+04  0.00000000000E+00 0. -1.
         -1    1    3    3    0  502 -0.15154018972E+03  0.78512161289E+02  0.45630129220E+03  0.48717497661E+03  0.00000000000E+00 0.  1.
         11    1    5    5    0    0 -0.12943084958E+02  0.11185624678E+02 -0.26621400367E+02  0.31643966331E+02  0.00000000000E+00 0. -1.
        -11    1    5    5    0    0 -0.24073053803E+03 -0.10678211836E+03 -0.10996228628E+03  0.28538625956E+03  0.00000000000E+00 0.  1.
          1    1    6    6  503    0  0.24896391886E+03 -0.12488155233E+03 -0.25650545446E+03  0.37864691095E+03  0.00000000000E+00 0. -1.
         -1    1    6    6    0  503  0.48009573846E+03 -0.11314426139E+03 -0.45140552936E+03  0.66862582504E+03  0.00000000000E+00 0.  1.
<mgrwt>
<rscale>  0 0.31540705E+04</rscale>
<asrwt>0</asrwt>
<pdfrwt beam="1">  1        2 0.17684746E+00 0.31540705E+04</pdfrwt>
<pdfrwt beam="2">  1       -1 0.33285666E+00 0.31540705E+04</pdfrwt>
<totfact> 0.39434534E-01</totfact>
</mgrwt>
</event>
<event>
12    6  0.1395358E-007  0.2440930E+04  0.7818608E-02  0.8424337E-01
          2   -1    0    0  501    0  0.00000000000E+00  0.00000000000E+00  0.13933380817E+04  0.13933380817E+04  0.00000000000E+00 0. -1.
         -1   -1    0    0    0  501 -0.00000000000E+00 -0.00000000000E+00 -0.10690404212E+04  0.10690404212E+04  0.00000000000E+00 0.  1.
         24    2    1    2    0    0 -0.69342202201E+03  0.67269217970E+03 -0.28232213287E+03  0.10098287022E+04  0.81849568453E+02 0.  0.
        254    2    1    2    0    0  0.69342202201E+03 -0.67269217970E+03  0.60661979339E+03  0.14525498007E+04  0.89920213553E+03 0.  0.
         23    2    4    4    0    0  0.56704727588E+03 -0.78458160792E+03  0.18660999771E+03  0.99038761140E+03  0.94516755099E+02 0.  0.
         23    2    4    4    0    0  0.12637474612E+03  0.11188942822E+03  0.42000979567E+03  0.46216218930E+03  0.93251488720E+02 0.  0.
          2    1    3    3  502    0 -0.53351323037E+03  0.54076987386E+03 -0.19094542247E+03  0.78328065074E+03  0.00000000000E+00 0. -1.
         -1    1    3    3    0  502 -0.15990879164E+03  0.13192230584E+03 -0.91376710403E+02  0.22654805147E+03  0.00000000000E+00 0.  1.
         11    1    5    5    0    0  0.26524351204E+03 -0.30491452350E+03  0.48084862941E+02  0.40698788847E+03  0.00000000000E+00 0.  1.
        -11    1    5    5    0    0  0.30180376384E+03 -0.47966708442E+03  0.13852513477E+03  0.58339972293E+03  0.00000000000E+00 0. -1.
          2    1    6    6  503    0  0.10224295432E+03  0.40227764995E+02  0.18371304200E+03  0.21406161867E+03  0.00000000000E+00 0. -1.
         -2    1    6    6    0  503  0.24131791806E+02  0.71661663227E+02  0.23629675367E+03  0.24810057063E+03  0.00000000000E+00 0.  1.
<mgrwt>
<rscale>  0 0.24409299E+04</rscale>
<asrwt>0</asrwt>
<pdfrwt beam="1">  1        2 0.21435971E+00 0.24409299E+04</pdfrwt>
<pdfrwt beam="2">  1       -1 0.16446776E+00 0.24409299E+04</pdfrwt>
<totfact> 0.40315268E+00</totfact>
</mgrwt>
</event>
<event>
12    6  0.1395358E-007  0.2581118E+04  0.7818608E-02  0.8374643E-01
          2   -1    0    0  501    0  0.00000000000E+00  0.00000000000E+00  0.91122342172E+03  0.91122342172E+03  0.00000000000E+00 0. -1.
         -1   -1    0    0    0  501 -0.00000000000E+00 -0.00000000000E+00 -0.18278092068E+04  0.18278092068E+04  0.00000000000E+00 0.  1.
         24    2    1    2    0    0  0.28193518516E+03  0.84680381013E+03 -0.11456455515E+04  0.14545006623E+04  0.80649273256E+02 0.  0.
        254    2    1    2    0    0 -0.28193518516E+03 -0.84680381013E+03  0.22905976641E+03  0.12845319663E+04  0.89498036537E+03 0.  0.
         23    2    4    4    0    0  0.91482242251E+01 -0.58389511598E+03 -0.26435874828E+03  0.64770851106E+03  0.92863184468E+02 0.  0.
         23    2    4    4    0    0 -0.29108340938E+03 -0.26290869415E+03  0.49341851469E+03  0.63682345525E+03  0.90728991198E+02 0.  0.
          2    1    3    3  502    0  0.17180095141E+03  0.45381786123E+03 -0.56509001540E+03  0.74484424116E+03  0.00000000000E+00 0. -1.
         -1    1    3    3    0  502  0.11013423374E+03  0.39298594890E+03 -0.58055553613E+03  0.70965642110E+03  0.00000000000E+00 0.  1.
         11    1    5    5    0    0 -0.33681701642E+02 -0.14731309754E+03 -0.88285147220E+02  0.17501392217E+03  0.00000000000E+00 0.  1.
        -11    1    5    5    0    0  0.42829925867E+02 -0.43658201844E+03 -0.17607360106E+03  0.47269458889E+03  0.00000000000E+00 0. -1.
          1    1    6    6  503    0 -0.15867831740E+03 -0.84574308107E+02  0.20255073585E+03  0.27084760032E+03  0.00000000000E+00 0. -1.
         -1    1    6    6    0  503 -0.13240509198E+03 -0.17833438604E+03  0.29086777883E+03  0.36597585493E+03  0.00000000000E+00 0.  1.
<mgrwt>
<rscale>  0 0.25811180E+04</rscale>
<asrwt>0</asrwt>
<pdfrwt beam="1">  1        2 0.14018822E+00 0.25811180E+04</pdfrwt>
<pdfrwt beam="2">  1       -1 0.28120141E+00 0.25811180E+04</pdfrwt>
<totfact> 0.12724431E+00</totfact>
</mgrwt>
</event>
<event>
12    6  0.1395358E-007  0.2287277E+04  0.7818608E-02  0.8482955E-01
         -1   -1    0    0    0  501 -0.00000000000E+00  0.00000000000E+00  0.28724534935E+03  0.28724534935E+03  0.00000000000E+00 0.  1.
          2   -1    0    0  501    0  0.00000000000E+00 -0.00000000000E+00 -0.45532817211E+04  0.45532817211E+04  0.00000000000E+00 0. -1.
         24    2    1    2    0    0 -0.62439432951E+03  0.72614101297E+03 -0.16130983969E+04  0.18776225187E+04  0.78935640063E+02 0.  0.
        254    2    1    2    0    0  0.62439432951E+03 -0.72614101297E+03 -0.26529379748E+04  0.29629045517E+04  0.90751001913E+03 0.  0.
         23    2    4    4    0    0  0.43115590888E+03 -0.92557343228E+03 -0.19994084502E+04  0.22471281876E+04  0.96795374446E+02 0.  0.
         23    2    4    4    0    0  0.19323842063E+03  0.19943241931E+03 -0.65352952459E+03  0.71577636407E+03  0.90114298371E+02 0.  0.
          4    1    3    3  502    0 -0.21447859645E+03  0.21044827420E+03 -0.55784860635E+03  0.63362813389E+03  0.00000000000E+00 0. -1.
         -3    1    3    3    0  502 -0.40991573306E+03  0.51569273877E+03 -0.10552497906E+04  0.12439943849E+04  0.00000000000E+00 0.  1.
         11    1    5    5    0    0  0.40832458386E+03 -0.89456418820E+03 -0.18796961563E+04  0.21213749533E+04  0.00000000000E+00 0.  1.
        -11    1    5    5    0    0  0.22831325024E+02 -0.31009244077E+02 -0.11971229397E+03  0.12575323434E+03  0.00000000000E+00 0. -1.
          3    1    6    6  503    0  0.32027704466E+02 -0.26563921853E+01 -0.95826773960E+02  0.10107225574E+03  0.00000000000E+00 0. -1.
         -3    1    6    6    0  503  0.16121071616E+03  0.20208881149E+03 -0.55770275063E+03  0.61470410833E+03  0.00000000000E+00 0.  1.
<mgrwt>
<rscale>  0 0.22872770E+04</rscale>
<asrwt>0</asrwt>
<pdfrwt beam="1">  1        2 0.70050490E+00 0.22872770E+04</pdfrwt>
<pdfrwt beam="2">  1       -1 0.44191591E-01 0.22872770E+04</pdfrwt>
<totfact> 0.57601757E-01</totfact>
</mgrwt>
</event>
<event>
12    6  0.1395358E-007  0.1348772E+04  0.7818608E-02  0.8991758E-01
         -1   -1    0    0    0  501 -0.00000000000E+00  0.00000000000E+00  0.20757578754E+03  0.20757578754E+03  0.00000000000E+00 0.  1.
          2   -1    0    0  501    0  0.00000000000E+00 -0.00000000000E+00 -0.21909893753E+04  0.21909893753E+04  0.00000000000E+00 0. -1.
         24    2    1    2    0    0  0.22901952035E+03  0.67140585425E+00 -0.10605238183E+04  0.10881648427E+04  0.83316050833E+02 0.  0.
        254    2    1    2    0    0 -0.22901952035E+03 -0.67140585425E+00 -0.92288976951E+03  0.13104003201E+04  0.90165019874E+03 0.  0.
         23    2    4    4    0    0  0.27125063392E+03  0.80384979254E+02 -0.58518883104E+02  0.30310301060E+03  0.91696914136E+02 0.  0.
         23    2    4    4    0    0 -0.50027015427E+03 -0.81056385109E+02 -0.86437088641E+03  0.10072973095E+04  0.10329799484E+03 0.  0.
          2    1    3    3  502    0  0.59504985223E+02  0.21194081687E+02 -0.44252392401E+03  0.44700945817E+03  0.00000000000E+00 0. -1.
         -1    1    3    3    0  502  0.16951453512E+03 -0.20522675833E+02 -0.61799989427E+03  0.64115538457E+03  0.00000000000E+00 0.  1.
         11    1    5    5    0    0  0.16549938908E+03  0.18105848595E+02  0.14824300944E+01  0.16649344473E+03  0.00000000000E+00 0. -1.
        -11    1    5    5    0    0  0.10575124484E+03  0.62279130660E+02 -0.60001313198E+02  0.13660956587E+03  0.00000000000E+00 0.  1.
          1    1    6    6  503    0 -0.36752310425E+01  0.11463327237E+02 -0.21981512336E+02  0.25061964790E+02  0.00000000000E+00 0. -1.
         -1    1    6    6    0  503 -0.49659492322E+03 -0.92519712346E+02 -0.84238937407E+03  0.98223534476E+03  0.00000000000E+00 0.  1.
<mgrwt>
<rscale>  0 0.13487718E+04</rscale>
<asrwt>0</asrwt>
<pdfrwt beam="1">  1        2 0.33707528E+00 0.13487718E+04</pdfrwt>
<pdfrwt beam="2">  1       -1 0.31934737E-01 0.13487718E+04</pdfrwt>
<totfact> 0.53214328E+01</totfact>
</mgrwt>
</event>
<event>
12    6  0.1395358E-007  0.3323377E+04  0.7818608E-02  0.8156972E-01
         -1   -1    0    0    0  501 -0.00000000000E+00  0.00000000000E+00  0.10278414869E+04  0.10278414869E+04  0.00000000000E+00 0.  1.
          2   -1    0    0  501    0  0.00000000000E+00 -0.00000000000E+00 -0.26864149654E+04  0.26864149654E+04  0.00000000000E+00 0. -1.
         24    2    1    2    0    0  0.96424964743E+03 -0.10955384500E+04 -0.13130519502E+04  0.19647499321E+04  0.78453769123E+02 0.  0.
        254    2    1    2    0    0 -0.96424964743E+03  0.10955384500E+04 -0.34552152836E+03  0.17495065202E+04  0.90078080552E+03 0.  0.
         23    2    4    4    0    0 -0.60154319934E+03  0.30897221386E+03  0.21320162296E+03  0.71518732124E+03  0.93380526986E+02 0.  0.
         23    2    4    4    0    0 -0.36270644809E+03  0.78656623617E+03 -0.55872315131E+03  0.10343191990E+04  0.86036237428E+02 0.  0.
          4    1    3    3  502    0  0.62500495488E+03 -0.74611245478E+03 -0.91285333571E+03  0.13343973176E+04  0.00000000000E+00 0. -1.
         -1    1    3    3    0  502  0.33924469255E+03 -0.34942599526E+03 -0.40019861448E+03  0.63035261451E+03  0.00000000000E+00 0.  1.
         11    1    5    5    0    0 -0.29306838014E+02  0.40619700685E+02  0.23282638915E+02  0.55235243395E+02  0.00000000000E+00 0. -1.
        -11    1    5    5    0    0 -0.57223636132E+03  0.26835251318E+03  0.18991898404E+03  0.65995207784E+03  0.00000000000E+00 0.  1.
          4    1    6    6  503    0 -0.30363594951E+03  0.70029560895E+03 -0.46412501074E+03  0.89332007441E+03  0.00000000000E+00 0.  1.
         -4    1    6    6    0  503 -0.59070498582E+02  0.86270627223E+02 -0.94598140573E+02  0.14099912455E+03  0.00000000000E+00 0. -1.
<mgrwt>
<rscale>  0 0.33233770E+04</rscale>
<asrwt>0</asrwt>
<pdfrwt beam="1">  1        2 0.41329462E+00 0.33233770E+04</pdfrwt>
<pdfrwt beam="2">  1       -1 0.15812946E+00 0.33233770E+04</pdfrwt>
<totfact> 0.77348761E-01</totfact>
</mgrwt>
</event>
<event>
12    6  0.1395358E-007  0.1473084E+04  0.7818608E-02  0.8902552E-01
         -1   -1    0    0    0  501 -0.00000000000E+00  0.00000000000E+00  0.16049705755E+04  0.16049705755E+04  0.00000000000E+00 0.  1.
          4   -1    0    0  501    0  0.00000000000E+00 -0.00000000000E+00 -0.33800879543E+03  0.33800879543E+03  0.00000000000E+00 0. -1.
         24    2    1    2    0    0 -0.90911629470E+02 -0.35522801125E+03  0.75500708806E+03  0.84304931437E+03  0.79022649221E+02 0.  0.
        254    2    1    2    0    0  0.90911629470E+02  0.35522801125E+03  0.51195469202E+03  0.10999300566E+04  0.90182961713E+03 0.  0.
         23    2    4    4    0    0 -0.12434479592E+03 -0.26720572709E+03  0.17393381518E+03  0.35409632650E+03  0.90943430310E+02 0.  0.
         23    2    4    4    0    0  0.21525642539E+03  0.62243373834E+03  0.33802087684E+03  0.74583373007E+03  0.90833652616E+02 0.  0.
          4    1    3    3  502    0 -0.17050325025E+02 -0.21933354392E+03  0.42330300260E+03  0.47705696629E+03  0.00000000000E+00 0. -1.
         -3    1    3    3    0  502 -0.73861304445E+02 -0.13589446733E+03  0.33170408546E+03  0.36599234808E+03  0.00000000000E+00 0.  1.
         11    1    5    5    0    0 -0.13752567981E+03 -0.24434518947E+03  0.14780578330E+03  0.31696124969E+03  0.00000000000E+00 0.  1.
        -11    1    5    5    0    0  0.13180883888E+02 -0.22860537616E+02  0.26128031880E+02  0.37135076815E+02  0.00000000000E+00 0. -1.
          3    1    6    6  503    0  0.76075539732E+02  0.31903301265E+03  0.13180663592E+03  0.35347212079E+03  0.00000000000E+00 0. -1.
         -3    1    6    6    0  503  0.13918088566E+03  0.30340072569E+03  0.20621424092E+03  0.39236160928E+03  0.00000000000E+00 0.  1.
<mgrwt>
<rscale>  0 0.14730841E+04</rscale>
<asrwt>0</asrwt>
<pdfrwt beam="1">  1        4 0.52001354E-01 0.14730841E+04</pdfrwt>
<pdfrwt beam="2">  1       -1 0.24691855E+00 0.14730841E+04</pdfrwt>
<totfact> 0.10600245E+00</totfact>
</mgrwt>
</event>
<event>
12    6  0.1395358E-007  0.1728127E+04  0.7818608E-02  0.8745483E-01
         -1   -1    0    0    0  501 -0.00000000000E+00  0.00000000000E+00  0.65529105564E+03  0.65529105564E+03  0.00000000000E+00 0.  1.
          2   -1    0    0  501    0  0.00000000000E+00 -0.00000000000E+00 -0.11393502095E+04  0.11393502095E+04  0.00000000000E+00 0. -1.
         24    2    1    2    0    0  0.29585026462E+03 -0.55235626378E+03 -0.15869195803E+03  0.65120041962E+03  0.79082411114E+02 0.  0.
        254    2    1    2    0    0 -0.29585026462E+03  0.55235626378E+03 -0.32536719580E+03  0.11434408455E+04  0.89942666951E+03 0.  0.
         23    2    4    4    0    0 -0.26237985352E+03  0.28722272354E+03  0.27222131142E+03  0.48251776757E+03  0.85900367786E+02 0.  0.
         23    2    4    4    0    0 -0.33470411106E+02  0.26513354024E+03 -0.59758850722E+03  0.66092307792E+03  0.91056182596E+02 0.  0.
          4    1    3    3  502    0  0.26543999974E+03 -0.53028028611E+03 -0.14036605430E+03  0.60939166757E+03  0.00000000000E+00 0. -1.
         -3    1    3    3    0  502  0.30410264880E+02 -0.22075977668E+02 -0.18325903730E+02  0.41808752045E+02  0.00000000000E+00 0.  1.
         11    1    5    5    0    0 -0.84098656976E+02  0.51653457109E+02  0.10026531219E+03  0.14069042812E+03  0.00000000000E+00 0. -1.
        -11    1    5    5    0    0 -0.17828119654E+03  0.23556926643E+03  0.17195599923E+03  0.34182733945E+03  0.00000000000E+00 0.  1.
          1    1    6    6  503    0  0.21515488552E+02  0.25337686779E+02 -0.44128914536E+02  0.55247404618E+02  0.00000000000E+00 0. -1.
         -1    1    6    6    0  503 -0.54985899657E+02  0.23979585346E+03 -0.55345959268E+03  0.60567567330E+03  0.00000000000E+00 0.  1.
<mgrwt>
<rscale>  0 0.17281273E+04</rscale>
<asrwt>0</asrwt>
<pdfrwt beam="1">  1        2 0.17528465E+00 0.17281273E+04</pdfrwt>
<pdfrwt beam="2">  1       -1 0.10081401E+00 0.17281273E+04</pdfrwt>
<totfact> 0.20878569E+01</totfact>
</mgrwt>
</event>
<event>
12    6  0.1395358E-007  0.1746997E+04  0.7818608E-02  0.8735005E-01
          2   -1    0    0  501    0  0.00000000000E+00  0.00000000000E+00  0.86698109245E+03  0.86698109245E+03  0.00000000000E+00 0. -1.
         -1   -1    0    0    0  501 -0.00000000000E+00 -0.00000000000E+00 -0.88006509435E+03  0.88006509435E+03  0.00000000000E+00 0.  1.
         24    2    1    2    0    0  0.60427877330E+03 -0.11603273707E+03  0.16685563955E+03  0.64230615330E+03  0.78102228995E+02 0.  0.
        254    2    1    2    0    0 -0.60427877330E+03  0.11603273707E+03 -0.17993964145E+03  0.11047400335E+04  0.89969763540E+03 0.  0.
         23    2    4    4    0    0  0.97711091199E+01 -0.29180918064E+03 -0.19256618808E+03  0.36160618768E+03  0.91810814711E+02 0.  0.
         23    2    4    4    0    0 -0.61404988242E+03  0.40784191771E+03  0.12626546639E+02  0.74313384583E+03  0.93253392377E+02 0.  0.
          2    1    3    3  502    0  0.24811419214E+03 -0.26631442379E+02  0.34228418959E+02  0.25187590343E+03  0.00000000000E+00 0. -1.
         -1    1    3    3    0  502  0.35616458117E+03 -0.89401294693E+02  0.13262722059E+03  0.39043024987E+03  0.00000000000E+00 0.  1.
         11    1    5    5    0    0  0.42887927433E+02 -0.83045657923E+02 -0.74266694571E+02  0.11937963621E+03  0.00000000000E+00 0. -1.
        -11    1    5    5    0    0 -0.33116818313E+02 -0.20876352272E+03 -0.11829949351E+03  0.24222655147E+03  0.00000000000E+00 0.  1.
          4    1    6    6  503    0 -0.39744553467E+03  0.21199062305E+03 -0.64320077630E+01  0.45049344947E+03  0.00000000000E+00 0. -1.
         -4    1    6    6    0  503 -0.21660434775E+03  0.19585129466E+03  0.19058554402E+02  0.29264039636E+03  0.00000000000E+00 0.  1.
<mgrwt>
<rscale>  0 0.17469972E+04</rscale>
<asrwt>0</asrwt>
<pdfrwt beam="1">  1        2 0.13338171E+00 0.17469972E+04</pdfrwt>
<pdfrwt beam="2">  1       -1 0.13539463E+00 0.17469972E+04</pdfrwt>
<totfact> 0.15282175E+01</totfact>
</mgrwt>
</event>
<event>
12    6  0.1395358E-007  0.1704451E+04  0.7818608E-02  0.8758830E-01
          2   -1    0    0  501    0  0.00000000000E+00  0.00000000000E+00  0.14383785015E+04  0.14383785015E+04  0.00000000000E+00 0. -1.
         -1   -1    0    0    0  501 -0.00000000000E+00 -0.00000000000E+00 -0.50493561660E+03  0.50493561660E+03  0.00000000000E+00 0.  1.
         24    2    1    2    0    0 -0.45926656324E+03  0.31446034655E+03  0.62491284441E+03  0.84057797648E+03  0.79020160610E+02 0.  0.
        254    2    1    2    0    0  0.45926656324E+03 -0.31446034655E+03  0.30853004052E+03  0.11027361416E+04  0.90056933466E+03 0.  0.
         23    2    4    4    0    0 -0.51974776659E+02 -0.30601260920E+03 -0.19495241066E+03  0.37936172045E+03  0.97794571046E+02 0.  0.
         23    2    4    4    0    0  0.51124133989E+03 -0.84477373531E+01  0.50348245118E+03  0.72337442119E+03  0.91306641095E+02 0.  0.
          2    1    3    3  502    0 -0.82705037000E+02  0.67283384828E+02  0.16793860584E+03  0.19892348366E+03  0.00000000000E+00 0. -1.
         -1    1    3    3    0  502 -0.37656152624E+03  0.24717696172E+03  0.45697423857E+03  0.64165449282E+03  0.00000000000E+00 0.  1.
         11    1    5    5    0    0  0.25301738305E+02 -0.13637702105E+03 -0.91576637411E+02  0.16620815369E+03  0.00000000000E+00 0.  1.
        -11    1    5    5    0    0 -0.77276514964E+02 -0.16963558815E+03 -0.10337577325E+03  0.21315356677E+03  0.00000000000E+00 0. -1.
          2    1    6    6  503    0  0.11485211715E+03 -0.40323041696E+02  0.11653391500E+03  0.16851442030E+03  0.00000000000E+00 0. -1.
         -2    1    6    6    0  503  0.39638922275E+03  0.31875304343E+02  0.38694853618E+03  0.55486000089E+03  0.00000000000E+00 0.  1.
<mgrwt>
<rscale>  0 0.17044513E+04</rscale>
<asrwt>0</asrwt>
<pdfrwt beam="1">  1        2 0.22128900E+00 0.17044513E+04</pdfrwt>
<pdfrwt beam="2">  1       -1 0.77682404E-01 0.17044513E+04</pdfrwt>
<totfact> 0.24764376E+01</totfact>
</mgrwt>
</event>
<event>
12    6  0.1395358E-007  0.2394060E+04  0.7818608E-02  0.8441731E-01
         -1   -1    0    0    0  501 -0.00000000000E+00  0.00000000000E+00  0.51898798342E+03  0.51898798342E+03  0.00000000000E+00 0.  1.
          2   -1    0    0  501    0  0.00000000000E+00 -0.00000000000E+00 -0.27609126191E+04  0.27609126191E+04  0.00000000000E+00 0. -1.
         24    2    1    2    0    0  0.10145917200E+03 -0.52187384302E+03  0.23797192276E+03  0.58979713054E+03  0.92648516215E+02 0.  0.
        254    2    1    2    0    0 -0.10145917200E+03  0.52187384302E+03 -0.24798965585E+04  0.26901034720E+04  0.89672932246E+03 0.  0.
         23    2    4    4    0    0  0.23307527318E+03  0.31324218470E+02 -0.16305304950E+04  0.16498136363E+04  0.89163051617E+02 0.  0.
         23    2    4    4    0    0 -0.33453444517E+03  0.49054962455E+03 -0.84936606352E+03  0.10402898358E+04  0.90708342219E+02 0.  0.
          2    1    3    3  502    0  0.42151312588E+02 -0.28754554483E+03  0.81408874596E+02  0.30180553071E+03  0.00000000000E+00 0. -1.
         -1    1    3    3    0  502  0.59307859408E+02 -0.23432829819E+03  0.15656304816E+03  0.28799159983E+03  0.00000000000E+00 0.  1.
         11    1    5    5    0    0  0.19634463577E+03  0.39817568824E+02 -0.11111290070E+04  0.11290457586E+04  0.00000000000E+00 0. -1.
        -11    1    5    5    0    0  0.36730637405E+02 -0.84933503544E+01 -0.51940148799E+03  0.52076787771E+03  0.00000000000E+00 0.  1.
          4    1    6    6  503    0 -0.32819493105E+03  0.48443954098E+03 -0.84945110378E+03  0.10314847354E+04  0.00000000000E+00 0. -1.
         -4    1    6    6    0  503 -0.63395141259E+01  0.61100835692E+01  0.85040252226E-01  0.88051003639E+01  0.00000000000E+00 0.  1.
<mgrwt>
<rscale>  0 0.23940597E+04</rscale>
<asrwt>0</asrwt>
<pdfrwt beam="1">  1        2 0.42475579E+00 0.23940597E+04</pdfrwt>
<pdfrwt beam="2">  1       -1 0.79844304E-01 0.23940597E+04</pdfrwt>
<totfact> 0.39142026E+00</totfact>
</mgrwt>
</event>
<event>
12    6  0.1395358E-007  0.1716782E+04  0.7818608E-02  0.8751850E-01
         -1   -1    0    0    0  501 -0.00000000000E+00  0.00000000000E+00  0.45320509387E+03  0.45320509387E+03  0.00000000000E+00 0.  1.
          2   -1    0    0  501    0  0.00000000000E+00 -0.00000000000E+00 -0.16258315040E+04  0.16258315040E+04  0.00000000000E+00 0. -1.
         24    2    1    2    0    0 -0.44041069596E+03  0.39937436778E+03 -0.63389046903E+03  0.87276574539E+03  0.80258662043E+02 0.  0.
        254    2    1    2    0    0  0.44041069596E+03 -0.39937436778E+03 -0.53873594107E+03  0.12062708525E+04  0.90077271746E+03 0.  0.
         23    2    4    4    0    0  0.66903684032E+03 -0.94879324541E+02 -0.28705814306E+03  0.74079213348E+03  0.98783741565E+02 0.  0.
         23    2    4    4    0    0 -0.22862614436E+03 -0.30449504324E+03 -0.25167779802E+03  0.46547871898E+03  0.91332242717E+02 0.  0.
          4    1    3    3  502    0 -0.66666434711E+02  0.79456411502E+02 -0.15271994365E+03  0.18461071484E+03  0.00000000000E+00 0. -1.
         -3    1    3    3    0  502 -0.37374426125E+03  0.31991795628E+03 -0.48117052538E+03  0.68815503054E+03  0.00000000000E+00 0.  1.
         11    1    5    5    0    0  0.61003068281E+03 -0.71435701562E+02 -0.28542141058E+03  0.67727828479E+03  0.00000000000E+00 0. -1.
        -11    1    5    5    0    0  0.59006157510E+02 -0.23443622979E+02 -0.16367324796E+01  0.63513848692E+02  0.00000000000E+00 0.  1.
          1    1    6    6  503    0 -0.87676134204E+02 -0.17800525295E+03 -0.16088866360E+03  0.25545672170E+03  0.00000000000E+00 0. -1.
         -1    1    6    6    0  503 -0.14095001016E+03 -0.12648979029E+03 -0.90789134417E+02  0.21002199728E+03  0.00000000000E+00 0.  1.
<mgrwt>
<rscale>  0 0.17167820E+04</rscale>
<asrwt>0</asrwt>
<pdfrwt beam="1">  1        2 0.25012792E+00 0.17167820E+04</pdfrwt>
<pdfrwt beam="2">  1       -1 0.69723861E-01 0.17167820E+04</pdfrwt>
<totfact> 0.24291035E+01</totfact>
</mgrwt>
</event>
<event>
12    6  0.1395358E-007  0.3525775E+04  0.7818608E-02  0.8107709E-01
         -1   -1    0    0    0  501 -0.00000000000E+00  0.00000000000E+00  0.20482051293E+04  0.20482051293E+04  0.00000000000E+00 0.  1.
          2   -1    0    0  501    0  0.00000000000E+00 -0.00000000000E+00 -0.15173148791E+04  0.15173148791E+04  0.00000000000E+00 0. -1.
         24    2    1    2    0    0 -0.45603517298E+03 -0.14595400562E+04  0.86862047063E+03  0.17604260884E+04  0.79832548972E+02 0.  0.
        254    2    1    2    0    0  0.45603517298E+03  0.14595400562E+04 -0.33773022039E+03  0.18050939200E+04  0.89781796786E+03 0.  0.
         23    2    4    4    0    0 -0.13289184159E+03  0.98926937617E+03 -0.89042343297E+02  0.10061344277E+04  0.89798706102E+02 0.  0.
         23    2    4    4    0    0  0.58892701456E+03  0.47027068008E+03 -0.24868787709E+03  0.79895949223E+03  0.92201241802E+02 0.  0.
          4    1    3    3  502    0 -0.91730664574E+02 -0.20224484708E+03  0.13386554523E+03  0.25930190357E+03  0.00000000000E+00 0. -1.
         -3    1    3    3    0  502 -0.36430450840E+03 -0.12572952092E+04  0.73475492540E+03  0.15011241848E+04  0.00000000000E+00 0.  1.
         11    1    5    5    0    0 -0.30627521052E+02  0.15433465138E+03 -0.45690034162E+02  0.16384385519E+03  0.00000000000E+00 0.  1.
        -11    1    5    5    0    0 -0.10226432054E+03  0.83493472479E+03 -0.43352309135E+02  0.84229057256E+03  0.00000000000E+00 0. -1.
          2    1    6    6  503    0  0.95640259276E+02  0.11894672910E+03 -0.33534666976E+02  0.15626886270E+03  0.00000000000E+00 0.  1.
         -2    1    6    6    0  503  0.49328675529E+03  0.35132395098E+03 -0.21515321011E+03  0.64269062954E+03  0.00000000000E+00 0. -1.
<mgrwt>
<rscale>  0 0.35257749E+04</rscale>
<asrwt>0</asrwt>
<pdfrwt beam="1">  1        2 0.23343306E+00 0.35257749E+04</pdfrwt>
<pdfrwt beam="2">  1       -1 0.31510848E+00 0.35257749E+04</pdfrwt>
<totfact> 0.30514051E-01</totfact>
</mgrwt>
</event>
<event>
12    6  0.1395358E-007  0.1895819E+04  0.7818608E-02  0.8656940E-01
         -1   -1    0    0    0  501 -0.00000000000E+00  0.00000000000E+00  0.45471301837E+03  0.45471301837E+03  0.00000000000E+00 0.  1.
          2   -1    0    0  501    0  0.00000000000E+00 -0.00000000000E+00 -0.19760437430E+04  0.19760437430E+04  0.00000000000E+00 0. -1.
         24    2    1    2    0    0  0.32493084574E+03  0.88291058711E+02  0.24192686744E+03  0.42292227624E+03  0.83422281127E+02 0.  0.
        254    2    1    2    0    0 -0.32493084574E+03 -0.88291058711E+02 -0.17632575920E+04  0.20078344851E+04  0.89941459744E+03 0.  0.
         23    2    4    4    0    0 -0.62052053347E+03 -0.27197880748E+02 -0.13381980102E+04  0.14781026963E+04  0.90709475466E+02 0.  0.
         23    2    4    4    0    0  0.29558968773E+03 -0.61093177963E+02 -0.42505958179E+03  0.52973178882E+03  0.93991915205E+02 0.  0.
          2    1    3    3  502    0  0.14341998425E+03  0.95336795983E+01  0.66021332077E+02  0.15817395240E+03  0.00000000000E+00 0. -1.
         -1    1    3    3    0  502  0.18151086149E+03  0.78757379112E+02  0.17590553536E+03  0.26474832383E+03  0.00000000000E+00 0.  1.
         11    1    5    5    0    0 -0.54230153500E+03 -0.53703520701E+02 -0.11732194756E+04  0.12936069577E+04  0.00000000000E+00 0.  1.
        -11    1    5    5    0    0 -0.78218998467E+02  0.26505639953E+02 -0.16497853464E+03  0.18449573860E+03  0.00000000000E+00 0. -1.
          2    1    6    6  503    0  0.19825065805E+03 -0.26123297968E+00 -0.23241543423E+03  0.30548375690E+03  0.00000000000E+00 0.  1.
         -2    1    6    6    0  503  0.97339029676E+02 -0.60831944983E+02 -0.19264414756E+03  0.22424803191E+03  0.00000000000E+00 0. -1.
<mgrwt>
<rscale>  0 0.18958194E+04</rscale>
<asrwt>0</asrwt>
<pdfrwt beam="1">  1        2 0.30400673E+00 0.18958194E+04</pdfrwt>
<pdfrwt beam="2">  1       -1 0.69955849E-01 0.18958194E+04</pdfrwt>
<totfact> 0.15183828E+01</totfact>
</mgrwt>
</event>
<event>
12    6  0.1395358E-007  0.1992387E+04  0.7818608E-02  0.8610188E-01
         -1   -1    0    0    0  501 -0.00000000000E+00  0.00000000000E+00  0.86840781075E+03  0.86840781075E+03  0.00000000000E+00 0.  1.
          2   -1    0    0  501    0  0.00000000000E+00 -0.00000000000E+00 -0.11427828919E+04  0.11427828919E+04  0.00000000000E+00 0. -1.
         24    2    1    2    0    0 -0.77524868917E+03  0.51008072098E+02 -0.25623754887E+03  0.82190903343E+03  0.79148116257E+02 0.  0.
        254    2    1    2    0    0  0.77524868917E+03 -0.51008072098E+02 -0.18137532271E+02  0.11892816692E+04  0.90024972378E+03 0.  0.
         23    2    4    4    0    0  0.68180039734E+03 -0.41103703633E+03 -0.60619431866E+02  0.80445504024E+03  0.98336001526E+02 0.  0.
         23    2    4    4    0    0  0.93448291825E+02  0.36002896423E+03  0.42481899595E+02  0.38482662897E+03  0.89069547203E+02 0.  0.
          4    1    3    3  502    0 -0.70870552905E+03  0.24087226287E+02 -0.23532681571E+03  0.74714284549E+03  0.00000000000E+00 0. -1.
         -3    1    3    3    0  502 -0.66543160119E+02  0.26920845811E+02 -0.20910733164E+02  0.74766187941E+02  0.00000000000E+00 0.  1.
         11    1    5    5    0    0  0.55123535617E+03 -0.36883579245E+03 -0.30371136195E+02  0.66394477601E+03  0.00000000000E+00 0.  1.
        -11    1    5    5    0    0  0.13056504118E+03 -0.42201243880E+02 -0.30248295670E+02  0.14051026423E+03  0.00000000000E+00 0. -1.
          4    1    6    6  503    0  0.84857099345E+02  0.15266832758E+03  0.12218969199E+02  0.17509325733E+03  0.00000000000E+00 0.  1.
         -4    1    6    6    0  503  0.85911924794E+01  0.20736063666E+03  0.30262930396E+02  0.20973337164E+03  0.00000000000E+00 0. -1.
<mgrwt>
<rscale>  0 0.19923871E+04</rscale>
<asrwt>0</asrwt>
<pdfrwt beam="1">  1        2 0.17581275E+00 0.19923871E+04</pdfrwt>
<pdfrwt beam="2">  1       -1 0.13360120E+00 0.19923871E+04</pdfrwt>
<totfact> 0.10286456E+01</totfact>
</mgrwt>
</event>
<event>
12    6  0.1395358E-007  0.1619228E+04  0.7818608E-02  0.8808822E-01
         -1   -1    0    0    0  501 -0.00000000000E+00  0.00000000000E+00  0.46851781628E+03  0.46851781628E+03  0.00000000000E+00 0.  1.
          2   -1    0    0  501    0  0.00000000000E+00 -0.00000000000E+00 -0.13990387300E+04  0.13990387300E+04  0.00000000000E+00 0. -1.
         24    2    1    2    0    0 -0.25258804683E+02 -0.13885809683E+03  0.29685472209E+03  0.33842841051E+03  0.80569750800E+02 0.  0.
        254    2    1    2    0    0  0.25258804683E+02  0.13885809683E+03 -0.12273756358E+04  0.15291281357E+04  0.90103403150E+03 0.  0.
         23    2    4    4    0    0 -0.15847376373E+03  0.37098121438E+03 -0.20689128358E+03  0.46288905141E+03  0.93387769448E+02 0.  0.
         23    2    4    4    0    0  0.18373256842E+03 -0.23212311755E+03 -0.10204843522E+04  0.10662390843E+04  0.88536283182E+02 0.  0.
          2    1    3    3  502    0 -0.18228448960E+01 -0.11830269497E+03  0.16561158933E+03  0.20353390116E+03  0.00000000000E+00 0. -1.
         -1    1    3    3    0  502 -0.23435959787E+02 -0.20555401865E+02  0.13124313276E+03  0.13489450936E+03  0.00000000000E+00 0.  1.
         11    1    5    5    0    0 -0.19879932647E+02  0.20620021722E+01 -0.99644037397E+01  0.22332776739E+02  0.00000000000E+00 0. -1.
        -11    1    5    5    0    0 -0.13859383109E+03  0.36891921221E+03 -0.19692687984E+03  0.44055627467E+03  0.00000000000E+00 0.  1.
          3    1    6    6  503    0  0.16092111463E+03 -0.15440170700E+03 -0.65630929839E+03  0.69316476210E+03  0.00000000000E+00 0. -1.
         -3    1    6    6    0  503  0.22811453781E+02 -0.77721410552E+02 -0.36417505381E+03  0.37307432222E+03  0.00000000000E+00 0.  1.
<mgrwt>
<rscale>  0 0.16192277E+04</rscale>
<asrwt>0</asrwt>
<pdfrwt beam="1">  1        2 0.21523672E+00 0.16192277E+04</pdfrwt>
<pdfrwt beam="2">  1       -1 0.72079665E-01 0.16192277E+04</pdfrwt>
<totfact> 0.30710443E+01</totfact>
</mgrwt>
</event>
<event>
12    6  0.1395358E-007  0.1333543E+04  0.7818608E-02  0.9003380E-01
         -1   -1    0    0    0  501 -0.00000000000E+00  0.00000000000E+00  0.21451921688E+03  0.21451921688E+03  0.00000000000E+00 0.  1.
          2   -1    0    0  501    0  0.00000000000E+00 -0.00000000000E+00 -0.20724695041E+04  0.20724695041E+04  0.00000000000E+00 0. -1.
         24    2    1    2    0    0  0.18355246471E+02 -0.32388371456E+03 -0.76862362965E+03  0.83815777455E+03  0.80551817830E+02 0.  0.
        254    2    1    2    0    0 -0.18355246471E+02  0.32388371456E+03 -0.10893266575E+04  0.14488309464E+04  0.89846589740E+03 0.  0.
         23    2    4    4    0    0 -0.29236559880E+01  0.74692013063E+02  0.14329276989E+03  0.18790385451E+03  0.95851948632E+02 0.  0.
         23    2    4    4    0    0 -0.15431590483E+02  0.24919170150E+03 -0.12326194274E+04  0.12609270919E+04  0.90839639666E+02 0.  0.
          4    1    3    3  502    0  0.34503852809E+02 -0.81592575934E+02 -0.25682237178E+03  0.27167185160E+03  0.00000000000E+00 0. -1.
         -3    1    3    3    0  502 -0.16148606338E+02 -0.24229113863E+03 -0.51180125787E+03  0.56648592295E+03  0.00000000000E+00 0.  1.
         11    1    5    5    0    0  0.22689358294E+02 -0.15656764336E+02  0.29775579467E+02  0.40577412212E+02  0.00000000000E+00 0. -1.
        -11    1    5    5    0    0 -0.25613014282E+02  0.90348777399E+02  0.11351719042E+03  0.14732644229E+03  0.00000000000E+00 0.  1.
          4    1    6    6  503    0  0.58122910019E+01 -0.65330619827E+01 -0.53384856573E+02  0.54096271007E+02  0.00000000000E+00 0.  1.
         -4    1    6    6    0  503 -0.21243881485E+02  0.25572476348E+03 -0.11792345708E+04  0.12068308209E+04  0.00000000000E+00 0. -1.
<mgrwt>
<rscale>  0 0.13335435E+04</rscale>
<asrwt>0</asrwt>
<pdfrwt beam="1">  1        2 0.31884146E+00 0.13335435E+04</pdfrwt>
<pdfrwt beam="2">  1       -1 0.33002956E-01 0.13335435E+04</pdfrwt>
<totfact> 0.58516175E+01</totfact>
</mgrwt>
</event>
<event>
12    6  0.1395358E-007  0.1947255E+04  0.7818608E-02  0.8631685E-01
         -1   -1    0    0    0  501 -0.00000000000E+00  0.00000000000E+00  0.47976486098E+03  0.47976486098E+03  0.00000000000E+00 0.  1.
          2   -1    0    0  501    0  0.00000000000E+00 -0.00000000000E+00 -0.19758656556E+04  0.19758656556E+04  0.00000000000E+00 0. -1.
         24    2    1    2    0    0  0.84668274894E+02  0.75810781799E+03 -0.55983184329E+03  0.94948594918E+03  0.78839675657E+02 0.  0.
        254    2    1    2    0    0 -0.84668274894E+02 -0.75810781799E+03 -0.93626895134E+03  0.15061445674E+04  0.89998651559E+03 0.  0.
         23    2    4    4    0    0 -0.27138447584E+03 -0.12604471187E+02  0.73482860410E+01  0.28562527223E+03  0.87860072866E+02 0.  0.
         23    2    4    4    0    0  0.18671620095E+03 -0.74550334680E+03 -0.94361723738E+03  0.12205192952E+04  0.92820684432E+02 0.  0.
          2    1    3    3  502    0  0.26035354791E+02  0.64767176976E+02 -0.67539881293E+02  0.97130131667E+02  0.00000000000E+00 0. -1.
         -1    1    3    3    0  502  0.58632920103E+02  0.69334064101E+03 -0.49229196199E+03  0.85235581751E+03  0.00000000000E+00 0.  1.
         11    1    5    5    0    0 -0.74151297045E+02  0.34615018304E+02 -0.80896177913E+01  0.82231722964E+02  0.00000000000E+00 0.  1.
        -11    1    5    5    0    0 -0.19723317880E+03 -0.47219489491E+02  0.15437903832E+02  0.20339354926E+03  0.00000000000E+00 0. -1.
          4    1    6    6  503    0  0.18007050634E+03 -0.59420260662E+03 -0.79015498913E+03  0.10049114547E+04  0.00000000000E+00 0. -1.
         -4    1    6    6    0  503  0.66456946119E+01 -0.15130074019E+03 -0.15346224825E+03  0.21560784048E+03  0.00000000000E+00 0.  1.
<mgrwt>
<rscale>  0 0.19472554E+04</rscale>
<asrwt>0</asrwt>
<pdfrwt beam="1">  1        2 0.30397933E+00 0.19472554E+04</pdfrwt>
<pdfrwt beam="2">  1       -1 0.73809980E-01 0.19472554E+04</pdfrwt>
<totfact> 0.13533584E+01</totfact>
</mgrwt>
</event>
<event>
12    6  0.1395358E-007  0.1582385E+04  0.7818608E-02  0.8831443E-01
          2   -1    0    0  501    0  0.00000000000E+00  0.00000000000E+00  0.11398134971E+04  0.11398134971E+04  0.00000000000E+00 0. -1.
         -1   -1    0    0    0  501 -0.00000000000E+00 -0.00000000000E+00 -0.54920023727E+03  0.54920023727E+03  0.00000000000E+00 0.  1.
         24    2    1    2    0    0 -0.38287939187E+03  0.30563020859E+03  0.42192421680E+03  0.65134325747E+03  0.78876746872E+02 0.  0.
        254    2    1    2    0    0  0.38287939187E+03 -0.30563020859E+03  0.16868904301E+03  0.10376704769E+04  0.89905370932E+03 0.  0.
         23    2    4    4    0    0  0.22960799322E+03 -0.37229062307E+03  0.49072985970E+03  0.66374428013E+03  0.91763476581E+02 0.  0.
         23    2    4    4    0    0  0.15327139865E+03  0.66660414476E+02 -0.32204081669E+03  0.37392619675E+03  0.90414492771E+02 0.  0.
          4    1    3    3  502    0 -0.36350314576E+03  0.26285009180E+03  0.39140785965E+03  0.59533588867E+03  0.00000000000E+00 0. -1.
         -3    1    3    3    0  502 -0.19376246113E+02  0.42780116790E+02  0.30516357149E+02  0.56007368798E+02  0.00000000000E+00 0.  1.
         11    1    5    5    0    0  0.14773527636E+03 -0.17027171445E+03  0.29096306841E+03  0.36807292185E+03  0.00000000000E+00 0. -1.
        -11    1    5    5    0    0  0.81872716867E+02 -0.20201890862E+03  0.19976679129E+03  0.29567135828E+03  0.00000000000E+00 0.  1.
          1    1    6    6  503    0  0.59296843361E+02 -0.19601120859E+02 -0.10785262286E+03  0.12462948218E+03  0.00000000000E+00 0. -1.
         -1    1    6    6    0  503  0.93974555289E+02  0.86261535334E+02 -0.21418819383E+03  0.24929671457E+03  0.00000000000E+00 0.  1.
<mgrwt>
<rscale>  0 0.15823853E+04</rscale>
<asrwt>0</asrwt>
<pdfrwt beam="1">  1        2 0.17535592E+00 0.15823853E+04</pdfrwt>
<pdfrwt beam="2">  1       -1 0.84492344E-01 0.15823853E+04</pdfrwt>
<totfact> 0.31285241E+01</totfact>
</mgrwt>
</event>
<event>
12    6  0.1395358E-007  0.1689037E+04  0.7818608E-02  0.8767642E-01
          2   -1    0    0  501    0  0.00000000000E+00  0.00000000000E+00  0.37301690088E+04  0.37301690088E+04  0.00000000000E+00 0. -1.
         -1   -1    0    0    0  501 -0.00000000000E+00 -0.00000000000E+00 -0.19120075865E+03  0.19120075865E+03  0.00000000000E+00 0.  1.
         24    2    1    2    0    0 -0.66081409604E+01  0.57119545598E+03  0.82724723324E+03  0.10088146720E+04  0.84030595881E+02 0.  0.
        254    2    1    2    0    0  0.66081409604E+01 -0.57119545598E+03  0.27117210169E+04  0.29125550955E+04  0.89623568001E+03 0.  0.
         23    2    4    4    0    0 -0.59605119539E+02 -0.59168536448E+03  0.27314543316E+04  0.27969651726E+04  0.92342136999E+02 0.  0.
         23    2    4    4    0    0  0.66213260499E+02  0.20489908497E+02 -0.19733314655E+02  0.11558992291E+03  0.90374744008E+02 0.  0.
          2    1    3    3  502    0  0.33125588153E+02  0.31142151699E+03  0.41456147225E+03  0.51955931337E+03  0.00000000000E+00 0. -1.
         -1    1    3    3    0  502 -0.39733729114E+02  0.25977393899E+03  0.41268576099E+03  0.48925535861E+03  0.00000000000E+00 0.  1.
         11    1    5    5    0    0  0.22142520755E+02 -0.16217348850E+03  0.67753880736E+03  0.69702895713E+03  0.00000000000E+00 0.  1.
        -11    1    5    5    0    0 -0.81747640294E+02 -0.42951187597E+03  0.20539155242E+04  0.20999362154E+04  0.00000000000E+00 0. -1.
          3    1    6    6  503    0  0.84372177321E+02  0.54132897816E+00 -0.25218602654E+02  0.88062110256E+02  0.00000000000E+00 0. -1.
         -3    1    6    6    0  503 -0.18158916822E+02  0.19948579519E+02  0.54852879992E+01  0.27527812652E+02  0.00000000000E+00 0.  1.
<mgrwt>
<rscale>  0 0.16890366E+04</rscale>
<asrwt>0</asrwt>
<pdfrwt beam="1">  1        2 0.57387210E+00 0.16890366E+04</pdfrwt>
<pdfrwt beam="2">  1       -1 0.29415504E-01 0.16890366E+04</pdfrwt>
<totfact> 0.64339353E+00</totfact>
</mgrwt>
</event>
<event>
12    6  0.1395358E-007  0.1533757E+04  0.7818608E-02  0.8862310E-01
          2   -1    0    0  501    0  0.00000000000E+00  0.00000000000E+00  0.10566949464E+04  0.10566949464E+04  0.00000000000E+00 0. -1.
         -1   -1    0    0    0  501 -0.00000000000E+00 -0.00000000000E+00 -0.55654897452E+03  0.55654897452E+03  0.00000000000E+00 0.  1.
         24    2    1    2    0    0  0.10110314773E+03 -0.48192261003E+03  0.23686983917E+03  0.55341642928E+03  0.87699344033E+02 0.  0.
        254    2    1    2    0    0 -0.10110314773E+03  0.48192261003E+03  0.26327613270E+03  0.10598274916E+04  0.90080449679E+03 0.  0.
         23    2    4    4    0    0 -0.41169487439E+03  0.52738507028E+03  0.67515379074E+02  0.67861495812E+03  0.91281175627E+02 0.  0.
         23    2    4    4    0    0  0.31059172666E+03 -0.45462460245E+02  0.19576075363E+03  0.38121253352E+03  0.92014493899E+02 0.  0.
          4    1    3    3  502    0 -0.19501774621E+01 -0.14706327889E+03  0.96932180027E+02  0.17614556115E+03  0.00000000000E+00 0. -1.
         -3    1    3    3    0  502  0.10305332519E+03 -0.33485933114E+03  0.13993765914E+03  0.37727086812E+03  0.00000000000E+00 0.  1.
         11    1    5    5    0    0 -0.38882463917E+03  0.51332865368E+03  0.80171878121E+02  0.64893638883E+03  0.00000000000E+00 0. -1.
        -11    1    5    5    0    0 -0.22870235227E+02  0.14056416597E+02 -0.12656499047E+02  0.29678569289E+02  0.00000000000E+00 0.  1.
          4    1    6    6  503    0  0.24810355822E+03 -0.59230686457E+02  0.11955014468E+03  0.28170176946E+03  0.00000000000E+00 0. -1.
         -4    1    6    6    0  503  0.62488168436E+02  0.13768226213E+02  0.76210608948E+02  0.99510764060E+02  0.00000000000E+00 0.  1.
<mgrwt>
<rscale>  0 0.15337568E+04</rscale>
<asrwt>0</asrwt>
<pdfrwt beam="1">  1        2 0.16256845E+00 0.15337568E+04</pdfrwt>
<pdfrwt beam="2">  1       -1 0.85622919E-01 0.15337568E+04</pdfrwt>
<totfact> 0.34350290E+01</totfact>
</mgrwt>
</event>
<event>
12    6  0.1395358E-007  0.1857601E+04  0.7818608E-02  0.8676254E-01
         -1   -1    0    0    0  501 -0.00000000000E+00  0.00000000000E+00  0.31199503373E+03  0.31199503373E+03  0.00000000000E+00 0.  1.
          2   -1    0    0  501    0  0.00000000000E+00 -0.00000000000E+00 -0.27650119507E+04  0.27650119507E+04  0.00000000000E+00 0. -1.
         24    2    1    2    0    0  0.50547873829E+03 -0.25375166307E+03 -0.16551747411E+04  0.17509071933E+04  0.78574260766E+02 0.  0.
        254    2    1    2    0    0 -0.50547873829E+03  0.25375166307E+03 -0.79784217578E+03  0.13260997911E+04  0.89559469465E+03 0.  0.
         23    2    4    4    0    0 -0.23241981127E+03 -0.98464131012E+02  0.12582797772E+03  0.29673405287E+03  0.92218568550E+02 0.  0.
         23    2    4    4    0    0 -0.27305892702E+03  0.35221579408E+03 -0.92367015349E+03  0.10293657382E+04  0.88374924787E+02 0.  0.
          4    1    3    3  502    0  0.13058535276E+02 -0.19873435186E+02 -0.10543613403E+03  0.10808449069E+03  0.00000000000E+00 0. -1.
         -3    1    3    3    0  502  0.49242020301E+03 -0.23387822788E+03 -0.15497386071E+04  0.16428227026E+04  0.00000000000E+00 0.  1.
         11    1    5    5    0    0 -0.10351082365E+03 -0.72609280050E+01  0.83662394559E+02  0.13329143990E+03  0.00000000000E+00 0. -1.
        -11    1    5    5    0    0 -0.12890898762E+03 -0.91203203007E+02  0.42165583158E+02  0.16344261296E+03  0.00000000000E+00 0.  1.
          3    1    6    6  503    0 -0.75554737804E+02  0.57858400514E+02 -0.26161521598E+03  0.27838576498E+03  0.00000000000E+00 0. -1.
         -3    1    6    6    0  503 -0.19750418921E+03  0.29435739357E+03 -0.66205493752E+03  0.75097997323E+03  0.00000000000E+00 0.  1.
<mgrwt>
<rscale>  0 0.18576006E+04</rscale>
<asrwt>0</asrwt>
<pdfrwt beam="1">  1        2 0.42538643E+00 0.18576006E+04</pdfrwt>
<pdfrwt beam="2">  1       -1 0.47999239E-01 0.18576006E+04</pdfrwt>
<totfact> 0.11289192E+01</totfact>
</mgrwt>
</event>
<event>
12    6  0.1395358E-007  0.2235511E+04  0.7818608E-02  0.8503792E-01
          2   -1    0    0  501    0  0.00000000000E+00  0.00000000000E+00  0.22630925187E+04  0.22630925187E+04  0.00000000000E+00 0. -1.
         -1   -1    0    0    0  501 -0.00000000000E+00 -0.00000000000E+00 -0.55206621868E+03  0.55206621868E+03  0.00000000000E+00 0.  1.
         24    2    1    2    0    0  0.39721156259E+03  0.41586951844E+03 -0.21144667910E+03  0.61795033691E+03  0.80177546531E+02 0.  0.
        254    2    1    2    0    0 -0.39721156259E+03 -0.41586951844E+03  0.19224729791E+04  0.21972084005E+04  0.89504073526E+03 0.  0.
         23    2    4    4    0    0 -0.18631993898E+02 -0.82943101872E+02 -0.67328498838E+02  0.14253726864E+03  0.92504253146E+02 0.  0.
         23    2    4    4    0    0 -0.37857956869E+03 -0.33292641657E+03  0.19898014780E+04  0.20546711318E+04  0.90559646502E+02 0.  0.
          2    1    3    3  502    0  0.16170115476E+03  0.14223592419E+03 -0.43208077127E+02  0.21964803552E+03  0.00000000000E+00 0. -1.
         -1    1    3    3    0  502  0.23551040783E+03  0.27363359425E+03 -0.16823860198E+03  0.39830230139E+03  0.00000000000E+00 0.  1.
         11    1    5    5    0    0 -0.55216331334E+01 -0.77565249186E+02 -0.88025783540E+02  0.11745379892E+03  0.00000000000E+00 0. -1.
        -11    1    5    5    0    0 -0.13110360764E+02 -0.53778526853E+01  0.20697284701E+02  0.25083469714E+02  0.00000000000E+00 0.  1.
          4    1    6    6  503    0 -0.29943576779E+03 -0.23071393252E+03  0.13490317046E+04  0.14009915195E+04  0.00000000000E+00 0. -1.
         -4    1    6    6    0  503 -0.79143800901E+02 -0.10221248405E+03  0.64076977337E+03  0.65367961233E+03  0.00000000000E+00 0.  1.
<mgrwt>
<rscale>  0 0.22355106E+04</rscale>
<asrwt>0</asrwt>
<pdfrwt beam="1">  1        2 0.34816808E+00 0.22355106E+04</pdfrwt>
<pdfrwt beam="2">  1       -1 0.84933265E-01 0.22355106E+04</pdfrwt>
<totfact> 0.67660034E+00</totfact>
</mgrwt>
</event>
<event>
12    6  0.1395358E-007  0.2763738E+04  0.7818608E-02  0.8314616E-01
          2   -1    0    0  501    0  0.00000000000E+00  0.00000000000E+00  0.25100804832E+04  0.25100804832E+04  0.00000000000E+00 0. -1.
         -1   -1    0    0    0  501 -0.00000000000E+00 -0.00000000000E+00 -0.76075713769E+03  0.76075713769E+03  0.00000000000E+00 0.  1.
         24    2    1    2    0    0  0.37843018053E+03  0.11040893050E+04  0.31074100463E+03  0.12104751283E+04  0.80420578255E+02 0.  0.
        254    2    1    2    0    0 -0.37843018053E+03 -0.11040893050E+04  0.14385823408E+04  0.20603624925E+04  0.90186021887E+03 0.  0.
         23    2    4    4    0    0 -0.48505090597E+03 -0.11075974455E+04  0.91662599614E+03  0.15200078226E+04  0.90410626674E+02 0.  0.
         23    2    4    4    0    0  0.10662072544E+03  0.35081404934E+01  0.52195634470E+03  0.54035466993E+03  0.90357387045E+02 0.  0.
          2    1    3    3  502    0  0.24007805398E+03  0.59557386349E+03  0.19247971420E+03  0.67036865921E+03  0.00000000000E+00 0. -1.
         -1    1    3    3    0  502  0.13835212655E+03  0.50851544148E+03  0.11826129043E+03  0.54010646910E+03  0.00000000000E+00 0.  1.
         11    1    5    5    0    0 -0.46362865885E+02 -0.53844969742E+02  0.50481729577E+02  0.87161924719E+02  0.00000000000E+00 0.  1.
        -11    1    5    5    0    0 -0.43868804009E+03 -0.10537524757E+04  0.86614426657E+03  0.14328458979E+04  0.00000000000E+00 0. -1.
          1    1    6    6  503    0  0.22727223063E+02  0.29985961206E+02  0.28723677028E+03  0.28969060519E+03  0.00000000000E+00 0. -1.
         -1    1    6    6    0  503  0.83893502378E+02 -0.26477820712E+02  0.23471957443E+03  0.25066406474E+03  0.00000000000E+00 0.  1.
<mgrwt>
<rscale>  0 0.27637378E+04</rscale>
<asrwt>0</asrwt>
<pdfrwt beam="1">  1        2 0.38616622E+00 0.27637378E+04</pdfrwt>
<pdfrwt beam="2">  1       -1 0.11703956E+00 0.27637378E+04</pdfrwt>
<totfact> 0.22415366E+00</totfact>
</mgrwt>
</event>
<event>
12    6  0.1395358E-007  0.2301876E+04  0.7818608E-02  0.8477182E-01
          2   -1    0    0  501    0  0.00000000000E+00  0.00000000000E+00  0.18747256901E+04  0.18747256901E+04  0.00000000000E+00 0. -1.
         -1   -1    0    0    0  501 -0.00000000000E+00 -0.00000000000E+00 -0.70658785929E+03  0.70658785929E+03  0.00000000000E+00 0.  1.
         24    2    1    2    0    0  0.68924855708E+03  0.68534420143E+03  0.51922025460E+03  0.11071735995E+04  0.10716090125E+03 0.  0.
        254    2    1    2    0    0 -0.68924855708E+03 -0.68534420143E+03  0.64891757622E+03  0.14741399499E+04  0.89846219917E+03 0.  0.
         23    2    4    4    0    0 -0.20511994556E+03  0.15393194602E+03  0.37530011475E+03  0.46355809492E+03  0.90921368016E+02 0.  0.
         23    2    4    4    0    0 -0.48412861151E+03 -0.83927614744E+03  0.27361746147E+03  0.10105818550E+04  0.87431151545E+02 0.  0.
          4    1    3    3  502    0  0.57097811464E+03  0.52010449165E+03  0.44135747354E+03  0.88956231321E+03  0.00000000000E+00 0. -1.
         -3    1    3    3    0  502  0.11827044243E+03  0.16523970978E+03  0.77862781057E+02  0.21761128628E+03  0.00000000000E+00 0.  1.
         11    1    5    5    0    0 -0.17152652346E+03  0.10909166613E+03  0.34347834201E+03  0.39912367920E+03  0.00000000000E+00 0.  1.
        -11    1    5    5    0    0 -0.33593422096E+02  0.44840279884E+02  0.31821772741E+02  0.64434415715E+02  0.00000000000E+00 0. -1.
          2    1    6    6  503    0 -0.51014716978E+02 -0.52081510142E+02  0.35488703521E+02  0.81082878123E+02  0.00000000000E+00 0. -1.
         -2    1    6    6    0  503 -0.43311389454E+03 -0.78719463730E+03  0.23812875795E+03  0.92949897687E+03  0.00000000000E+00 0.  1.
<mgrwt>
<rscale>  0 0.23018761E+04</rscale>
<asrwt>0</asrwt>
<pdfrwt beam="1">  1        2 0.28841934E+00 0.23018761E+04</pdfrwt>
<pdfrwt beam="2">  1       -1 0.10870583E+00 0.23018761E+04</pdfrwt>
<totfact> 0.63510236E+00</totfact>
</mgrwt>
</event>
<event>
12    6  0.1395358E-007  0.2528265E+04  0.7818608E-02  0.8392985E-01
          2   -1    0    0  501    0  0.00000000000E+00  0.00000000000E+00  0.17996266534E+04  0.17996266534E+04  0.00000000000E+00 0. -1.
         -3   -1    0    0    0  501 -0.00000000000E+00 -0.00000000000E+00 -0.88797909983E+03  0.88797909983E+03  0.00000000000E+00 0.  1.
         24    2    1    2    0    0  0.91322743164E+03 -0.17956719622E+03 -0.23091990127E+03  0.96226822901E+03  0.80046385898E+02 0.  0.
        254    2    1    2    0    0 -0.91322743164E+03  0.17956719622E+03  0.11425674548E+04  0.17253375242E+04  0.89727390677E+03 0.  0.
         23    2    4    4    0    0 -0.32908823390E+03 -0.23714490312E+03  0.54743849691E+02  0.41881131659E+03  0.88708844297E+02 0.  0.
         23    2    4    4    0    0 -0.58413919774E+03  0.41671209934E+03  0.10878236051E+04  0.13065262076E+04  0.93717443692E+02 0.  0.
          2    1    3    3  502    0  0.55875989160E+03 -0.70362007470E+02 -0.13350119908E+03  0.57877974974E+03  0.00000000000E+00 0. -1.
         -1    1    3    3    0  502  0.35446754004E+03 -0.10920518875E+03 -0.97418702191E+02  0.38348847927E+03  0.00000000000E+00 0.  1.
         11    1    5    5    0    0 -0.21715172227E+03 -0.17681023645E+03  0.75351809834E+02  0.28999073338E+03  0.00000000000E+00 0.  1.
        -11    1    5    5    0    0 -0.11193651163E+03 -0.60334666665E+02 -0.20607960143E+02  0.12882058321E+03  0.00000000000E+00 0. -1.
          4    1    6    6  503    0 -0.38671252506E+03  0.23234699316E+03  0.73063942110E+03  0.85869998598E+03  0.00000000000E+00 0. -1.
         -4    1    6    6    0  503 -0.19742667268E+03  0.18436510618E+03  0.35718418403E+03  0.44782622164E+03  0.00000000000E+00 0.  1.
<mgrwt>
<rscale>  0 0.25282649E+04</rscale>
<asrwt>0</asrwt>
<pdfrwt beam="1">  1        2 0.27686564E+00 0.25282649E+04</pdfrwt>
<pdfrwt beam="2">  1       -3 0.13661217E+00 0.25282649E+04</pdfrwt>
<totfact> 0.19999906E+00</totfact>
</mgrwt>
</event>
<event>
12    6  0.1395358E-007  0.3906078E+04  0.7818608E-02  0.8023766E-01
         -1   -1    0    0    0  501 -0.00000000000E+00  0.00000000000E+00  0.92112244443E+03  0.92112244443E+03  0.00000000000E+00 0.  1.
          2   -1    0    0  501    0  0.00000000000E+00 -0.00000000000E+00 -0.41409934181E+04  0.41409934181E+04  0.00000000000E+00 0. -1.
         24    2    1    2    0    0 -0.58081721894E+03  0.17017235096E+04 -0.96872322375E+03  0.20437713716E+04  0.73247459059E+02 0.  0.
        254    2    1    2    0    0  0.58081721894E+03 -0.17017235096E+04 -0.22511477499E+04  0.30183444909E+04  0.89973647739E+03 0.  0.
         23    2    4    4    0    0  0.56633495421E+03 -0.10202163074E+04 -0.81528419547E+03  0.14262683868E+04  0.89311800806E+02 0.  0.
         23    2    4    4    0    0  0.14482264725E+02 -0.68150720226E+03 -0.14358635545E+04  0.15920761041E+04  0.91325633659E+02 0.  0.
          2    1    3    3  502    0 -0.24834030177E+03  0.83653428146E+03 -0.45828577970E+03  0.98564109361E+03  0.00000000000E+00 0. -1.
         -1    1    3    3    0  502 -0.33247691717E+03  0.86518922816E+03 -0.51043744404E+03  0.10581302780E+04  0.00000000000E+00 0.  1.
         11    1    5    5    0    0  0.10570778906E+03 -0.12928575288E+03 -0.10492746631E+03  0.19722757351E+03  0.00000000000E+00 0.  1.
        -11    1    5    5    0    0  0.46062716515E+03 -0.89093055448E+03 -0.71035672916E+03  0.12290408133E+04  0.00000000000E+00 0. -1.
          1    1    6    6  503    0  0.15356552122E+02 -0.23572384651E+03 -0.59878529827E+03  0.64369665910E+03  0.00000000000E+00 0. -1.
         -1    1    6    6    0  503 -0.87428739700E+00 -0.44578335575E+03 -0.83707825618E+03  0.94837944496E+03  0.00000000000E+00 0.  1.
<mgrwt>
<rscale>  0 0.39060783E+04</rscale>
<asrwt>0</asrwt>
<pdfrwt beam="1">  1        2 0.63707591E+00 0.39060783E+04</pdfrwt>
<pdfrwt beam="2">  1       -1 0.14171115E+00 0.39060783E+04</pdfrwt>
<totfact> 0.95253120E-02</totfact>
</mgrwt>
</event>
<event>
12    6  0.1395358E-007  0.1898454E+04  0.7818608E-02  0.8655626E-01
          2   -1    0    0  501    0  0.00000000000E+00  0.00000000000E+00  0.11432944545E+04  0.11432944545E+04  0.00000000000E+00 0. -1.
         -1   -1    0    0    0  501 -0.00000000000E+00 -0.00000000000E+00 -0.78810137388E+03  0.78810137388E+03  0.00000000000E+00 0.  1.
         24    2    1    2    0    0  0.34692210039E+03  0.61762788085E+03  0.33542754353E+03  0.78795788334E+03  0.80912582559E+02 0.  0.
        254    2    1    2    0    0 -0.34692210039E+03 -0.61762788085E+03  0.19765537056E+02  0.11434379450E+04  0.89735194584E+03 0.  0.
         23    2    4    4    0    0 -0.10931558079E+03 -0.35610951290E+03 -0.42201201619E+03  0.57017442523E+03  0.90779138581E+02 0.  0.
         23    2    4    4    0    0 -0.23760651960E+03 -0.26151836795E+03  0.44177755324E+03  0.57326351978E+03  0.92816709869E+02 0.  0.
          2    1    3    3  502    0  0.33795209486E+03  0.56017803311E+03  0.29874243765E+03  0.71920657064E+03  0.00000000000E+00 0. -1.
         -1    1    3    3    0  502  0.89700055328E+01  0.57449847738E+02  0.36685105882E+02  0.68751312700E+02  0.00000000000E+00 0.  1.
         11    1    5    5    0    0 -0.91433537347E+02 -0.31577075065E+03 -0.40782561818E+03  0.52382534643E+03  0.00000000000E+00 0. -1.
        -11    1    5    5    0    0 -0.17882043447E+02 -0.40338762249E+02 -0.14186398010E+02  0.46349078805E+02  0.00000000000E+00 0.  1.
          2    1    6    6  503    0 -0.23576094171E+03 -0.26845575867E+03  0.42644456063E+03  0.55633324482E+03  0.00000000000E+00 0. -1.
         -2    1    6    6    0  503 -0.18455778881E+01  0.69373907232E+01  0.15332992611E+02  0.16930274959E+02  0.00000000000E+00 0.  1.
<mgrwt>
<rscale>  0 0.18984540E+04</rscale>
<asrwt>0</asrwt>
<pdfrwt beam="1">  1        2 0.17589145E+00 0.18984540E+04</pdfrwt>
<pdfrwt beam="2">  1       -1 0.12124637E+00 0.18984540E+04</pdfrwt>
<totfact> 0.13213720E+01</totfact>
</mgrwt>
</event>
<event>
12    6  0.1395358E-007  0.2765623E+04  0.7818608E-02  0.8314021E-01
          2   -1    0    0  501    0  0.00000000000E+00  0.00000000000E+00  0.14628081126E+04  0.14628081126E+04  0.00000000000E+00 0. -1.
         -1   -1    0    0    0  501 -0.00000000000E+00 -0.00000000000E+00 -0.13071899021E+04  0.13071899021E+04  0.00000000000E+00 0.  1.
         24    2    1    2    0    0  0.11080566465E+04  0.53394576070E+03  0.19298794180E+03  0.12474602679E+04  0.77621950933E+02 0.  0.
        254    2    1    2    0    0 -0.11080566465E+04 -0.53394576070E+03 -0.37369731354E+02  0.15225377468E+04  0.89656962159E+03 0.  0.
         23    2    4    4    0    0 -0.68958415558E+03 -0.30734478373E+03  0.40919404302E+03  0.86362182827E+03  0.91737526207E+02 0.  0.
         23    2    4    4    0    0 -0.41847249089E+03 -0.22660097697E+03 -0.44656377437E+03  0.65891591850E+03  0.91015134306E+02 0.  0.
          2    1    3    3  502    0  0.97224562916E+02  0.23885931781E+02  0.11412588458E+02  0.10076408361E+03  0.00000000000E+00 0. -1.
         -1    1    3    3    0  502  0.10108320835E+04  0.51005982892E+03  0.18157535334E+03  0.11466961843E+04  0.00000000000E+00 0.  1.
         11    1    5    5    0    0 -0.42390163953E+03 -0.14964345649E+03  0.21134786073E+03  0.49674307474E+03  0.00000000000E+00 0.  1.
        -11    1    5    5    0    0 -0.26568251605E+03 -0.15770132724E+03  0.19784618229E+03  0.36687875354E+03  0.00000000000E+00 0. -1.
          3    1    6    6  503    0 -0.41561571328E+02 -0.21029101890E+02 -0.12126057694E+02  0.48131368283E+02  0.00000000000E+00 0. -1.
         -3    1    6    6    0  503 -0.37691091956E+03 -0.20557187508E+03 -0.43443771668E+03  0.61078455021E+03  0.00000000000E+00 0.  1.
<mgrwt>
<rscale>  0 0.27656233E+04</rscale>
<asrwt>0</asrwt>
<pdfrwt beam="1">  1        2 0.22504740E+00 0.27656233E+04</pdfrwt>
<pdfrwt beam="2">  1       -1 0.20110614E+00 0.27656233E+04</pdfrwt>
<totfact> 0.19583510E+00</totfact>
</mgrwt>
</event>
<event>
12    6  0.1395358E-007  0.1310872E+04  0.7818608E-02  0.9020987E-01
         -1   -1    0    0    0  501 -0.00000000000E+00  0.00000000000E+00  0.44862970085E+03  0.44862970085E+03  0.00000000000E+00 0.  1.
          2   -1    0    0  501    0  0.00000000000E+00 -0.00000000000E+00 -0.95757520503E+03  0.95757520503E+03  0.00000000000E+00 0. -1.
         24    2    1    2    0    0  0.32179429711E+03  0.26393026320E+02 -0.25617455917E+03  0.41978632254E+03  0.79668000728E+02 0.  0.
        254    2    1    2    0    0 -0.32179429711E+03 -0.26393026320E+02 -0.25277094501E+03  0.98641858334E+03  0.89715121882E+03 0.  0.
         23    2    4    4    0    0 -0.18248736813E+03  0.16470222741E+03 -0.54202666386E+03  0.60194731876E+03  0.90106642314E+02 0.  0.
         23    2    4    4    0    0 -0.13930692897E+03 -0.19109525373E+03  0.28925571885E+03  0.38447126458E+03  0.90694354531E+02 0.  0.
          2    1    3    3  502    0  0.10920051263E+03 -0.20786667068E+02 -0.58176022814E+02  0.12546428622E+03  0.00000000000E+00 0. -1.
         -1    1    3    3    0  502  0.21259378448E+03  0.47179693388E+02 -0.19799853635E+03  0.29432203632E+03  0.00000000000E+00 0.  1.
         11    1    5    5    0    0 -0.41283611992E+01  0.35065680186E+02 -0.12906604581E+03  0.13380840584E+03  0.00000000000E+00 0. -1.
        -11    1    5    5    0    0 -0.17835900693E+03  0.12963654723E+03 -0.41296061805E+03  0.46813891292E+03  0.00000000000E+00 0.  1.
          1    1    6    6  503    0 -0.10440495400E+03 -0.81675746462E+02  0.11346066366E+03  0.17448393674E+03  0.00000000000E+00 0. -1.
         -1    1    6    6    0  503 -0.34901974972E+02 -0.10941950727E+03  0.17579505519E+03  0.20998732785E+03  0.00000000000E+00 0.  1.
<mgrwt>
<rscale>  0 0.13108725E+04</rscale>
<asrwt>0</asrwt>
<pdfrwt beam="1">  1        2 0.14731926E+00 0.13108725E+04</pdfrwt>
<pdfrwt beam="2">  1       -1 0.69019954E-01 0.13108725E+04</pdfrwt>
<totfact> 0.63716571E+01</totfact>
</mgrwt>
</event>
<event>
12    6  0.1395358E-007  0.2287848E+04  0.7818608E-02  0.8482728E-01
          2   -1    0    0  501    0  0.00000000000E+00  0.00000000000E+00  0.15907066920E+04  0.15907066920E+04  0.00000000000E+00 0. -1.
         -1   -1    0    0    0  501 -0.00000000000E+00 -0.00000000000E+00 -0.82262940376E+03  0.82262940376E+03  0.00000000000E+00 0.  1.
         24    2    1    2    0    0  0.76827919308E+03 -0.55036714298E+03  0.53658471113E+03  0.10895972444E+04  0.78371501213E+02 0.  0.
        254    2    1    2    0    0 -0.76827919308E+03  0.55036714298E+03  0.23149257713E+03  0.13237388514E+04  0.89751814621E+03 0.  0.
         23    2    4    4    0    0 -0.30523016924E+03 -0.39650344387E+02 -0.26805134316E+03  0.41845230617E+03  0.92267025233E+02 0.  0.
         23    2    4    4    0    0 -0.46304902384E+03  0.59001748737E+03  0.49954392030E+03  0.90528654520E+03  0.86397724148E+02 0.  0.
          4    1    3    3  502    0  0.34432648684E+03 -0.22472549133E+03  0.27313162027E+03  0.49362248529E+03  0.00000000000E+00 0. -1.
         -3    1    3    3    0  502  0.42395270624E+03 -0.32564165165E+03  0.26345309087E+03  0.59597475912E+03  0.00000000000E+00 0.  1.
         11    1    5    5    0    0 -0.22089628705E+03 -0.66809430211E+02 -0.21360354655E+03  0.31446008443E+03  0.00000000000E+00 0. -1.
        -11    1    5    5    0    0 -0.84333882190E+02  0.27159085824E+02 -0.54447796611E+02  0.10399222175E+03  0.00000000000E+00 0.  1.
          4    1    6    6  503    0 -0.32514580005E+03  0.34741967160E+03  0.30800372342E+03  0.56682141204E+03  0.00000000000E+00 0. -1.
         -4    1    6    6    0  503 -0.13790322379E+03  0.24259781577E+03  0.19154019688E+03  0.33846513316E+03  0.00000000000E+00 0.  1.
<mgrwt>
<rscale>  0 0.22878480E+04</rscale>
<asrwt>0</asrwt>
<pdfrwt beam="1">  1        2 0.24472411E+00 0.22878480E+04</pdfrwt>
<pdfrwt beam="2">  1       -1 0.12655837E+00 0.22878480E+04</pdfrwt>
<totfact> 0.63295526E+00</totfact>
</mgrwt>
</event>
<event>
12    6  0.1395358E-007  0.1334200E+04  0.7818608E-02  0.9002876E-01
         -3   -1    0    0    0  501 -0.00000000000E+00  0.00000000000E+00  0.57328021687E+03  0.57328021687E+03  0.00000000000E+00 0.  1.
          4   -1    0    0  501    0  0.00000000000E+00 -0.00000000000E+00 -0.77627353540E+03  0.77627353540E+03  0.00000000000E+00 0. -1.
         24    2    1    2    0    0 -0.30488016044E+03 -0.17271408489E+03 -0.13281684989E+03  0.38205472915E+03  0.74454234926E+02 0.  0.
        254    2    1    2    0    0  0.30488016044E+03  0.17271408489E+03 -0.70176468640E+02  0.96749902312E+03  0.89908150667E+03 0.  0.
         23    2    4    4    0    0  0.45879396818E+03  0.37979155770E+03  0.14447439182E+03  0.61951753108E+03  0.90529491779E+02 0.  0.
         23    2    4    4    0    0 -0.15391380774E+03 -0.20707747281E+03 -0.21465086046E+03  0.34798149205E+03  0.91899874628E+02 0.  0.
          4    1    3    3  502    0 -0.17622168714E+03 -0.13151919814E+03 -0.10690447617E+03  0.24449938553E+03  0.00000000000E+00 0. -1.
         -3    1    3    3    0  502 -0.12865847330E+03 -0.41194886750E+02 -0.25912373723E+02  0.13755534362E+03  0.00000000000E+00 0.  1.
         11    1    5    5    0    0  0.12335078121E+03  0.12274385894E+03  0.36097014495E+01  0.17405315302E+03  0.00000000000E+00 0.  1.
        -11    1    5    5    0    0  0.33544318697E+03  0.25704769876E+03  0.14086469037E+03  0.44546437805E+03  0.00000000000E+00 0. -1.
          3    1    6    6  503    0 -0.20453357106E+02 -0.10198619402E+03 -0.82390272991E+02  0.13269393607E+03  0.00000000000E+00 0. -1.
         -3    1    6    6    0  503 -0.13346045063E+03 -0.10509127879E+03 -0.13226058747E+03  0.21528755597E+03  0.00000000000E+00 0.  1.
<mgrwt>
<rscale>  0 0.13341998E+04</rscale>
<asrwt>0</asrwt>
<pdfrwt beam="1">  1        4 0.11942670E+00 0.13341998E+04</pdfrwt>
<pdfrwt beam="2">  1       -3 0.88196957E-01 0.13341998E+04</pdfrwt>
<totfact> 0.13982995E+00</totfact>
</mgrwt>
</event>
<event>
12    6  0.1395358E-007  0.2244961E+04  0.7818608E-02  0.8499944E-01
         -1   -1    0    0    0  501 -0.00000000000E+00  0.00000000000E+00  0.10699861566E+04  0.10699861566E+04  0.00000000000E+00 0.  1.
          2   -1    0    0  501    0  0.00000000000E+00 -0.00000000000E+00 -0.11775500880E+04  0.11775500880E+04  0.00000000000E+00 0. -1.
         24    2    1    2    0    0 -0.34712882484E+03  0.86734512426E+03 -0.14922605811E+03  0.94950603753E+03  0.80667919745E+02 0.  0.
        254    2    1    2    0    0  0.34712882484E+03 -0.86734512426E+03  0.41662126691E+02  0.12980302071E+04  0.90020036665E+03 0.  0.
         23    2    4    4    0    0 -0.20112504485E+03  0.44946679966E+02 -0.31813845801E+02  0.22702609675E+03  0.89762130723E+02 0.  0.
         23    2    4    4    0    0  0.54825386969E+03 -0.91229180423E+03  0.73475972492E+02  0.10710041103E+04  0.93768033790E+02 0.  0.
          4    1    3    3  502    0 -0.20602800762E+03  0.51856776151E+03 -0.48980287205E+02  0.56014206389E+03  0.00000000000E+00 0. -1.
         -3    1    3    3    0  502 -0.14110081722E+03  0.34877736275E+03 -0.10024577090E+03  0.38936397364E+03  0.00000000000E+00 0.  1.
         11    1    5    5    0    0 -0.20475609801E+02  0.34241496765E+01  0.25617090790E+02  0.32972878829E+02  0.00000000000E+00 0.  1.
        -11    1    5    5    0    0 -0.18064943505E+03  0.41522530290E+02 -0.57430936591E+02  0.19405321792E+03  0.00000000000E+00 0. -1.
          2    1    6    6  503    0  0.40764087190E+03 -0.70588716085E+03  0.93352378678E+02  0.82046476518E+03  0.00000000000E+00 0. -1.
         -2    1    6    6    0  503  0.14061299779E+03 -0.20640464337E+03 -0.19876406186E+02  0.25053934516E+03  0.00000000000E+00 0.  1.
<mgrwt>
<rscale>  0 0.22449608E+04</rscale>
<asrwt>0</asrwt>
<pdfrwt beam="1">  1        2 0.18116155E+00 0.22449608E+04</pdfrwt>
<pdfrwt beam="2">  1       -1 0.16461325E+00 0.22449608E+04</pdfrwt>
<totfact> 0.54723552E+00</totfact>
</mgrwt>
</event>
<event>
12    6  0.1395358E-007  0.2114530E+04  0.7818608E-02  0.8554870E-01
         -1   -1    0    0    0  501 -0.00000000000E+00  0.00000000000E+00  0.59801426169E+03  0.59801426169E+03  0.00000000000E+00 0.  1.
          2   -1    0    0  501    0  0.00000000000E+00 -0.00000000000E+00 -0.18692018462E+04  0.18692018462E+04  0.00000000000E+00 0. -1.
         24    2    1    2    0    0  0.19285662584E+03  0.74015784440E+03 -0.55733477546E+02  0.77183371029E+03  0.87142085508E+02 0.  0.
        254    2    1    2    0    0 -0.19285662584E+03 -0.74015784440E+03 -0.12154541070E+04  0.16953823976E+04  0.90109126906E+03 0.  0.
         23    2    4    4    0    0  0.12281876429E+03  0.87672607255E+02 -0.56720100284E+03  0.59390545462E+03  0.90751178898E+02 0.  0.
         23    2    4    4    0    0 -0.31567539013E+03 -0.82783045165E+03 -0.64825310411E+03  0.11014769430E+04  0.89806237457E+02 0.  0.
          2    1    3    3  502    0  0.87731580059E+02  0.33341104158E+03  0.18310743193E+02  0.34524634118E+03  0.00000000000E+00 0. -1.
         -1    1    3    3    0  502  0.10512504578E+03  0.40674680282E+03 -0.74044220739E+02  0.42658736910E+03  0.00000000000E+00 0.  1.
         11    1    5    5    0    0  0.73943222987E+02  0.92258340384E+02 -0.30433642972E+03  0.32649634616E+03  0.00000000000E+00 0.  1.
        -11    1    5    5    0    0  0.48875541300E+02 -0.45857331291E+01 -0.26286457312E+03  0.26740910846E+03  0.00000000000E+00 0. -1.
          2    1    6    6  503    0 -0.14709854414E+03 -0.29960940963E+03 -0.28212224861E+03  0.43703174163E+03  0.00000000000E+00 0. -1.
         -2    1    6    6    0  503 -0.16857684599E+03 -0.52822104202E+03 -0.36613085550E+03  0.66444520134E+03  0.00000000000E+00 0.  1.
<mgrwt>
<rscale>  0 0.21145301E+04</rscale>
<asrwt>0</asrwt>
<pdfrwt beam="1">  1        2 0.28756952E+00 0.21145301E+04</pdfrwt>
<pdfrwt beam="2">  1       -1 0.92002193E-01 0.21145301E+04</pdfrwt>
<totfact> 0.95218031E+00</totfact>
</mgrwt>
</event>
<event>
12    6  0.1395358E-007  0.1249599E+04  0.7818608E-02  0.9070517E-01
         -1   -1    0    0    0  501 -0.00000000000E+00  0.00000000000E+00  0.66667935984E+03  0.66667935984E+03  0.00000000000E+00 0.  1.
          2   -1    0    0  501    0  0.00000000000E+00 -0.00000000000E+00 -0.58555049050E+03  0.58555049050E+03  0.00000000000E+00 0. -1.
         24    2    1    2    0    0  0.10650939788E+03  0.26071376570E+03 -0.62977855418E+02  0.29964317840E+03  0.80646789301E+02 0.  0.
        254    2    1    2    0    0 -0.10650939788E+03 -0.26071376570E+03  0.14410672476E+03  0.95258667193E+03  0.89852028355E+03 0.  0.
         23    2    4    4    0    0 -0.18099834303E+03 -0.54638852032E+03  0.23797086349E+03  0.62948337602E+03  0.91205117707E+02 0.  0.
         23    2    4    4    0    0  0.74488945145E+02  0.28567475462E+03 -0.93864138731E+02  0.32310329591E+03  0.91796486402E+02 0.  0.
          2    1    3    3  502    0  0.87623384415E+02  0.17396571182E+03 -0.77584606406E+02  0.20966949596E+03  0.00000000000E+00 0. -1.
         -1    1    3    3    0  502  0.18886013469E+02  0.86748053889E+02  0.14606750988E+02  0.89973682445E+02  0.00000000000E+00 0.  1.
         11    1    5    5    0    0 -0.95352742808E+02 -0.41230515183E+03  0.18423109928E+03  0.46155041082E+03  0.00000000000E+00 0. -1.
        -11    1    5    5    0    0 -0.85645600220E+02 -0.13408336849E+03  0.53739764208E+02  0.16793296520E+03  0.00000000000E+00 0.  1.
          2    1    6    6  503    0  0.53647511698E+02  0.27575781110E+03 -0.10163826676E+03  0.29874866220E+03  0.00000000000E+00 0. -1.
         -2    1    6    6    0  503  0.20841433446E+02  0.99169435189E+01  0.77741280315E+01  0.24354633717E+02  0.00000000000E+00 0.  1.
<mgrwt>
<rscale>  0 0.12495990E+04</rscale>
<asrwt>0</asrwt>
<pdfrwt beam="1">  1        2 0.90084691E-01 0.12495990E+04</pdfrwt>
<pdfrwt beam="2">  1       -1 0.10256606E+00 0.12495990E+04</pdfrwt>
<totfact> 0.51649347E+01</totfact>
</mgrwt>
</event>
<event>
12    6  0.1395358E-007  0.1401709E+04  0.7818608E-02  0.8952583E-01
          2   -1    0    0  501    0  0.00000000000E+00  0.00000000000E+00  0.55761977316E+03  0.55761977316E+03  0.00000000000E+00 0. -1.
         -1   -1    0    0    0  501 -0.00000000000E+00 -0.00000000000E+00 -0.88088120336E+03  0.88088120336E+03  0.00000000000E+00 0.  1.
         24    2    1    2    0    0  0.34425521750E+03  0.39838714213E+02 -0.31095715870E+03  0.47289987297E+03  0.82711289326E+02 0.  0.
        254    2    1    2    0    0 -0.34425521750E+03 -0.39838714213E+02 -0.12304271499E+02  0.96560110354E+03  0.90118550706E+03 0.  0.
         23    2    4    4    0    0  0.77762342826E+02  0.32538081124E+03  0.14932114401E+03  0.37752284588E+03  0.91142969136E+02 0.  0.
         23    2    4    4    0    0 -0.42201756033E+03 -0.36521952546E+03 -0.16162541551E+03  0.58807825766E+03  0.90714603009E+02 0.  0.
          2    1    3    3  502    0  0.20923675730E+03  0.62872282817E+02 -0.20674733204E+03  0.30079462072E+03  0.00000000000E+00 0. -1.
         -1    1    3    3    0  502  0.13501846020E+03 -0.23033568604E+02 -0.10420982666E+03  0.17210525225E+03  0.00000000000E+00 0.  1.
         11    1    5    5    0    0  0.40759712614E+02  0.28788183928E+03  0.14433030022E+03  0.32460521117E+03  0.00000000000E+00 0. -1.
        -11    1    5    5    0    0  0.37002630212E+02  0.37498971964E+02  0.49908437939E+01  0.52917634705E+02  0.00000000000E+00 0.  1.
          1    1    6    6  503    0 -0.19746463619E+03 -0.20912688354E+03 -0.11914567601E+03  0.31132302850E+03  0.00000000000E+00 0. -1.
         -1    1    6    6    0  503 -0.22455292414E+03 -0.15609264191E+03 -0.42479739498E+02  0.27675522916E+03  0.00000000000E+00 0.  1.
<mgrwt>
<rscale>  0 0.14017086E+04</rscale>
<asrwt>0</asrwt>
<pdfrwt beam="1">  1        2 0.85787657E-01 0.14017086E+04</pdfrwt>
<pdfrwt beam="2">  1       -1 0.13552019E+00 0.14017086E+04</pdfrwt>
<totfact> 0.27484335E+01</totfact>
</mgrwt>
</event>
<event>
12    6  0.1395358E-007  0.2701138E+04  0.7818608E-02  0.8334636E-01
          2   -1    0    0  501    0  0.00000000000E+00  0.00000000000E+00  0.15112584263E+04  0.15112584263E+04  0.00000000000E+00 0. -1.
         -1   -1    0    0    0  501 -0.00000000000E+00 -0.00000000000E+00 -0.12069651142E+04  0.12069651142E+04  0.00000000000E+00 0.  1.
         24    2    1    2    0    0 -0.10167341124E+04 -0.51999595384E+03 -0.23232739362E+03  0.11681517671E+04  0.80364705239E+02 0.  0.
        254    2    1    2    0    0  0.10167341124E+04  0.51999595384E+03  0.53662070572E+03  0.15500717733E+04  0.90034253108E+03 0.  0.
         23    2    4    4    0    0  0.61850337811E+03  0.68522610544E+03  0.59998463784E+03  0.11047656670E+04  0.91893248029E+02 0.  0.
         23    2    4    4    0    0  0.39823073433E+03 -0.16523015161E+03 -0.63363932127E+02  0.44530610632E+03  0.91617791248E+02 0.  0.
          2    1    3    3  502    0 -0.24490382522E+03 -0.10626513498E+03 -0.24381032682E+02  0.26807573048E+03  0.00000000000E+00 0. -1.
         -1    1    3    3    0  502 -0.77183028722E+03 -0.41373081885E+03 -0.20794636094E+03  0.90007603666E+03  0.00000000000E+00 0.  1.
         11    1    5    5    0    0  0.20111988284E+02  0.54103042417E+02  0.31663135230E+02  0.65834530484E+02  0.00000000000E+00 0. -1.
        -11    1    5    5    0    0  0.59839138983E+03  0.63112306302E+03  0.56832150261E+03  0.10389311365E+04  0.00000000000E+00 0.  1.
          2    1    6    6  503    0  0.24789992294E+03 -0.67855508078E+02 -0.54954573904E+01  0.25707769608E+03  0.00000000000E+00 0. -1.
         -2    1    6    6    0  503  0.15033081138E+03 -0.97374643528E+02 -0.57868474736E+02  0.18822841024E+03  0.00000000000E+00 0.  1.
<mgrwt>
<rscale>  0 0.27011377E+04</rscale>
<asrwt>0</asrwt>
<pdfrwt beam="1">  1        2 0.23250130E+00 0.27011377E+04</pdfrwt>
<pdfrwt beam="2">  1       -1 0.18568694E+00 0.27011377E+04</pdfrwt>
<totfact> 0.23685958E+00</totfact>
</mgrwt>
</event>
<event>
12    6  0.1395358E-007  0.4680187E+04  0.7818608E-02  0.7879829E-01
         -1   -1    0    0    0  501 -0.00000000000E+00  0.00000000000E+00  0.17251289481E+04  0.17251289481E+04  0.00000000000E+00 0.  1.
          2   -1    0    0  501    0  0.00000000000E+00 -0.00000000000E+00 -0.31742766818E+04  0.31742766818E+04  0.00000000000E+00 0. -1.
         24    2    1    2    0    0 -0.11790246346E+04 -0.10155955179E+04  0.10075581148E+04  0.18555158495E+04  0.78945347677E+02 0.  0.
        254    2    1    2    0    0  0.11790246346E+04  0.10155955179E+04 -0.24567058486E+04  0.30438897804E+04  0.89907064446E+03 0.  0.
         23    2    4    4    0    0 -0.56778451084E+02  0.27307779865E+03 -0.16739686312E+03  0.33691576593E+03  0.87722556537E+02 0.  0.
         23    2    4    4    0    0  0.12358030857E+04  0.74251771923E+03 -0.22893089854E+04  0.27069740145E+04  0.90724054283E+02 0.  0.
          4    1    3    3  502    0 -0.19266426359E+03 -0.18254798498E+03  0.14045074629E+03  0.30028269583E+03  0.00000000000E+00 0. -1.
         -3    1    3    3    0  502 -0.98636037105E+03 -0.83304753291E+03  0.86710736854E+03  0.15552331537E+04  0.00000000000E+00 0.  1.
         11    1    5    5    0    0 -0.63400882957E+02  0.18148795706E+03 -0.74162544207E+02  0.20605250176E+03  0.00000000000E+00 0.  1.
        -11    1    5    5    0    0  0.66224318739E+01  0.91589841596E+02 -0.93234318908E+02  0.13086326417E+03  0.00000000000E+00 0. -1.
          4    1    6    6  503    0  0.38348443429E+03  0.19268924074E+03 -0.63274361602E+03  0.76456127187E+03  0.00000000000E+00 0. -1.
         -4    1    6    6    0  503  0.85231865143E+03  0.54982847849E+03 -0.16565653694E+04  0.19424127426E+04  0.00000000000E+00 0.  1.
<mgrwt>
<rscale>  0 0.46801866E+04</rscale>
<asrwt>0</asrwt>
<pdfrwt beam="1">  1        2 0.48835026E+00 0.46801866E+04</pdfrwt>
<pdfrwt beam="2">  1       -1 0.26540446E+00 0.46801866E+04</pdfrwt>
<totfact> 0.63214824E-02</totfact>
</mgrwt>
</event>
<event>
12    6  0.1395358E-007  0.1118501E+04  0.7818608E-02  0.9187345E-01
         -1   -1    0    0    0  501 -0.00000000000E+00  0.00000000000E+00  0.24306185044E+03  0.24306185044E+03  0.00000000000E+00 0.  1.
          2   -1    0    0  501    0  0.00000000000E+00 -0.00000000000E+00 -0.12867545724E+04  0.12867545724E+04  0.00000000000E+00 0. -1.
         24    2    1    2    0    0 -0.15612553277E+03 -0.54779080694E+02 -0.28050732442E+03  0.33732725553E+03  0.87916941501E+02 0.  0.
        254    2    1    2    0    0  0.15612553277E+03  0.54779080694E+02 -0.76318539753E+03  0.11924891673E+04  0.90122279901E+03 0.  0.
         23    2    4    4    0    0  0.32069812442E+03 -0.25665580043E+03 -0.93942583621E+02  0.43102075355E+03  0.90742460145E+02 0.  0.
         23    2    4    4    0    0 -0.16457259164E+03  0.31143488112E+03 -0.66924281391E+03  0.76146841375E+03  0.88726422617E+02 0.  0.
          2    1    3    3  502    0 -0.10295071588E+03 -0.55914546274E+01 -0.21993671463E+03  0.24290383428E+03  0.00000000000E+00 0. -1.
         -1    1    3    3    0  502 -0.53174816895E+02 -0.49187626066E+02 -0.60570609786E+02  0.94423421246E+02  0.00000000000E+00 0.  1.
         11    1    5    5    0    0  0.14219957564E+03 -0.62219104017E+02 -0.17324980246E+02  0.15617967588E+03  0.00000000000E+00 0. -1.
        -11    1    5    5    0    0  0.17849854877E+03 -0.19443669641E+03 -0.76617603375E+02  0.27484107766E+03  0.00000000000E+00 0.  1.
          2    1    6    6  503    0 -0.12407246731E+03  0.19874515810E+03 -0.35663871271E+03  0.42671393980E+03  0.00000000000E+00 0. -1.
         -2    1    6    6    0  503 -0.40500124331E+02  0.11268972302E+03 -0.31260410120E+03  0.33475447395E+03  0.00000000000E+00 0.  1.
<mgrwt>
<rscale>  0 0.11185007E+04</rscale>
<asrwt>0</asrwt>
<pdfrwt beam="1">  1        2 0.19796224E+00 0.11185007E+04</pdfrwt>
<pdfrwt beam="2">  1       -1 0.37394132E-01 0.11185007E+04</pdfrwt>
<totfact> 0.13089052E+02</totfact>
</mgrwt>
</event>
<event>
12    6  0.1395358E-007  0.2369844E+04  0.7818608E-02  0.8450881E-01
         -1   -1    0    0    0  501 -0.00000000000E+00  0.00000000000E+00  0.29483844255E+03  0.29483844255E+03  0.00000000000E+00 0.  1.
          2   -1    0    0  501    0  0.00000000000E+00 -0.00000000000E+00 -0.47620662709E+04  0.47620662709E+04  0.00000000000E+00 0. -1.
         24    2    1    2    0    0 -0.57200642605E+03 -0.77909199749E+03 -0.12677043693E+04  0.15960668260E+04  0.78608224552E+02 0.  0.
        254    2    1    2    0    0  0.57200642605E+03  0.77909199749E+03 -0.31995234590E+04  0.34608378874E+04  0.89792696061E+03 0.  0.
         23    2    4    4    0    0  0.19522060272E+03 -0.12477015651E+02 -0.17584733820E+04  0.17716170444E+04  0.90175147567E+02 0.  0.
         23    2    4    4    0    0  0.37678582333E+03  0.79156901314E+03 -0.14410500770E+04  0.16892208430E+04  0.91064114209E+02 0.  0.
          4    1    3    3  502    0 -0.41101262519E+03 -0.53600553508E+03 -0.93876415685E+03  0.11565083026E+04  0.00000000000E+00 0. -1.
         -3    1    3    3    0  502 -0.16099380086E+03 -0.24308646240E+03 -0.32894021248E+03  0.43955852342E+03  0.00000000000E+00 0.  1.
         11    1    5    5    0    0  0.42618555028E+02 -0.15183780471E+02 -0.78005793351E+03  0.78136884251E+03  0.00000000000E+00 0. -1.
        -11    1    5    5    0    0  0.15260204769E+03  0.27067648198E+01 -0.97841544849E+03  0.99024820191E+03  0.00000000000E+00 0.  1.
          3    1    6    6  503    0  0.25641870874E+02  0.27100359306E+02 -0.93077431431E+02  0.10027633449E+03  0.00000000000E+00 0. -1.
         -3    1    6    6    0  503  0.35114395246E+03  0.76446865383E+03 -0.13479726455E+04  0.15889445085E+04  0.00000000000E+00 0.  1.
<mgrwt>
<rscale>  0 0.23698440E+04</rscale>
<asrwt>0</asrwt>
<pdfrwt beam="1">  1        2 0.73262560E+00 0.23698440E+04</pdfrwt>
<pdfrwt beam="2">  1       -1 0.45359759E-01 0.23698440E+04</pdfrwt>
<totfact> 0.32827816E-01</totfact>
</mgrwt>
</event>
<event>
12    6  0.1395358E-007  0.2192191E+04  0.7818608E-02  0.8521685E-01
          2   -1    0    0  501    0  0.00000000000E+00  0.00000000000E+00  0.26200404108E+04  0.26200404108E+04  0.00000000000E+00 0. -1.
         -1   -1    0    0    0  501 -0.00000000000E+00 -0.00000000000E+00 -0.45855217814E+03  0.45855217814E+03  0.00000000000E+00 0.  1.
         24    2    1    2    0    0 -0.68860316076E+02  0.90666836429E+03  0.88227161829E+03  0.12694230144E+04  0.79008323785E+02 0.  0.
        254    2    1    2    0    0  0.68860316076E+02 -0.90666836429E+03  0.12792166144E+04  0.18091695745E+04  0.89995007464E+03 0.  0.
         23    2    4    4    0    0 -0.38780823618E+03 -0.47255811432E+03  0.80856800508E+03  0.10174355903E+04  0.87673040614E+02 0.  0.
         23    2    4    4    0    0  0.45666855226E+03 -0.43411024997E+03  0.47064860929E+03  0.79173398422E+03  0.91294647099E+02 0.  0.
          2    1    3    3  502    0 -0.24363262936E+02  0.60602868264E+02  0.69292857335E+02  0.95224872278E+02  0.00000000000E+00 0. -1.
         -1    1    3    3    0  502 -0.44497053141E+02  0.84606549602E+03  0.81297876095E+03  0.11741981422E+04  0.00000000000E+00 0.  1.
         11    1    5    5    0    0 -0.30392900633E+02 -0.11384047406E+02  0.61343030727E+02  0.69399512700E+02  0.00000000000E+00 0.  1.
        -11    1    5    5    0    0 -0.35741533555E+03 -0.46117406691E+03  0.74722497436E+03  0.94803607757E+03  0.00000000000E+00 0. -1.
          1    1    6    6  503    0  0.45801972426E+03 -0.41744854317E+03  0.45473599851E+03  0.76865478750E+03  0.00000000000E+00 0. -1.
         -1    1    6    6    0  503 -0.13511720045E+01 -0.16661706796E+02  0.15912610780E+02  0.23079196715E+02  0.00000000000E+00 0.  1.
<mgrwt>
<rscale>  0 0.21921909E+04</rscale>
<asrwt>0</asrwt>
<pdfrwt beam="1">  1        2 0.40308313E+00 0.21921909E+04</pdfrwt>
<pdfrwt beam="2">  1       -1 0.70546490E-01 0.21921909E+04</pdfrwt>
<totfact> 0.62608135E+00</totfact>
</mgrwt>
</event>
<event>
12    6  0.1395358E-007  0.2065833E+04  0.7818608E-02  0.8576446E-01
          2   -1    0    0  501    0  0.00000000000E+00  0.00000000000E+00  0.56354262224E+03  0.56354262224E+03  0.00000000000E+00 0. -1.
         -1   -1    0    0    0  501 -0.00000000000E+00 -0.00000000000E+00 -0.18932304083E+04  0.18932304083E+04  0.00000000000E+00 0.  1.
         24    2    1    2    0    0  0.57772005561E+03  0.51402257274E+02 -0.12552498136E+04  0.13849083015E+04  0.76917191339E+02 0.  0.
        254    2    1    2    0    0 -0.57772005561E+03 -0.51402257274E+02 -0.74437972503E+02  0.10718647291E+04  0.89830414170E+03 0.  0.
         23    2    4    4    0    0  0.19718015035E+03  0.10256970473E+03 -0.13274991965E+03  0.27452720831E+03  0.91335047560E+02 0.  0.
         23    2    4    4    0    0 -0.77490020597E+03 -0.15397196201E+03  0.58311947146E+02  0.79733752078E+03  0.90383320174E+02 0.  0.
          4    1    3    3  502    0  0.17941250527E+03 -0.17691998329E+02 -0.36007025692E+03  0.40268156621E+03  0.00000000000E+00 0. -1.
         -3    1    3    3    0  502  0.39830755035E+03  0.69094255603E+02 -0.89517955666E+03  0.98222673527E+03  0.00000000000E+00 0.  1.
         11    1    5    5    0    0  0.17632567207E+03  0.55138068663E+02 -0.12261171554E+03  0.22173087750E+03  0.00000000000E+00 0.  1.
        -11    1    5    5    0    0  0.20854478284E+02  0.47431636071E+02 -0.10138204104E+02  0.52796330813E+02  0.00000000000E+00 0. -1.
          2    1    6    6  503    0 -0.34424595926E+02 -0.11196202715E+02 -0.15984727472E+02  0.39571697869E+02  0.00000000000E+00 0. -1.
         -2    1    6    6    0  503 -0.74047561004E+03 -0.14277575929E+03  0.74296674617E+02  0.75776582291E+03  0.00000000000E+00 0.  1.
<mgrwt>
<rscale>  0 0.20658325E+04</rscale>
<asrwt>0</asrwt>
<pdfrwt beam="1">  1        2 0.86698865E-01 0.20658325E+04</pdfrwt>
<pdfrwt beam="2">  1       -1 0.29126622E+00 0.20658325E+04</pdfrwt>
<totfact> 0.21243212E+00</totfact>
</mgrwt>
</event>
<event>
12    6  0.1395358E-007  0.2898365E+04  0.7818608E-02  0.8273364E-01
         -1   -1    0    0    0  501 -0.00000000000E+00  0.00000000000E+00  0.75972358062E+03  0.75972358062E+03  0.00000000000E+00 0.  1.
          2   -1    0    0  501    0  0.00000000000E+00 -0.00000000000E+00 -0.27643334361E+04  0.27643334361E+04  0.00000000000E+00 0. -1.
         24    2    1    2    0    0  0.60376445252E+03  0.13352669839E+03 -0.23079166457E+04  0.23904870680E+04  0.74754834296E+02 0.  0.
        254    2    1    2    0    0 -0.60376445252E+03 -0.13352669839E+03  0.30330679028E+03  0.11335699487E+04  0.90034711433E+03 0.  0.
         23    2    4    4    0    0 -0.70246533310E+03 -0.19293421832E+03  0.49990611329E+03  0.88858991707E+03  0.94893423446E+02 0.  0.
         23    2    4    4    0    0  0.98700880579E+02  0.59407519924E+02 -0.19659932301E+03  0.24498003164E+03  0.89960018030E+02 0.  0.
          2    1    3    3  502    0  0.29719415932E+03  0.60715178233E+02 -0.12745074943E+04  0.13101068866E+04  0.00000000000E+00 0. -1.
         -1    1    3    3    0  502  0.30657029320E+03  0.72811520160E+02 -0.10334091514E+04  0.10803801814E+04  0.00000000000E+00 0.  1.
         11    1    5    5    0    0 -0.56678534509E+03 -0.19158807755E+03  0.42179167877E+03  0.73202447989E+03  0.00000000000E+00 0. -1.
        -11    1    5    5    0    0 -0.13567998801E+03 -0.13461407618E+01  0.78114434512E+02  0.15656543719E+03  0.00000000000E+00 0.  1.
          3    1    6    6  503    0  0.10594874838E+03  0.53869438985E+02 -0.12383217898E+03  0.17164341610E+03  0.00000000000E+00 0. -1.
         -3    1    6    6    0  503 -0.72478678032E+01  0.55380809382E+01 -0.72767144033E+02  0.73336615540E+02  0.00000000000E+00 0.  1.
<mgrwt>
<rscale>  0 0.28983646E+04</rscale>
<asrwt>0</asrwt>
<pdfrwt beam="1">  1        2 0.42528206E+00 0.28983646E+04</pdfrwt>
<pdfrwt beam="2">  1       -1 0.11688055E+00 0.28983646E+04</pdfrwt>
<totfact> 0.15729103E+00</totfact>
</mgrwt>
</event>
<event>
12    6  0.1395358E-007  0.1909852E+04  0.7818608E-02  0.8649968E-01
          2   -1    0    0  501    0  0.00000000000E+00  0.00000000000E+00  0.38874755463E+04  0.38874755463E+04  0.00000000000E+00 0. -1.
         -1   -1    0    0    0  501 -0.00000000000E+00 -0.00000000000E+00 -0.23456971503E+03  0.23456971503E+03  0.00000000000E+00 0.  1.
         24    2    1    2    0    0  0.47540482956E+03 -0.11736478620E+03  0.26245521532E+04  0.26711658768E+04  0.84076698415E+02 0.  0.
        254    2    1    2    0    0 -0.47540482956E+03  0.11736478620E+03  0.10283536781E+04  0.14508793846E+04  0.89875216629E+03 0.  0.
         23    2    4    4    0    0 -0.40946552178E+03  0.46122161213E+03  0.83135137573E+03  0.10390261494E+04  0.89681883022E+02 0.  0.
         23    2    4    4    0    0 -0.65939307777E+02 -0.34385682593E+03  0.19700230234E+03  0.41185323521E+03  0.90706511211E+02 0.  0.
          2    1    3    3  502    0  0.12083868753E+03 -0.25947833169E+02  0.87692779725E+03  0.88559451220E+03  0.00000000000E+00 0. -1.
         -1    1    3    3    0  502  0.35456614202E+03 -0.91416953030E+02  0.17476243560E+04  0.17855713646E+04  0.00000000000E+00 0.  1.
         11    1    5    5    0    0 -0.33882790637E+03  0.41683992391E+03  0.68427747532E+03  0.86993996088E+03  0.00000000000E+00 0.  1.
        -11    1    5    5    0    0 -0.70637615409E+02  0.44381688217E+02  0.14707390041E+03  0.16908618850E+03  0.00000000000E+00 0. -1.
          3    1    6    6  503    0  0.23042061960E+02 -0.77644086769E+02  0.44127016780E+02  0.92231959967E+02  0.00000000000E+00 0. -1.
         -3    1    6    6    0  503 -0.88981369737E+02 -0.26621273916E+03  0.15287528556E+03  0.31962127524E+03  0.00000000000E+00 0.  1.
<mgrwt>
<rscale>  0 0.19098524E+04</rscale>
<asrwt>0</asrwt>
<pdfrwt beam="1">  1        2 0.59807312E+00 0.19098524E+04</pdfrwt>
<pdfrwt beam="2">  1       -1 0.36087651E-01 0.19098524E+04</pdfrwt>
<totfact> 0.33252627E+00</totfact>
</mgrwt>
</event>
<event>
12    6  0.1395358E-007  0.1420431E+04  0.7818608E-02  0.8939161E-01
          2   -1    0    0  501    0  0.00000000000E+00  0.00000000000E+00  0.75239832317E+03  0.75239832317E+03  0.00000000000E+00 0. -1.
         -1   -1    0    0    0  501 -0.00000000000E+00 -0.00000000000E+00 -0.67039742032E+03  0.67039742032E+03  0.00000000000E+00 0.  1.
         24    2    1    2    0    0 -0.26982780690E+03 -0.31014624266E+03  0.11328381894E+03  0.43397033229E+03  0.80618164611E+02 0.  0.
        254    2    1    2    0    0  0.26982780690E+03  0.31014624266E+03 -0.31282916088E+02  0.98882541119E+03  0.89877657722E+03 0.  0.
         23    2    4    4    0    0  0.34238840978E+03  0.57352467541E+03 -0.12732142269E+03  0.68624866851E+03  0.92553303026E+02 0.  0.
         23    2    4    4    0    0 -0.72560602883E+02 -0.26337843274E+03  0.96038506597E+02  0.30257674268E+03  0.87727136840E+02 0.  0.
          2    1    3    3  502    0 -0.15880972397E+03 -0.23825490980E+03  0.85455423402E+02  0.29881191386E+03  0.00000000000E+00 0. -1.
         -1    1    3    3    0  502 -0.11101808292E+03 -0.71891332860E+02  0.27828395535E+02  0.13515841844E+03  0.00000000000E+00 0.  1.
         11    1    5    5    0    0  0.35626547113E+02  0.13069845763E+03 -0.19486057418E+02  0.13686140479E+03  0.00000000000E+00 0.  1.
        -11    1    5    5    0    0  0.30676186267E+03  0.44282621778E+03 -0.10783536527E+03  0.54938726372E+03  0.00000000000E+00 0. -1.
          3    1    6    6  503    0 -0.81857402911E+02 -0.21645550293E+03  0.10463966694E+03  0.25397456380E+03  0.00000000000E+00 0. -1.
         -3    1    6    6    0  503  0.92968000283E+01 -0.46922929812E+02 -0.86011603412E+01  0.48602178883E+02  0.00000000000E+00 0.  1.
<mgrwt>
<rscale>  0 0.14204308E+04</rscale>
<asrwt>0</asrwt>
<pdfrwt beam="1">  1        2 0.11575359E+00 0.14204308E+04</pdfrwt>
<pdfrwt beam="2">  1       -1 0.10313807E+00 0.14204308E+04</pdfrwt>
<totfact> 0.36800217E+01</totfact>
</mgrwt>
</event>
<event>
12    6  0.1395358E-007  0.1097077E+04  0.7818608E-02  0.9208045E-01
          2   -1    0    0  501    0  0.00000000000E+00  0.00000000000E+00  0.17225881010E+04  0.17225881010E+04  0.00000000000E+00 0. -1.
         -1   -1    0    0    0  501 -0.00000000000E+00 -0.00000000000E+00 -0.17467586389E+03  0.17467586389E+03  0.00000000000E+00 0.  1.
         24    2    1    2    0    0 -0.50478960164E+02 -0.11552268376E+03  0.71720899292E+02  0.16422861676E+03  0.77029444265E+02 0.  0.
        254    2    1    2    0    0  0.50478960164E+02  0.11552268376E+03  0.14761913379E+04  0.17330353482E+04  0.89909790134E+03 0.  0.
         23    2    4    4    0    0 -0.11289501737E+03  0.12394709307E+03  0.15273665258E+04  0.15392650518E+04  0.91543590522E+02 0.  0.
         23    2    4    4    0    0  0.16337397754E+03 -0.84244093082E+01 -0.51175187900E+02  0.19377029635E+03  0.90365926546E+02 0.  0.
          2    1    3    3  502    0 -0.38948473351E+02 -0.30372662258E+02  0.59671443438E+02  0.77460721344E+02  0.00000000000E+00 0. -1.
         -1    1    3    3    0  502 -0.11530486813E+02 -0.85150021501E+02  0.12049455854E+02  0.86767895411E+02  0.00000000000E+00 0.  1.
         11    1    5    5    0    0  0.46680118835E+01  0.50207533883E+02  0.50779531577E+03  0.51029272924E+03  0.00000000000E+00 0. -1.
        -11    1    5    5    0    0 -0.11756302926E+03  0.73739559185E+02  0.10195712100E+04  0.10289723226E+04  0.00000000000E+00 0.  1.
          3    1    6    6  503    0  0.56209388748E+02  0.19501582657E+02 -0.57640081239E+02  0.82838312844E+02  0.00000000000E+00 0. -1.
         -3    1    6    6    0  503  0.10716458879E+03 -0.27925991966E+02  0.64648933389E+01  0.11093198350E+03  0.00000000000E+00 0.  1.
<mgrwt>
<rscale>  0 0.10970771E+04</rscale>
<asrwt>0</asrwt>
<pdfrwt beam="1">  1        2 0.26501354E+00 0.10970771E+04</pdfrwt>
<pdfrwt beam="2">  1       -1 0.26873211E-01 0.10970771E+04</pdfrwt>
<totfact> 0.13329394E+02</totfact>
</mgrwt>
</event>
<event>
12    6  0.1395358E-007  0.1829256E+04  0.7818608E-02  0.8690894E-01
          2   -1    0    0  501    0  0.00000000000E+00  0.00000000000E+00  0.36113822315E+03  0.36113822315E+03  0.00000000000E+00 0. -1.
         -1   -1    0    0    0  501 -0.00000000000E+00 -0.00000000000E+00 -0.23164113344E+04  0.23164113344E+04  0.00000000000E+00 0.  1.
         24    2    1    2    0    0  0.48445456809E+03  0.20394122069E+03 -0.86865949650E+02  0.53867687251E+03  0.79616767911E+02 0.  0.
        254    2    1    2    0    0 -0.48445456809E+03 -0.20394122069E+03 -0.18684071616E+04  0.21388726851E+04  0.89863384714E+03 0.  0.
         23    2    4    4    0    0 -0.51769255869E+03 -0.45073392988E+03 -0.90607495290E+03  0.11407316044E+04  0.95551620187E+02 0.  0.
         23    2    4    4    0    0  0.33237990607E+02  0.24679270919E+03 -0.96233220873E+03  0.99814108067E+03  0.90503765781E+02 0.  0.
          2    1    3    3  502    0  0.76427281710E+02  0.77935916627E+01 -0.29665544914E+02  0.82352377109E+02  0.00000000000E+00 0. -1.
         -1    1    3    3    0  502  0.40802728638E+03  0.19614762903E+03 -0.57200404736E+02  0.45632449540E+03  0.00000000000E+00 0.  1.
         11    1    5    5    0    0 -0.33896116068E+03 -0.27168769826E+03 -0.64075844178E+03  0.77413193614E+03  0.00000000000E+00 0.  1.
        -11    1    5    5    0    0 -0.17873139801E+03 -0.17904623162E+03 -0.26531651112E+03  0.36659966825E+03  0.00000000000E+00 0. -1.
          2    1    6    6  503    0  0.29624781037E+02  0.32282832422E+02 -0.94189584551E+02  0.10388208103E+03  0.00000000000E+00 0.  1.
         -2    1    6    6    0  503  0.36132095699E+01  0.21450987677E+03 -0.86814262418E+03  0.89425899964E+03  0.00000000000E+00 0. -1.
<mgrwt>
<rscale>  0 0.18292563E+04</rscale>
<asrwt>0</asrwt>
<pdfrwt beam="1">  1        2 0.55559726E-01 0.18292563E+04</pdfrwt>
<pdfrwt beam="2">  1       -1 0.35637098E+00 0.18292563E+04</pdfrwt>
<totfact> 0.13577928E+00</totfact>
</mgrwt>
</event>
<event>
12    6  0.1395358E-007  0.1506629E+04  0.7818608E-02  0.8880057E-01
         -3   -1    0    0    0  501 -0.00000000000E+00  0.00000000000E+00  0.19984453201E+03  0.19984453201E+03  0.00000000000E+00 0.  1.
          2   -1    0    0  501    0  0.00000000000E+00 -0.00000000000E+00 -0.28396198445E+04  0.28396198445E+04  0.00000000000E+00 0. -1.
         24    2    1    2    0    0 -0.47277709043E+03 -0.79973386474E+02 -0.80568049647E+03  0.94096523105E+03  0.79878556963E+02 0.  0.
        254    2    1    2    0    0  0.47277709043E+03  0.79973386474E+02 -0.18340948161E+04  0.20984991455E+04  0.89993385845E+03 0.  0.
         23    2    4    4    0    0  0.73162929110E+03  0.95842017613E+02 -0.12857450736E+04  0.14853563178E+04  0.93144429515E+02 0.  0.
         23    2    4    4    0    0 -0.25885220066E+03 -0.15868631139E+02 -0.54834974247E+03  0.61314282766E+03  0.89445021118E+02 0.  0.
          2    1    3    3  502    0 -0.16395988359E+03 -0.66538955686E+02 -0.28716869414E+03  0.33730718188E+03  0.00000000000E+00 0. -1.
         -1    1    3    3    0  502 -0.30881720684E+03 -0.13434430788E+02 -0.51851180233E+03  0.60365804917E+03  0.00000000000E+00 0.  1.
         11    1    5    5    0    0  0.69490229924E+03  0.10998150588E+03 -0.12321289470E+04  0.14188470246E+04  0.00000000000E+00 0.  1.
        -11    1    5    5    0    0  0.36726991857E+02 -0.14139488271E+02 -0.53616126625E+02  0.66509293288E+02  0.00000000000E+00 0. -1.
          3    1    6    6  503    0 -0.47380909189E+02 -0.80032597297E+00 -0.38792557070E+02  0.61240946770E+02  0.00000000000E+00 0. -1.
         -3    1    6    6    0  503 -0.21147129147E+03 -0.15068305166E+02 -0.50955718540E+03  0.55190188089E+03  0.00000000000E+00 0.  1.
<mgrwt>
<rscale>  0 0.15066287E+04</rscale>
<asrwt>0</asrwt>
<pdfrwt beam="1">  1        2 0.43686455E+00 0.15066287E+04</pdfrwt>
<pdfrwt beam="2">  1       -3 0.30745315E-01 0.15066287E+04</pdfrwt>
<totfact> 0.14277169E+01</totfact>
</mgrwt>
</event>
<event>
12    6  0.1395358E-007  0.1222139E+04  0.7818608E-02  0.9093696E-01
         -1   -1    0    0    0  501 -0.00000000000E+00  0.00000000000E+00  0.58139105077E+03  0.58139105077E+03  0.00000000000E+00 0.  1.
          2   -1    0    0  501    0  0.00000000000E+00 -0.00000000000E+00 -0.64226287273E+03  0.64226287273E+03  0.00000000000E+00 0. -1.
         24    2    1    2    0    0  0.13570511226E+03 -0.22414071420E+03 -0.78626287560E+02  0.28586839760E+03  0.82968128802E+02 0.  0.
        254    2    1    2    0    0 -0.13570511226E+03  0.22414071420E+03  0.17754465600E+02  0.93778552590E+03  0.90026192538E+03 0.  0.
         23    2    4    4    0    0 -0.91861020689E+02  0.20164297733E+03  0.44086898823E+03  0.50225605836E+03  0.93794167994E+02 0.  0.
         23    2    4    4    0    0 -0.43844091567E+02  0.22497736867E+02 -0.42311452263E+03  0.43552946754E+03  0.90727974251E+02 0.  0.
          2    1    3    3  502    0  0.41015654825E+02 -0.12250348302E+03 -0.69407666836E+02  0.14665200820E+03  0.00000000000E+00 0. -1.
         -1    1    3    3    0  502  0.94689457430E+02 -0.10163723118E+03 -0.92186207237E+01  0.13921638940E+03  0.00000000000E+00 0.  1.
         11    1    5    5    0    0 -0.50796857494E+02  0.43872257287E+02  0.69198929458E+02  0.96403254763E+02  0.00000000000E+00 0. -1.
        -11    1    5    5    0    0 -0.41064163194E+02  0.15777072005E+03  0.37167005877E+03  0.40585280360E+03  0.00000000000E+00 0.  1.
          3    1    6    6  503    0  0.59656045784E+01 -0.29395771679E+02 -0.15847628600E+03  0.16128990376E+03  0.00000000000E+00 0. -1.
         -3    1    6    6    0  503 -0.49809696145E+02  0.51893508546E+02 -0.26463823663E+03  0.27423956378E+03  0.00000000000E+00 0.  1.
<mgrwt>
<rscale>  0 0.12221389E+04</rscale>
<asrwt>0</asrwt>
<pdfrwt beam="1">  1        2 0.98809673E-01 0.12221389E+04</pdfrwt>
<pdfrwt beam="2">  1       -1 0.89444777E-01 0.12221389E+04</pdfrwt>
<totfact> 0.62944579E+01</totfact>
</mgrwt>
</event>
<event>
12    6  0.1395358E-007  0.3449887E+04  0.7818608E-02  0.8125770E-01
         -1   -1    0    0    0  501 -0.00000000000E+00  0.00000000000E+00  0.11161705131E+04  0.11161705131E+04  0.00000000000E+00 0.  1.
          2   -1    0    0  501    0  0.00000000000E+00 -0.00000000000E+00 -0.26657488251E+04  0.26657488251E+04  0.00000000000E+00 0. -1.
         24    2    1    2    0    0 -0.12857357512E+03 -0.91173827820E+03  0.72124751610E+03  0.11711492792E+04  0.59956671364E+02 0.  0.
        254    2    1    2    0    0  0.12857357512E+03  0.91173827820E+03 -0.22708258281E+04  0.26107700591E+04  0.90092869179E+03 0.  0.
         23    2    4    4    0    0 -0.90057579688E+02  0.94066283426E+02 -0.13395955465E+04  0.13489974782E+04  0.91209290166E+02 0.  0.
         23    2    4    4    0    0  0.21863115481E+03  0.81767199478E+03 -0.93123028153E+03  0.12617725808E+04  0.92158209688E+02 0.  0.
          2    1    3    3  502    0 -0.10260123496E+03 -0.69822515681E+03  0.52018316089E+03  0.87671882830E+03  0.00000000000E+00 0. -1.
         -1    1    3    3    0  502 -0.25972340162E+02 -0.21351312139E+03  0.20106435521E+03  0.29443045087E+03  0.00000000000E+00 0.  1.
         11    1    5    5    0    0  0.17456698447E+02  0.26309709794E+02 -0.30312730012E+03  0.30476728372E+03  0.00000000000E+00 0. -1.
        -11    1    5    5    0    0 -0.10751427814E+03  0.67756573632E+02 -0.10364682464E+04  0.10442301945E+04  0.00000000000E+00 0.  1.
          1    1    6    6  503    0  0.14787886491E+03  0.67055079322E+03 -0.72197824690E+03  0.99637297935E+03  0.00000000000E+00 0. -1.
         -1    1    6    6    0  503  0.70752289899E+02  0.14712120156E+03 -0.20925203463E+03  0.26539960149E+03  0.00000000000E+00 0.  1.
<mgrwt>
<rscale>  0 0.34498871E+04</rscale>
<asrwt>0</asrwt>
<pdfrwt beam="1">  1        2 0.41011520E+00 0.34498871E+04</pdfrwt>
<pdfrwt beam="2">  1       -1 0.17171854E+00 0.34498871E+04</pdfrwt>
<totfact> 0.62336235E-01</totfact>
</mgrwt>
</event>
<event>
12    6  0.1395358E-007  0.2203188E+04  0.7818608E-02  0.8517103E-01
         -1   -1    0    0    0  501 -0.00000000000E+00  0.00000000000E+00  0.32781217604E+03  0.32781217604E+03  0.00000000000E+00 0.  1.
          2   -1    0    0  501    0  0.00000000000E+00 -0.00000000000E+00 -0.37018423018E+04  0.37018423018E+04  0.00000000000E+00 0. -1.
         24    2    1    2    0    0  0.75800607920E+03  0.38822669583E+03 -0.20223812054E+04  0.21958055404E+04  0.79012962260E+02 0.  0.
        254    2    1    2    0    0 -0.75800607920E+03 -0.38822669583E+03 -0.13516489203E+04  0.18338489374E+04  0.90041875685E+03 0.  0.
         23    2    4    4    0    0 -0.94271418777E+02  0.13663919736E+03  0.48215265189E+02  0.19558237390E+03  0.91489794667E+02 0.  0.
         23    2    4    4    0    0 -0.66373466042E+03 -0.52486589319E+03 -0.13998641855E+04  0.16382665635E+04  0.90937834258E+02 0.  0.
          4    1    3    3  502    0  0.61029417948E+03  0.30738307109E+03 -0.16975497812E+04  0.18299231125E+04  0.00000000000E+00 0. -1.
         -1    1    3    3    0  502  0.14771189973E+03  0.80843624734E+02 -0.32483142415E+03  0.36588242796E+03  0.00000000000E+00 0.  1.
         11    1    5    5    0    0 -0.83702117303E+02  0.11354408516E+03  0.74081553526E+02  0.15933103994E+03  0.00000000000E+00 0.  1.
        -11    1    5    5    0    0 -0.10569301474E+02  0.23095112200E+02 -0.25866288337E+02  0.36251333955E+02  0.00000000000E+00 0. -1.
          3    1    6    6  503    0 -0.30337965092E+03 -0.27387851762E+03 -0.60414815807E+03  0.72941322439E+03  0.00000000000E+00 0. -1.
         -3    1    6    6    0  503 -0.36035500950E+03 -0.25098737556E+03 -0.79571602747E+03  0.90885333907E+03  0.00000000000E+00 0.  1.
<mgrwt>
<rscale>  0 0.22031877E+04</rscale>
<asrwt>0</asrwt>
<pdfrwt beam="1">  1        2 0.56951421E+00 0.22031877E+04</pdfrwt>
<pdfrwt beam="2">  1       -1 0.50432642E-01 0.22031877E+04</pdfrwt>
<totfact> 0.24002990E+00</totfact>
</mgrwt>
</event>
<event>
12    6  0.1395358E-007  0.1994801E+04  0.7818608E-02  0.8609055E-01
          2   -1    0    0  501    0  0.00000000000E+00  0.00000000000E+00  0.73446513804E+03  0.73446513804E+03  0.00000000000E+00 0. -1.
         -1   -1    0    0    0  501 -0.00000000000E+00 -0.00000000000E+00 -0.13544657694E+04  0.13544657694E+04  0.00000000000E+00 0.  1.
         24    2    1    2    0    0  0.41245124106E+03 -0.61467387075E+03 -0.53970819806E+03  0.91930863916E+03  0.76833855501E+02 0.  0.
        254    2    1    2    0    0 -0.41245124106E+03  0.61467387075E+03 -0.80292433308E+02  0.11696222683E+04  0.90201406972E+03 0.  0.
         23    2    4    4    0    0 -0.37070365023E+03 -0.10273070892E+03 -0.18977350542E+03  0.43831216173E+03  0.90159707828E+02 0.  0.
         23    2    4    4    0    0 -0.41747590829E+02  0.71740457967E+03  0.10948107211E+03  0.73131010655E+03  0.80101026971E+02 0.  0.
          4    1    3    3  502    0  0.20606375550E+03 -0.34029843865E+03 -0.24808750316E+03  0.46884187942E+03  0.00000000000E+00 0. -1.
         -3    1    3    3    0  502  0.20638748555E+03 -0.27437543210E+03 -0.29162069489E+03  0.45046675973E+03  0.00000000000E+00 0.  1.
         11    1    5    5    0    0 -0.24853154391E+03 -0.11189029593E+03 -0.13330439811E+03  0.30340967222E+03  0.00000000000E+00 0. -1.
        -11    1    5    5    0    0 -0.12217210631E+03  0.91595870084E+01 -0.56469107303E+02  0.13490248951E+03  0.00000000000E+00 0.  1.
          3    1    6    6  503    0 -0.55036515713E+02  0.48024081983E+03  0.46806819765E+02  0.48564507768E+03  0.00000000000E+00 0. -1.
         -3    1    6    6    0  503  0.13288924884E+02  0.23716375983E+03  0.62674252343E+02  0.24566502887E+03  0.00000000000E+00 0.  1.
<mgrwt>
<rscale>  0 0.19948011E+04</rscale>
<asrwt>0</asrwt>
<pdfrwt beam="1">  1        2 0.11299464E+00 0.19948011E+04</pdfrwt>
<pdfrwt beam="2">  1       -1 0.20837935E+00 0.19948011E+04</pdfrwt>
<totfact> 0.53895754E+00</totfact>
</mgrwt>
</event>
<event>
12    6  0.1395358E-007  0.4656643E+04  0.7818608E-02  0.7883773E-01
         -1   -1    0    0    0  501 -0.00000000000E+00  0.00000000000E+00  0.21497129679E+04  0.21497129679E+04  0.00000000000E+00 0.  1.
          2   -1    0    0  501    0  0.00000000000E+00 -0.00000000000E+00 -0.25217692881E+04  0.25217692881E+04  0.00000000000E+00 0. -1.
         24    2    1    2    0    0  0.43219621265E+03  0.16277526286E+04 -0.16619987690E+04  0.23674972968E+04  0.80195738011E+02 0.  0.
        254    2    1    2    0    0 -0.43219621265E+03 -0.16277526286E+04  0.12899424488E+04  0.23039849591E+04  0.89890098717E+03 0.  0.
         23    2    4    4    0    0 -0.24993379688E+03 -0.42054206204E+02  0.37533414055E+03  0.46204192511E+03  0.91496253559E+02 0.  0.
         23    2    4    4    0    0 -0.18226241577E+03 -0.15856984224E+04  0.91460830820E+03  0.18419430340E+04  0.92664492790E+02 0.  0.
          2    1    3    3  502    0  0.11826588497E+03  0.47662682226E+03 -0.53527866221E+03  0.72641805695E+03  0.00000000000E+00 0. -1.
         -1    1    3    3    0  502  0.31393032768E+03  0.11511258063E+04 -0.11267201068E+04  0.16410792399E+04  0.00000000000E+00 0.  1.
         11    1    5    5    0    0 -0.12452387428E+03 -0.12514309166E+02  0.10811513788E+03  0.16538345212E+03  0.00000000000E+00 0. -1.
        -11    1    5    5    0    0 -0.12540992260E+03 -0.29539897038E+02  0.26721900268E+03  0.29665847299E+03  0.00000000000E+00 0.  1.
          4    1    6    6  503    0 -0.31161062581E+02 -0.13269245231E+03  0.55193437568E+02  0.14705310017E+03  0.00000000000E+00 0. -1.
         -4    1    6    6    0  503 -0.15110135319E+03 -0.14530059701E+04  0.85941487064E+03  0.16948899338E+04  0.00000000000E+00 0.  1.
<mgrwt>
<rscale>  0 0.46566426E+04</rscale>
<asrwt>0</asrwt>
<pdfrwt beam="1">  1        2 0.38796451E+00 0.46566426E+04</pdfrwt>
<pdfrwt beam="2">  1       -1 0.33072507E+00 0.46566426E+04</pdfrwt>
<totfact> 0.59903867E-02</totfact>
</mgrwt>
</event>
<event>
12    6  0.1395358E-007  0.2275283E+04  0.7818608E-02  0.8487731E-01
          2   -1    0    0  501    0  0.00000000000E+00  0.00000000000E+00  0.81468928488E+03  0.81468928488E+03  0.00000000000E+00 0. -1.
         -1   -1    0    0    0  501 -0.00000000000E+00 -0.00000000000E+00 -0.15886156661E+04  0.15886156661E+04  0.00000000000E+00 0.  1.
         24    2    1    2    0    0 -0.37793576903E+03 -0.66486470561E+03  0.28202850388E+03  0.81855065968E+03  0.74863764112E+02 0.  0.
        254    2    1    2    0    0  0.37793576903E+03  0.66486470561E+03 -0.10559548851E+04  0.15847542913E+04  0.90084678061E+03 0.  0.
         23    2    4    4    0    0  0.65033884430E+02  0.81036292563E+03 -0.80902871288E+03  0.11506276677E+04  0.92190531108E+02 0.  0.
         23    2    4    4    0    0  0.31290188460E+03 -0.14549822001E+03 -0.24692617220E+03  0.43412662360E+03  0.91739137701E+02 0.  0.
          4    1    3    3  502    0 -0.12420202544E+03 -0.16483844333E+03  0.97362000028E+02  0.22820432637E+03  0.00000000000E+00 0. -1.
         -3    1    3    3    0  502 -0.25373374358E+03 -0.50002626229E+03  0.18466650385E+03  0.59034633331E+03  0.00000000000E+00 0.  1.
         11    1    5    5    0    0  0.84643725530E+02  0.61468921234E+03 -0.58904890266E+03  0.85556180242E+03  0.00000000000E+00 0. -1.
        -11    1    5    5    0    0 -0.19609841100E+02  0.19567371328E+03 -0.21997981022E+03  0.29506586526E+03  0.00000000000E+00 0.  1.
          3    1    6    6  503    0  0.27013960433E+03 -0.14819912298E+03 -0.24035133341E+03  0.39077762135E+03  0.00000000000E+00 0. -1.
         -3    1    6    6    0  503  0.42762280269E+02  0.27009029640E+01 -0.65748387955E+01  0.43349002247E+02  0.00000000000E+00 0.  1.
<mgrwt>
<rscale>  0 0.22752830E+04</rscale>
<asrwt>0</asrwt>
<pdfrwt beam="1">  1        2 0.12533681E+00 0.22752830E+04</pdfrwt>
<pdfrwt beam="2">  1       -1 0.24440241E+00 0.22752830E+04</pdfrwt>
<totfact> 0.26426641E+00</totfact>
</mgrwt>
</event>
<event>
12    6  0.1395358E-007  0.2371904E+04  0.7818608E-02  0.8450098E-01
         -1   -1    0    0    0  501 -0.00000000000E+00  0.00000000000E+00  0.49969602869E+03  0.49969602869E+03  0.00000000000E+00 0.  1.
          2   -1    0    0  501    0  0.00000000000E+00 -0.00000000000E+00 -0.28146751414E+04  0.28146751414E+04  0.00000000000E+00 0. -1.
         24    2    1    2    0    0  0.92915557397E+02  0.69772270316E+03 -0.20097669789E+04  0.21309617752E+04  0.79903105644E+02 0.  0.
        254    2    1    2    0    0 -0.92915557397E+02 -0.69772270316E+03 -0.30521213375E+03  0.11834093949E+04  0.90102889966E+03 0.  0.
         23    2    4    4    0    0 -0.92030882492E+02 -0.50577462300E+02 -0.48564975514E+03  0.50572765783E+03  0.94217918683E+02 0.  0.
         23    2    4    4    0    0 -0.88467490486E+00 -0.64714524086E+03  0.18043762140E+03  0.67768173705E+03  0.88865381929E+02 0.  0.
          4    1    3    3  502    0  0.10902708812E+02  0.18029619143E+03 -0.61819895767E+03  0.64404622270E+03  0.00000000000E+00 0. -1.
         -3    1    3    3    0  502  0.82012848585E+02  0.51742651172E+03 -0.13915680213E+04  0.14869155525E+04  0.00000000000E+00 0.  1.
         11    1    5    5    0    0 -0.53504182382E+02 -0.53862159567E+02 -0.43718606913E+03  0.44372907140E+03  0.00000000000E+00 0.  1.
        -11    1    5    5    0    0 -0.38526700110E+02  0.32846972668E+01 -0.48463686017E+02  0.61998586434E+02  0.00000000000E+00 0. -1.
          3    1    6    6  503    0  0.19340408139E+02 -0.44772407913E+03  0.86910319887E+02  0.45649129907E+03  0.00000000000E+00 0. -1.
         -3    1    6    6    0  503 -0.20225083044E+02 -0.19942116172E+03  0.93527301513E+02  0.22119043798E+03  0.00000000000E+00 0.  1.
<mgrwt>
<rscale>  0 0.23719039E+04</rscale>
<asrwt>0</asrwt>
<pdfrwt beam="1">  1        2 0.43302695E+00 0.23719039E+04</pdfrwt>
<pdfrwt beam="2">  1       -1 0.76876311E-01 0.23719039E+04</pdfrwt>
<totfact> 0.39435375E+00</totfact>
</mgrwt>
</event>
<event>
12    6  0.1395358E-007  0.3103261E+04  0.7818608E-02  0.8214844E-01
         -1   -1    0    0    0  501 -0.00000000000E+00  0.00000000000E+00  0.19121173321E+04  0.19121173321E+04  0.00000000000E+00 0.  1.
          2   -1    0    0  501    0  0.00000000000E+00 -0.00000000000E+00 -0.12591050008E+04  0.12591050008E+04  0.00000000000E+00 0. -1.
         24    2    1    2    0    0 -0.12274609007E+04  0.57784269593E+03  0.70373783941E+03  0.15303672318E+04  0.78831931716E+02 0.  0.
        254    2    1    2    0    0  0.12274609007E+04 -0.57784269593E+03 -0.50725508171E+02  0.16408551011E+04  0.92155843092E+03 0.  0.
         23    2    4    4    0    0 -0.50721076485E+02 -0.30148534281E+03  0.67411393573E+02  0.32469271865E+03  0.86110545420E+02 0.  0.
         23    2    4    4    0    0  0.12781819772E+04 -0.27635735312E+03 -0.11813690174E+03  0.13161623825E+04  0.90578893457E+02 0.  0.
          4    1    3    3  502    0 -0.52952277452E+03  0.21586137019E+03  0.32399469004E+03  0.65723896647E+03  0.00000000000E+00 0. -1.
         -3    1    3    3    0  502 -0.69793812621E+03  0.36198132574E+03  0.37974314937E+03  0.87312826532E+03  0.00000000000E+00 0.  1.
         11    1    5    5    0    0 -0.27410590908E+02 -0.18175936641E+03 -0.30295223796E+01  0.18383956532E+03  0.00000000000E+00 0.  1.
        -11    1    5    5    0    0 -0.23310485577E+02 -0.11972597640E+03  0.70440915953E+02  0.14085315333E+03  0.00000000000E+00 0. -1.
          4    1    6    6  503    0  0.19189323178E+03 -0.70310345034E+02 -0.35416510882E+02  0.20741476867E+03  0.00000000000E+00 0. -1.
         -4    1    6    6    0  503  0.10862887454E+04 -0.20604700808E+03 -0.82720390862E+02  0.11087476138E+04  0.00000000000E+00 0.  1.
<mgrwt>
<rscale>  0 0.31032605E+04</rscale>
<asrwt>0</asrwt>
<pdfrwt beam="1">  1        2 0.19370846E+00 0.31032605E+04</pdfrwt>
<pdfrwt beam="2">  1       -1 0.29417190E+00 0.31032605E+04</pdfrwt>
<totfact> 0.60845946E-01</totfact>
</mgrwt>
</event>
<event>
12    6  0.1395358E-007  0.1537635E+04  0.7818608E-02  0.8859805E-01
          2   -1    0    0  501    0  0.00000000000E+00  0.00000000000E+00  0.78602775008E+03  0.78602775008E+03  0.00000000000E+00 0. -1.
         -1   -1    0    0    0  501 -0.00000000000E+00 -0.00000000000E+00 -0.75198383006E+03  0.75198383006E+03  0.00000000000E+00 0.  1.
         24    2    1    2    0    0  0.16661079440E+02  0.41092570275E+03 -0.26817999021E+03  0.49766761553E+03  0.81332795617E+02 0.  0.
        254    2    1    2    0    0 -0.16661079440E+02 -0.41092570275E+03  0.30222391023E+03  0.10403439646E+04  0.90655322406E+03 0.  0.
         23    2    4    4    0    0 -0.28278858612E+03 -0.43577144508E+02  0.46165298199E+03  0.55073602533E+03  0.91204944272E+02 0.  0.
         23    2    4    4    0    0  0.26612750668E+03 -0.36734855825E+03 -0.15942907175E+03  0.48960793929E+03  0.92355250178E+02 0.  0.
          4    1    3    3  502    0 -0.48492716603E+01  0.20511204524E+03 -0.17921420263E+03  0.27241915675E+03  0.00000000000E+00 0. -1.
         -3    1    3    3    0  502  0.21510351100E+02  0.20581365751E+03 -0.88965787586E+02  0.22524845878E+03  0.00000000000E+00 0.  1.
         11    1    5    5    0    0 -0.77474157172E+02 -0.22335468738E+02  0.64908101251E+02  0.10350932229E+03  0.00000000000E+00 0. -1.
        -11    1    5    5    0    0 -0.20531442895E+03 -0.21241675771E+02  0.39674488074E+03  0.44722670304E+03  0.00000000000E+00 0.  1.
          1    1    6    6  503    0  0.37440692713E+02 -0.17838969367E+02  0.27144537237E+01  0.41562032649E+02  0.00000000000E+00 0. -1.
         -1    1    6    6    0  503  0.22868681397E+03 -0.34950958888E+03 -0.16214352548E+03  0.44804590664E+03  0.00000000000E+00 0.  1.
<mgrwt>
<rscale>  0 0.15376348E+04</rscale>
<asrwt>0</asrwt>
<pdfrwt beam="1">  1        2 0.12092735E+00 0.15376348E+04</pdfrwt>
<pdfrwt beam="2">  1       -1 0.11568982E+00 0.15376348E+04</pdfrwt>
<totfact> 0.26252957E+01</totfact>
</mgrwt>
</event>
<event>
12    6  0.1395358E-007  0.1465855E+04  0.7818608E-02  0.8907482E-01
          2   -1    0    0  501    0  0.00000000000E+00  0.00000000000E+00  0.10263816708E+04  0.10263816708E+04  0.00000000000E+00 0. -1.
         -1   -1    0    0    0  501 -0.00000000000E+00 -0.00000000000E+00 -0.52337535938E+03  0.52337535938E+03  0.00000000000E+00 0.  1.
         24    2    1    2    0    0 -0.33106250610E+03 -0.18497943313E+03 -0.10405380755E+03  0.40155932256E+03  0.81258359800E+02 0.  0.
        254    2    1    2    0    0  0.33106250610E+03  0.18497943313E+03  0.60706011894E+03  0.11481977076E+04  0.89778405761E+03 0.  0.
         23    2    4    4    0    0  0.44143523861E+03 -0.70579715566E+02 -0.19347332860E+02  0.45666878306E+03  0.91244134027E+02 0.  0.
         23    2    4    4    0    0 -0.11037273251E+03  0.25555914870E+03  0.62640745180E+03  0.69152892454E+03  0.91287125241E+02 0.  0.
          4    1    3    3  502    0 -0.52282535158E+02 -0.15255393014E+02  0.10868665504E+02  0.55536640053E+02  0.00000000000E+00 0. -1.
         -3    1    3    3    0  502 -0.27877997094E+03 -0.16972404012E+03 -0.11492247305E+03  0.34602268250E+03  0.00000000000E+00 0.  1.
         11    1    5    5    0    0  0.31638584626E+03 -0.77312690611E+02  0.17395703767E+02  0.32615926531E+03  0.00000000000E+00 0. -1.
        -11    1    5    5    0    0  0.12504939236E+03  0.67329750458E+01 -0.36743036626E+02  0.13050951775E+03  0.00000000000E+00 0.  1.
          1    1    6    6  503    0 -0.79483884247E+02  0.23218799445E+03  0.46787589051E+03  0.52833398674E+03  0.00000000000E+00 0. -1.
         -1    1    6    6    0  503 -0.30888848263E+02  0.23371154248E+02  0.15853156129E+03  0.16319493780E+03  0.00000000000E+00 0.  1.
<mgrwt>
<rscale>  0 0.14658552E+04</rscale>
<asrwt>0</asrwt>
<pdfrwt beam="1">  1        2 0.15790487E+00 0.14658552E+04</pdfrwt>
<pdfrwt beam="2">  1       -1 0.80519286E-01 0.14658552E+04</pdfrwt>
<totfact> 0.41199821E+01</totfact>
</mgrwt>
</event>
<event>
12    6  0.1395358E-007  0.1441491E+04  0.7818608E-02  0.8924321E-01
         -1   -1    0    0    0  501 -0.00000000000E+00  0.00000000000E+00  0.19842311148E+03  0.19842311148E+03  0.00000000000E+00 0.  1.
          2   -1    0    0  501    0  0.00000000000E+00 -0.00000000000E+00 -0.26180128670E+04  0.26180128670E+04  0.00000000000E+00 0. -1.
         24    2    1    2    0    0 -0.14387945572E+03  0.40812028769E+03 -0.80364900408E+03  0.91619649042E+03  0.79377706492E+02 0.  0.
        254    2    1    2    0    0  0.14387945572E+03 -0.40812028769E+03 -0.16159407515E+04  0.19002394881E+04  0.90132243557E+03 0.  0.
         23    2    4    4    0    0  0.44810267039E+03 -0.13359469956E+03 -0.42824139615E+03  0.64066539241E+03  0.91749139980E+02 0.  0.
         23    2    4    4    0    0 -0.30422321468E+03 -0.27452558813E+03 -0.11876993553E+04  0.12595740957E+04  0.89336896223E+02 0.  0.
          2    1    3    3  502    0 -0.31795520618E+02  0.12048201083E+03 -0.30827950395E+03  0.33251033461E+03  0.00000000000E+00 0. -1.
         -1    1    3    3    0  502 -0.11208393510E+03  0.28763827686E+03 -0.49536950013E+03  0.58368615580E+03  0.00000000000E+00 0.  1.
         11    1    5    5    0    0  0.38244603675E+03 -0.97169334674E+02 -0.39572581924E+03  0.55884324693E+03  0.00000000000E+00 0. -1.
        -11    1    5    5    0    0  0.65656633646E+02 -0.36425364886E+02 -0.32515576910E+02  0.81822145477E+02  0.00000000000E+00 0.  1.
          4    1    6    6  503    0 -0.29664478747E+03 -0.23347951575E+03 -0.10588399392E+04  0.11241231388E+04  0.00000000000E+00 0. -1.
         -4    1    6    6    0  503 -0.75784272108E+01 -0.41046072380E+02 -0.12885941607E+03  0.13545095690E+03  0.00000000000E+00 0.  1.
<mgrwt>
<rscale>  0 0.14414913E+04</rscale>
<asrwt>0</asrwt>
<pdfrwt beam="1">  1        2 0.40277120E+00 0.14414913E+04</pdfrwt>
<pdfrwt beam="2">  1       -1 0.30526633E-01 0.14414913E+04</pdfrwt>
<totfact> 0.32618987E+01</totfact>
</mgrwt>
</event>
<event>
12    6  0.1395358E-007  0.3091094E+04  0.7818608E-02  0.8218186E-01
          2   -1    0    0  501    0  0.00000000000E+00  0.00000000000E+00  0.12504653882E+04  0.12504653882E+04  0.00000000000E+00 0. -1.
         -1   -1    0    0    0  501 -0.00000000000E+00 -0.00000000000E+00 -0.19102608257E+04  0.19102608257E+04  0.00000000000E+00 0.  1.
         24    2    1    2    0    0  0.13001583496E+04 -0.11852483423E+03  0.25070554247E+03  0.13317883502E+04  0.79668503174E+02 0.  0.
        254    2    1    2    0    0 -0.13001583496E+04  0.11852483423E+03 -0.91050097995E+03  0.18289378637E+04  0.90085615094E+03 0.  0.
         23    2    4    4    0    0 -0.38421112236E+03  0.41156909986E+03 -0.56514679863E+03  0.80297075466E+03  0.91453913650E+02 0.  0.
         23    2    4    4    0    0 -0.91594722719E+03 -0.29304426563E+03 -0.34535418131E+03  0.10259671091E+04  0.92221113380E+02 0.  0.
          4    1    3    3  502    0  0.10865209142E+04 -0.12858940350E+03  0.20951962752E+03  0.11139844729E+04  0.00000000000E+00 0. -1.
         -3    1    3    3    0  502  0.21363743538E+03  0.10064569269E+02  0.41185914943E+02  0.21780387724E+03  0.00000000000E+00 0.  1.
         11    1    5    5    0    0 -0.14411502756E+03  0.19918869403E+03 -0.29293357523E+03  0.38243346676E+03  0.00000000000E+00 0. -1.
        -11    1    5    5    0    0 -0.24009609480E+03  0.21238040583E+03 -0.27221322340E+03  0.42053728790E+03  0.00000000000E+00 0.  1.
          2    1    6    6  503    0 -0.85536939971E+03 -0.27571454125E+03 -0.34584884751E+03  0.96295729061E+03  0.00000000000E+00 0. -1.
         -2    1    6    6    0  503 -0.60577827479E+02 -0.17329724381E+02  0.49466619457E+00  0.63009818472E+02  0.00000000000E+00 0.  1.
<mgrwt>
<rscale>  0 0.30910937E+04</rscale>
<asrwt>0</asrwt>
<pdfrwt beam="1">  1        2 0.19237929E+00 0.30910937E+04</pdfrwt>
<pdfrwt beam="2">  1       -1 0.29388628E+00 0.30910937E+04</pdfrwt>
<totfact> 0.61890508E-01</totfact>
</mgrwt>
</event>
<event>
12    6  0.1395358E-007  0.2001187E+04  0.7818608E-02  0.8606066E-01
         -1   -1    0    0    0  501 -0.00000000000E+00  0.00000000000E+00  0.13795344569E+04  0.13795344569E+04  0.00000000000E+00 0.  1.
          2   -1    0    0  501    0  0.00000000000E+00 -0.00000000000E+00 -0.72574298038E+03  0.72574298038E+03  0.00000000000E+00 0. -1.
         24    2    1    2    0    0  0.80641032036E+02  0.71602546476E+03 -0.93826541988E+02  0.73122981716E+03  0.81842429656E+02 0.  0.
        254    2    1    2    0    0 -0.80641032036E+02 -0.71602546476E+03  0.74761801851E+03  0.13740476201E+04  0.89993261887E+03 0.  0.
         23    2    4    4    0    0 -0.29500616913E+03 -0.29444940548E+03 -0.63646083823E+02  0.43106299881E+03  0.89640352210E+02 0.  0.
         23    2    4    4    0    0  0.21436513710E+03 -0.42157605928E+03  0.81126410233E+03  0.94298462130E+03  0.85975383236E+02 0.  0.
          2    1    3    3  502    0  0.88202213351E+02  0.55744055908E+03 -0.95822389239E+02  0.57245221427E+03  0.00000000000E+00 0. -1.
         -1    1    3    3    0  502 -0.75611813159E+01  0.15858490568E+03  0.19958472516E+01  0.15877760289E+03  0.00000000000E+00 0.  1.
         11    1    5    5    0    0 -0.18229034502E+03 -0.18925602270E+03  0.37577817723E+01  0.26279599110E+03  0.00000000000E+00 0.  1.
        -11    1    5    5    0    0 -0.11271582412E+03 -0.10519338278E+03 -0.67403865595E+02  0.16826700771E+03  0.00000000000E+00 0. -1.
          4    1    6    6  503    0  0.18884100176E+03 -0.32706843042E+03  0.69508400127E+03  0.79106033332E+03  0.00000000000E+00 0.  1.
         -4    1    6    6    0  503  0.25524135332E+02 -0.94507628869E+02  0.11618010106E+03  0.15192428799E+03  0.00000000000E+00 0. -1.
<mgrwt>
<rscale>  0 0.20011871E+04</rscale>
<asrwt>0</asrwt>
<pdfrwt beam="1">  1        2 0.11165277E+00 0.20011871E+04</pdfrwt>
<pdfrwt beam="2">  1       -1 0.21223607E+00 0.20011871E+04</pdfrwt>
<totfact> 0.51501763E+00</totfact>
</mgrwt>
</event>
<event>
12    6  0.1395358E-007  0.1599818E+04  0.7818608E-02  0.8820660E-01
          2   -1    0    0  501    0  0.00000000000E+00  0.00000000000E+00  0.24090682373E+04  0.24090682373E+04  0.00000000000E+00 0. -1.
         -1   -1    0    0    0  501 -0.00000000000E+00 -0.00000000000E+00 -0.26560255298E+03  0.26560255298E+03  0.00000000000E+00 0.  1.
         24    2    1    2    0    0  0.15028192495E+02  0.29583584664E+03 -0.25283967504E+02  0.30842984827E+03  0.82127934132E+02 0.  0.
        254    2    1    2    0    0 -0.15028192495E+02 -0.29583584664E+03  0.21687496519E+04  0.23662409421E+04  0.89881947502E+03 0.  0.
         23    2    4    4    0    0 -0.40278816035E+03 -0.33645069557E+03  0.14296727160E+04  0.15257109058E+04  0.91609609697E+02 0.  0.
         23    2    4    4    0    0  0.38775996786E+03  0.40614848938E+02  0.73907693591E+03  0.84053003628E+03  0.90822167273E+02 0.  0.
          4    1    3    3  502    0  0.19406922412E+02  0.17024218175E+03  0.24833433005E+02  0.17313500073E+03  0.00000000000E+00 0. -1.
         -3    1    3    3    0  502 -0.43787299169E+01  0.12559366489E+03 -0.50117400509E+02  0.13529484754E+03  0.00000000000E+00 0.  1.
         11    1    5    5    0    0 -0.40419730348E+03 -0.33964690380E+03  0.14074153643E+04  0.15031811225E+04  0.00000000000E+00 0.  1.
        -11    1    5    5    0    0  0.14091431271E+01  0.31962082295E+01  0.22257351637E+02  0.22529783250E+02  0.00000000000E+00 0. -1.
          3    1    6    6  503    0  0.74138459387E+02  0.40371193571E+02  0.12243683648E+03  0.14871826840E+03  0.00000000000E+00 0. -1.
         -3    1    6    6    0  503  0.31362150847E+03  0.24365536671E+00  0.61664009943E+03  0.69181176788E+03  0.00000000000E+00 0.  1.
<mgrwt>
<rscale>  0 0.15998183E+04</rscale>
<asrwt>0</asrwt>
<pdfrwt beam="1">  1        2 0.37062587E+00 0.15998183E+04</pdfrwt>
<pdfrwt beam="2">  1       -1 0.40861933E-01 0.15998183E+04</pdfrwt>
<totfact> 0.25167403E+01</totfact>
</mgrwt>
</event>
<event>
12    6  0.1395358E-007  0.1244755E+04  0.7818608E-02  0.9074560E-01
          2   -1    0    0  501    0  0.00000000000E+00  0.00000000000E+00  0.28593027646E+04  0.28593027646E+04  0.00000000000E+00 0. -1.
         -1   -1    0    0    0  501 -0.00000000000E+00 -0.00000000000E+00 -0.13547146969E+03  0.13547146969E+03  0.00000000000E+00 0.  1.
         24    2    1    2    0    0 -0.52473474365E+02 -0.11194678402E+03  0.12808662808E+04  0.12892951217E+04  0.79861964874E+02 0.  0.
        254    2    1    2    0    0  0.52473474365E+02  0.11194678402E+03  0.14429650140E+04  0.17054791126E+04  0.90068053369E+03 0.  0.
         23    2    4    4    0    0 -0.29965847963E+03 -0.11821354197E+03  0.11146060751E+04  0.11637554299E+04  0.90610992921E+02 0.  0.
         23    2    4    4    0    0  0.35213195399E+03  0.23016032599E+03  0.32835893892E+03  0.54172368267E+03  0.93135744581E+02 0.  0.
          2    1    3    3  502    0  0.13846844395E+02 -0.63583536778E+02  0.57932506310E+03  0.58296837821E+03  0.00000000000E+00 0. -1.
         -1    1    3    3    0  502 -0.66320318760E+02 -0.48363247243E+02  0.70154121773E+03  0.70632674347E+03  0.00000000000E+00 0.  1.
         11    1    5    5    0    0 -0.10841653156E+03 -0.82258423056E+02  0.37324236902E+03  0.39727881709E+03  0.00000000000E+00 0.  1.
        -11    1    5    5    0    0 -0.19124194807E+03 -0.35955118916E+02  0.74136370610E+03  0.76647661282E+03  0.00000000000E+00 0. -1.
          1    1    6    6  503    0  0.99708275202E+02  0.10710820372E+03  0.79674937810E+02  0.16661933610E+03  0.00000000000E+00 0. -1.
         -1    1    6    6    0  503  0.25242367879E+03  0.12305212227E+03  0.24868400111E+03  0.37510434657E+03  0.00000000000E+00 0.  1.
<mgrwt>
<rscale>  0 0.12447553E+04</rscale>
<asrwt>0</asrwt>
<pdfrwt beam="1">  1        2 0.43989269E+00 0.12447553E+04</pdfrwt>
<pdfrwt beam="2">  1       -1 0.20841767E-01 0.12447553E+04</pdfrwt>
<totfact> 0.45997033E+01</totfact>
</mgrwt>
</event>
<event>
12    6  0.1395358E-007  0.1927992E+04  0.7818608E-02  0.8641047E-01
         -1   -1    0    0    0  501 -0.00000000000E+00  0.00000000000E+00  0.38088714758E+03  0.38088714758E+03  0.00000000000E+00 0.  1.
          2   -1    0    0  501    0  0.00000000000E+00 -0.00000000000E+00 -0.24397994249E+04  0.24397994249E+04  0.00000000000E+00 0. -1.
         24    2    1    2    0    0 -0.67369766224E+03  0.23033178647E+02 -0.32452887921E+03  0.75207731022E+03  0.76825905030E+02 0.  0.
        254    2    1    2    0    0  0.67369766224E+03 -0.23033178647E+02 -0.17343833981E+04  0.20686092622E+04  0.90369211617E+03 0.  0.
         23    2    4    4    0    0 -0.20207441408E+03  0.82319730829E+02 -0.44073229015E+03  0.50045144388E+03  0.92715096886E+02 0.  0.
         23    2    4    4    0    0  0.87577207632E+03 -0.10535290948E+03 -0.12936511080E+04  0.15681578184E+04  0.86659038818E+02 0.  0.
          4    1    3    3  502    0 -0.22042781468E+03  0.41946057106E+02 -0.11972479738E+03  0.25432640504E+03  0.00000000000E+00 0. -1.
         -3    1    3    3    0  502 -0.45326984755E+03 -0.18912878458E+02 -0.20480408182E+03  0.49775090518E+03  0.00000000000E+00 0.  1.
         11    1    5    5    0    0 -0.10963190106E+03  0.14290035032E+01 -0.25732209036E+03  0.27970672850E+03  0.00000000000E+00 0.  1.
        -11    1    5    5    0    0 -0.92442513020E+02  0.80890727326E+02 -0.18341019979E+03  0.22074471538E+03  0.00000000000E+00 0. -1.
          3    1    6    6  503    0  0.29453332725E+03 -0.71386467876E+02 -0.47939859672E+03  0.56715864023E+03  0.00000000000E+00 0. -1.
         -3    1    6    6    0  503  0.58123874907E+03 -0.33966441600E+02 -0.81425251123E+03  0.10009991781E+04  0.00000000000E+00 0.  1.
<mgrwt>
<rscale>  0 0.19279920E+04</rscale>
<asrwt>0</asrwt>
<pdfrwt beam="1">  1        2 0.37535377E+00 0.19279920E+04</pdfrwt>
<pdfrwt beam="2">  1       -1 0.58598021E-01 0.19279920E+04</pdfrwt>
<totfact> 0.11848580E+01</totfact>
</mgrwt>
</event>
<event>
12    6  0.1395358E-007  0.1840240E+04  0.7818608E-02  0.8685188E-01
         -1   -1    0    0    0  501 -0.00000000000E+00  0.00000000000E+00  0.55204036958E+03  0.55204036958E+03  0.00000000000E+00 0.  1.
          2   -1    0    0  501    0  0.00000000000E+00 -0.00000000000E+00 -0.15336216660E+04  0.15336216660E+04  0.00000000000E+00 0. -1.
         24    2    1    2    0    0  0.63006440024E+03 -0.29307861367E+03 -0.43619855359E+03  0.82425036832E+03  0.79014361271E+02 0.  0.
        254    2    1    2    0    0 -0.63006440024E+03  0.29307861367E+03 -0.54538274287E+03  0.12614116673E+04  0.90046700990E+03 0.  0.
         23    2    4    4    0    0 -0.37363701127E+03  0.29362597725E+03 -0.76933343170E+03  0.90910841646E+03  0.93719544564E+02 0.  0.
         23    2    4    4    0    0 -0.25642738897E+03 -0.54736358635E+00  0.22395068883E+03  0.35230325084E+03  0.90600022660E+02 0.  0.
          4    1    3    3  502    0  0.11059363866E+03 -0.85379126295E+02 -0.79344800212E+02  0.16067403474E+03  0.00000000000E+00 0. -1.
         -1    1    3    3    0  502  0.51947076158E+03 -0.20769948737E+03 -0.35685375338E+03  0.66357633358E+03  0.00000000000E+00 0.  1.
         11    1    5    5    0    0 -0.17683204704E+03  0.19820108607E+03 -0.41762691750E+03  0.49493988079E+03  0.00000000000E+00 0. -1.
        -11    1    5    5    0    0 -0.19680496424E+03  0.95424891187E+02 -0.35170651419E+03  0.41416853566E+03  0.00000000000E+00 0.  1.
          2    1    6    6  503    0 -0.20953334154E+03  0.99589813602E+01  0.13003008693E+03  0.24680199763E+03  0.00000000000E+00 0. -1.
         -2    1    6    6    0  503 -0.46894047428E+02 -0.10506344947E+02  0.93920601898E+02  0.10550125321E+03  0.00000000000E+00 0.  1.
<mgrwt>
<rscale>  0 0.18402403E+04</rscale>
<asrwt>0</asrwt>
<pdfrwt beam="1">  1        2 0.23594180E+00 0.18402403E+04</pdfrwt>
<pdfrwt beam="2">  1       -1 0.84929288E-01 0.18402403E+04</pdfrwt>
<totfact> 0.17869338E+01</totfact>
</mgrwt>
</event>
<event>
12    6  0.1395358E-007  0.2077478E+04  0.7818608E-02  0.8571230E-01
         -1   -1    0    0    0  501 -0.00000000000E+00  0.00000000000E+00  0.25842647942E+04  0.25842647942E+04  0.00000000000E+00 0.  1.
          2   -1    0    0  501    0  0.00000000000E+00 -0.00000000000E+00 -0.41751846179E+03  0.41751846179E+03  0.00000000000E+00 0. -1.
         24    2    1    2    0    0 -0.28790768359E+03 -0.30585040244E+03  0.19362696467E+04  0.19829573771E+04  0.80898157702E+02 0.  0.
        254    2    1    2    0    0  0.28790768359E+03  0.30585040244E+03  0.23047668574E+03  0.10188258789E+04  0.89913923608E+03 0.  0.
         23    2    4    4    0    0  0.45522976096E+03  0.13598962519E+03  0.46617283257E+03  0.67191138734E+03  0.91763223487E+02 0.  0.
         23    2    4    4    0    0 -0.16732207737E+03  0.16986077725E+03 -0.23569614683E+03  0.34691449154E+03  0.89149478880E+02 0.  0.
          2    1    3    3  502    0 -0.11727215461E+02 -0.36850972664E+02  0.11496580920E+03  0.12129575035E+03  0.00000000000E+00 0. -1.
         -1    1    3    3    0  502 -0.27618046813E+03 -0.26899942978E+03  0.18213038375E+04  0.18616616268E+04  0.00000000000E+00 0.  1.
         11    1    5    5    0    0  0.20712288472E+03  0.10410085580E+03  0.19434867983E+03  0.30250336677E+03  0.00000000000E+00 0.  1.
        -11    1    5    5    0    0  0.24810687624E+03  0.31888769395E+02  0.27182415274E+03  0.36940802057E+03  0.00000000000E+00 0. -1.
          2    1    6    6  503    0 -0.13328136396E+03  0.17495418317E+03 -0.19902847978E+03  0.29662303342E+03  0.00000000000E+00 0. -1.
         -2    1    6    6    0  503 -0.34040713409E+02 -0.50934059211E+01 -0.36667667047E+02  0.50291458121E+02  0.00000000000E+00 0.  1.
<mgrwt>
<rscale>  0 0.20774776E+04</rscale>
<asrwt>0</asrwt>
<pdfrwt beam="1">  1        2 0.64233611E-01 0.20774776E+04</pdfrwt>
<pdfrwt beam="2">  1       -1 0.39757919E+00 0.20774776E+04</pdfrwt>
<totfact> 0.59472461E-01</totfact>
</mgrwt>
</event>
<event>
12    6  0.1395358E-007  0.1224235E+04  0.7818608E-02  0.9091905E-01
         -1   -1    0    0    0  501 -0.00000000000E+00  0.00000000000E+00  0.36011471068E+03  0.36011471068E+03  0.00000000000E+00 0.  1.
          2   -1    0    0  501    0  0.00000000000E+00 -0.00000000000E+00 -0.10404674578E+04  0.10404674578E+04  0.00000000000E+00 0. -1.
         24    2    1    2    0    0 -0.18836387846E+03 -0.17873883172E+03 -0.66935743945E+02  0.27991414422E+03  0.80268385073E+02 0.  0.
        254    2    1    2    0    0  0.18836387846E+03  0.17873883172E+03 -0.61341700317E+03  0.11206680243E+04  0.90121466928E+03 0.  0.
         23    2    4    4    0    0 -0.24074492064E+03  0.34330779869E+03 -0.13200652104E+03  0.44905486081E+03  0.91685249476E+02 0.  0.
         23    2    4    4    0    0  0.42910879910E+03 -0.16456896696E+03 -0.48141048213E+03  0.67161316344E+03  0.89949333818E+02 0.  0.
          4    1    3    3  502    0 -0.13349593687E+03 -0.15386701549E+03 -0.78977606560E+02  0.21848040176E+03  0.00000000000E+00 0. -1.
         -3    1    3    3    0  502 -0.54867941588E+02 -0.24871816235E+02  0.12041862616E+02  0.61433742456E+02  0.00000000000E+00 0.  1.
         11    1    5    5    0    0 -0.23818532868E+03  0.28957982360E+03 -0.10834283220E+03  0.39029078175E+03  0.00000000000E+00 0. -1.
        -11    1    5    5    0    0 -0.25595919575E+01  0.53727975090E+02 -0.23663688841E+02  0.58764079061E+02  0.00000000000E+00 0.  1.
          3    1    6    6  503    0  0.38565205918E+03 -0.11781659759E+03 -0.39797393573E+03  0.56656113081E+03  0.00000000000E+00 0. -1.
         -3    1    6    6    0  503  0.43456739915E+02 -0.46752369372E+02 -0.83436546398E+02  0.10505203264E+03  0.00000000000E+00 0.  1.
<mgrwt>
<rscale>  0 0.12242347E+04</rscale>
<asrwt>0</asrwt>
<pdfrwt beam="1">  1        2 0.16007191E+00 0.12242347E+04</pdfrwt>
<pdfrwt beam="2">  1       -1 0.55402265E-01 0.12242347E+04</pdfrwt>
<totfact> 0.87842357E+01</totfact>
</mgrwt>
</event>
<event>
12    6  0.1395358E-007  0.4069288E+04  0.7818608E-02  0.7990713E-01
         -1   -1    0    0    0  501 -0.00000000000E+00  0.00000000000E+00  0.18280564110E+04  0.18280564110E+04  0.00000000000E+00 0.  1.
          2   -1    0    0  501    0  0.00000000000E+00 -0.00000000000E+00 -0.22645782527E+04  0.22645782527E+04  0.00000000000E+00 0. -1.
         24    2    1    2    0    0  0.12613833747E+04  0.11330824292E+04 -0.11441028483E+04  0.20470262325E+04  0.79882786687E+02 0.  0.
        254    2    1    2    0    0 -0.12613833747E+04 -0.11330824292E+04  0.70758100658E+03  0.20456084311E+04  0.89937709731E+03 0.  0.
         23    2    4    4    0    0 -0.36363323792E+03  0.10071098488E+03  0.18198111400E+03  0.42916305277E+03  0.93230712834E+02 0.  0.
         23    2    4    4    0    0 -0.89775013680E+03 -0.12337934141E+04  0.52559989258E+03  0.16164453784E+04  0.91863579906E+02 0.  0.
          2    1    3    3  502    0  0.98753471752E+03  0.89282984798E+03 -0.93683236429E+03  0.16278896875E+04  0.00000000000E+00 0. -1.
         -3    1    3    3    0  502  0.27384865720E+03  0.24025258124E+03 -0.20727048399E+03  0.41913654503E+03  0.00000000000E+00 0.  1.
         11    1    5    5    0    0 -0.93050843066E+02  0.20556694546E+02  0.37103195577E+01  0.95366679491E+02  0.00000000000E+00 0. -1.
        -11    1    5    5    0    0 -0.27058239486E+03  0.80154290330E+02  0.17827079444E+03  0.33379637328E+03  0.00000000000E+00 0.  1.
          4    1    6    6  503    0 -0.49864482773E+03 -0.65169046128E+03  0.32619501005E+03  0.88303471400E+03  0.00000000000E+00 0. -1.
         -4    1    6    6    0  503 -0.39910530906E+03 -0.58210295282E+03  0.19940488253E+03  0.73341066435E+03  0.00000000000E+00 0.  1.
<mgrwt>
<rscale>  0 0.40692883E+04</rscale>
<asrwt>0</asrwt>
<pdfrwt beam="1">  1        2 0.34839666E+00 0.40692883E+04</pdfrwt>
<pdfrwt beam="2">  1       -1 0.28123945E+00 0.40692883E+04</pdfrwt>
<totfact> 0.18508021E-01</totfact>
</mgrwt>
</event>
<event>
12    6  0.1395358E-007  0.1405148E+04  0.7818608E-02  0.8950100E-01
          2   -1    0    0  501    0  0.00000000000E+00  0.00000000000E+00  0.36164742510E+03  0.36164742510E+03  0.00000000000E+00 0. -1.
         -1   -1    0    0    0  501 -0.00000000000E+00 -0.00000000000E+00 -0.13648939680E+04  0.13648939680E+04  0.00000000000E+00 0.  1.
         24    2    1    2    0    0  0.12425156359E+03  0.35785258594E+03 -0.48742389020E+03  0.62209428584E+03  0.76956659392E+02 0.  0.
        254    2    1    2    0    0 -0.12425156359E+03 -0.35785258594E+03 -0.51582265275E+03  0.11044471073E+04  0.90012970145E+03 0.  0.
         23    2    4    4    0    0  0.21404879762E+03 -0.60864838423E+02 -0.59135290483E+03  0.63870541215E+03  0.93407329167E+02 0.  0.
         23    2    4    4    0    0 -0.33830036121E+03 -0.29698774752E+03  0.75530252083E+02  0.46574169515E+03  0.92529190253E+02 0.  0.
          4    1    3    3  502    0  0.14486341196E+02  0.50831237348E+01 -0.96297395668E+01  0.18122475335E+02  0.00000000000E+00 0. -1.
         -3    1    3    3    0  502  0.10976522240E+03  0.35276946220E+03 -0.47779415063E+03  0.60397181051E+03  0.00000000000E+00 0.  1.
         11    1    5    5    0    0  0.21057765570E+03 -0.34070809636E+02 -0.50441970852E+03  0.54767053189E+03  0.00000000000E+00 0.  1.
        -11    1    5    5    0    0  0.34711419195E+01 -0.26794028787E+02 -0.86933196310E+02  0.91034880269E+02  0.00000000000E+00 0. -1.
          3    1    6    6  503    0 -0.68847121652E+02 -0.91042027989E+02  0.53007493362E+02  0.12585059147E+03  0.00000000000E+00 0. -1.
         -3    1    6    6    0  503 -0.26945323956E+03 -0.20594571953E+03  0.22522758721E+02  0.33989110368E+03  0.00000000000E+00 0.  1.
<mgrwt>
<rscale>  0 0.14051482E+04</rscale>
<asrwt>0</asrwt>
<pdfrwt beam="1">  1        2 0.55638065E-01 0.14051482E+04</pdfrwt>
<pdfrwt beam="2">  1       -1 0.20998369E+00 0.14051482E+04</pdfrwt>
<totfact> 0.12756677E+01</totfact>
</mgrwt>
</event>
<event>
12    6  0.1395358E-007  0.1475268E+04  0.7818608E-02  0.8901068E-01
         -1   -1    0    0    0  501 -0.00000000000E+00  0.00000000000E+00  0.41718563014E+03  0.41718563014E+03  0.00000000000E+00 0.  1.
          2   -1    0    0  501    0  0.00000000000E+00 -0.00000000000E+00 -0.13042243114E+04  0.13042243114E+04  0.00000000000E+00 0. -1.
         24    2    1    2    0    0  0.29048702009E+03 -0.21434996651E+03 -0.60580906743E+03  0.70976914782E+03  0.80243379959E+02 0.  0.
        254    2    1    2    0    0 -0.29048702009E+03  0.21434996651E+03 -0.28122961383E+03  0.10116407937E+04  0.90221858929E+03 0.  0.
         23    2    4    4    0    0 -0.47980821392E+02 -0.32106495522E+03 -0.24300391412E+03  0.41555062865E+03  0.90810561048E+02 0.  0.
         23    2    4    4    0    0 -0.24250619870E+03  0.53541492173E+03 -0.38225699712E+02  0.59609016508E+03  0.91563562485E+02 0.  0.
          4    1    3    3  502    0  0.28664177049E+03 -0.18712498016E+03 -0.55929614659E+03  0.65573732727E+03  0.00000000000E+00 0. -1.
         -3    1    3    3    0  502  0.38452496024E+01 -0.27224986345E+02 -0.46512920845E+02  0.54031820546E+02  0.00000000000E+00 0.  1.
         11    1    5    5    0    0 -0.62671517918E+02 -0.21692084903E+03 -0.12737089020E+03  0.25924065571E+03  0.00000000000E+00 0. -1.
        -11    1    5    5    0    0  0.14690696525E+02 -0.10414410619E+03 -0.11563302392E+03  0.15630997294E+03  0.00000000000E+00 0.  1.
          2    1    6    6  503    0 -0.11777170451E+03  0.35410740907E+03 -0.28175458600E+01  0.37318918809E+03  0.00000000000E+00 0. -1.
         -2    1    6    6    0  503 -0.12473449419E+03  0.18130751266E+03 -0.35408153852E+02  0.22290097700E+03  0.00000000000E+00 0.  1.
<mgrwt>
<rscale>  0 0.14752676E+04</rscale>
<asrwt>0</asrwt>
<pdfrwt beam="1">  1        2 0.20064989E+00 0.14752676E+04</pdfrwt>
<pdfrwt beam="2">  1       -1 0.64182406E-01 0.14752676E+04</pdfrwt>
<totfact> 0.44651101E+01</totfact>
</mgrwt>
</event>
<event>
12    6  0.1395358E-007  0.1746443E+04  0.7818608E-02  0.8735311E-01
         -1   -1    0    0    0  501 -0.00000000000E+00  0.00000000000E+00  0.31720386898E+03  0.31720386898E+03  0.00000000000E+00 0.  1.
          2   -1    0    0  501    0  0.00000000000E+00 -0.00000000000E+00 -0.24038653800E+04  0.24038653800E+04  0.00000000000E+00 0. -1.
         24    2    1    2    0    0  0.16445334005E+03  0.61781938265E+03 -0.76925305533E+03  0.10032367884E+04  0.77382813715E+02 0.  0.
        254    2    1    2    0    0 -0.16445334005E+03 -0.61781938265E+03 -0.13174084557E+04  0.17178324606E+04  0.89813007569E+03 0.  0.
         23    2    4    4    0    0  0.34095409204E+03 -0.13895793544E+03 -0.30613617021E+03  0.48684374639E+03  0.87968619325E+02 0.  0.
         23    2    4    4    0    0 -0.50540743209E+03 -0.47886144720E+03 -0.10112722855E+04  0.12309887142E+04  0.88975395678E+02 0.  0.
          2    1    3    3  502    0  0.90124315184E+02  0.21708814850E+03 -0.31342934682E+03  0.39177495052E+03  0.00000000000E+00 0. -1.
         -1    1    3    3    0  502  0.74329024864E+02  0.40073123414E+03 -0.45582370851E+03  0.61146183789E+03  0.00000000000E+00 0.  1.
         11    1    5    5    0    0  0.26689348603E+02 -0.23993777205E+02 -0.65448842050E+02  0.74642974212E+02  0.00000000000E+00 0.  1.
        -11    1    5    5    0    0  0.31426474344E+03 -0.11496415824E+03 -0.24068732816E+03  0.41220077218E+03  0.00000000000E+00 0. -1.
          2    1    6    6  503    0 -0.47659273697E+03 -0.43753853319E+03 -0.89580272095E+03  0.11050081990E+04  0.00000000000E+00 0. -1.
         -2    1    6    6    0  503 -0.28814695119E+02 -0.41322914016E+02 -0.11546956452E+03  0.12598051519E+03  0.00000000000E+00 0.  1.
<mgrwt>
<rscale>  0 0.17464426E+04</rscale>
<asrwt>0</asrwt>
<pdfrwt beam="1">  1        2 0.36982543E+00 0.17464426E+04</pdfrwt>
<pdfrwt beam="2">  1       -1 0.48800597E-01 0.17464426E+04</pdfrwt>
<totfact> 0.17968150E+01</totfact>
</mgrwt>
</event>
<event>
12    6  0.1395358E-007  0.3385151E+04  0.7818608E-02  0.8141560E-01
         -1   -1    0    0    0  501 -0.00000000000E+00  0.00000000000E+00  0.15479908584E+04  0.15479908584E+04  0.00000000000E+00 0.  1.
          2   -1    0    0  501    0  0.00000000000E+00 -0.00000000000E+00 -0.18506641355E+04  0.18506641355E+04  0.00000000000E+00 0. -1.
         24    2    1    2    0    0 -0.33950860445E+03  0.14816494235E+04  0.25673311895E+03  0.15437894813E+04  0.82601219432E+02 0.  0.
        254    2    1    2    0    0  0.33950860445E+03 -0.14816494235E+04 -0.55940639607E+03  0.18548655127E+04  0.90390234396E+03 0.  0.
         23    2    4    4    0    0  0.26245509464E+03 -0.70555158882E+03  0.17635861804E+03  0.77886565566E+03  0.94040556207E+02 0.  0.
         23    2    4    4    0    0  0.77053509807E+02 -0.77609783470E+03 -0.73576501411E+03  0.10759998570E+04  0.90335175290E+02 0.  0.
          2    1    3    3  502    0 -0.12706049122E+03  0.40921169849E+03  0.54000700353E+02  0.43187342850E+03  0.00000000000E+00 0. -1.
         -1    1    3    3    0  502 -0.21244811323E+03  0.10724377250E+04  0.20273241860E+03  0.11119160528E+04  0.00000000000E+00 0.  1.
         11    1    5    5    0    0  0.22330325683E+03 -0.53313302555E+03  0.16770004497E+03  0.60184588769E+03  0.00000000000E+00 0. -1.
        -11    1    5    5    0    0  0.39151837816E+02 -0.17241856327E+03  0.86585730731E+01  0.17701976797E+03  0.00000000000E+00 0.  1.
          2    1    6    6  503    0  0.88136230436E+02 -0.70106227781E+03 -0.68893974483E+03  0.98686082326E+03  0.00000000000E+00 0. -1.
         -2    1    6    6    0  503 -0.11082720629E+02 -0.75035556889E+02 -0.46825269289E+02  0.89139033752E+02  0.00000000000E+00 0.  1.
<mgrwt>
<rscale>  0 0.33851506E+04</rscale>
<asrwt>0</asrwt>
<pdfrwt beam="1">  1        2 0.28471756E+00 0.33851506E+04</pdfrwt>
<pdfrwt beam="2">  1       -1 0.23815244E+00 0.33851506E+04</pdfrwt>
<totfact> 0.63638293E-01</totfact>
</mgrwt>
</event>
<event>
12    6  0.1395358E-007  0.1572139E+04  0.7818608E-02  0.8837849E-01
         -1   -1    0    0    0  501 -0.00000000000E+00  0.00000000000E+00  0.39273136409E+03  0.39273136409E+03  0.00000000000E+00 0.  1.
          2   -1    0    0  501    0  0.00000000000E+00 -0.00000000000E+00 -0.15733531052E+04  0.15733531052E+04  0.00000000000E+00 0. -1.
         24    2    1    2    0    0 -0.59733677809E+02  0.44043633364E+03 -0.74847837401E+03  0.87410692749E+03  0.79314362233E+02 0.  0.
        254    2    1    2    0    0  0.59733677809E+02 -0.44043633364E+03 -0.43214336712E+03  0.10919775418E+04  0.89895204870E+03 0.  0.
         23    2    4    4    0    0  0.10374391567E+03  0.20785223373E+03  0.78359394464E+02  0.26069061969E+03  0.88623097361E+02 0.  0.
         23    2    4    4    0    0 -0.44010237857E+02 -0.64828856737E+03 -0.51050276158E+03  0.83128692215E+03  0.90608552161E+02 0.  0.
          2    1    3    3  502    0 -0.44574013798E+02  0.17014637744E+03 -0.35918848519E+03  0.39994124613E+03  0.00000000000E+00 0. -1.
         -1    1    3    3    0  502 -0.15159664011E+02  0.27028995620E+03 -0.38928988883E+03  0.47416568136E+03  0.00000000000E+00 0.  1.
         11    1    5    5    0    0  0.69171672573E+02  0.19895069684E+03  0.79067077082E+02  0.22498378328E+03  0.00000000000E+00 0.  1.
        -11    1    5    5    0    0  0.34572243093E+02  0.89015368924E+01 -0.70768261842E+00  0.35706836408E+02  0.00000000000E+00 0. -1.
          1    1    6    6  503    0  0.15248795715E+02 -0.37685360459E+02 -0.48629381963E+02  0.63383980261E+02  0.00000000000E+00 0. -1.
         -1    1    6    6    0  503 -0.59259033572E+02 -0.61060320692E+03 -0.46187337962E+03  0.76790294188E+03  0.00000000000E+00 0.  1.
<mgrwt>
<rscale>  0 0.15721388E+04</rscale>
<asrwt>0</asrwt>
<pdfrwt beam="1">  1        2 0.24205432E+00 0.15721388E+04</pdfrwt>
<pdfrwt beam="2">  1       -1 0.60420211E-01 0.15721388E+04</pdfrwt>
<totfact> 0.35102943E+01</totfact>
</mgrwt>
</event>
<event>
12    6  0.1395358E-007  0.1760308E+04  0.7818608E-02  0.8727697E-01
         -1   -1    0    0    0  501 -0.00000000000E+00  0.00000000000E+00  0.56483994344E+03  0.56483994344E+03  0.00000000000E+00 0.  1.
          2   -1    0    0  501    0  0.00000000000E+00 -0.00000000000E+00 -0.13714877580E+04  0.13714877580E+04  0.00000000000E+00 0. -1.
         24    2    1    2    0    0  0.53875809414E+03  0.34955258173E+03 -0.21570526359E+03  0.68211830673E+03  0.79431305198E+02 0.  0.
        254    2    1    2    0    0 -0.53875809414E+03 -0.34955258173E+03 -0.59094255098E+03  0.12542093947E+04  0.90076679326E+03 0.  0.
         23    2    4    4    0    0 -0.16718699975E+03 -0.72791807852E+01 -0.70265542570E+03  0.72824266003E+03  0.92780629740E+02 0.  0.
         23    2    4    4    0    0 -0.37157109438E+03 -0.34227340095E+03  0.11171287473E+03  0.52596673469E+03  0.94578435388E+02 0.  0.
          2    1    3    3  502    0  0.50061542046E+02  0.55858715406E+02 -0.42595984455E+02  0.86259909405E+02  0.00000000000E+00 0. -1.
         -1    1    3    3    0  502  0.48869655209E+03  0.29369386633E+03 -0.17310927913E+03  0.59585839733E+03  0.00000000000E+00 0.  1.
         11    1    5    5    0    0 -0.82527837480E+02 -0.49904778022E+02 -0.36707749474E+03  0.37953552927E+03  0.00000000000E+00 0. -1.
        -11    1    5    5    0    0 -0.84659162273E+02  0.42625597237E+02 -0.33557793096E+03  0.34870713076E+03  0.00000000000E+00 0.  1.
          2    1    6    6  503    0 -0.16324344427E+03 -0.21072985306E+03  0.74606811441E+02  0.27680619462E+03  0.00000000000E+00 0.  1.
         -2    1    6    6    0  503 -0.20832765012E+03 -0.13154354789E+03  0.37106063285E+02  0.24916054007E+03  0.00000000000E+00 0. -1.
<mgrwt>
<rscale>  0 0.17603080E+04</rscale>
<asrwt>0</asrwt>
<pdfrwt beam="1">  1        2 0.21099811E+00 0.17603080E+04</pdfrwt>
<pdfrwt beam="2">  1       -1 0.86898454E-01 0.17603080E+04</pdfrwt>
<totfact> 0.21164553E+01</totfact>
</mgrwt>
</event>
<event>
12    6  0.1395358E-007  0.2032504E+04  0.7818608E-02  0.8591573E-01
         -1   -1    0    0    0  501 -0.00000000000E+00  0.00000000000E+00  0.50947994646E+03  0.50947994646E+03  0.00000000000E+00 0.  1.
          2   -1    0    0  501    0  0.00000000000E+00 -0.00000000000E+00 -0.20271028422E+04  0.20271028422E+04  0.00000000000E+00 0. -1.
         24    2    1    2    0    0 -0.31623331410E+03 -0.74921640856E+03 -0.69320774803E+03  0.10698140514E+04  0.51345757043E+02 0.  0.
        254    2    1    2    0    0  0.31623331410E+03  0.74921640856E+03 -0.82441514769E+03  0.14667687373E+04  0.90023411238E+03 0.  0.
         23    2    4    4    0    0  0.47184811720E+03  0.16794874926E+03 -0.66456272099E+03  0.83760396856E+03  0.95338187143E+02 0.  0.
         23    2    4    4    0    0 -0.15561480310E+03  0.58126765930E+03 -0.15985242669E+03  0.62916476871E+03  0.90594973265E+02 0.  0.
          4    1    3    3  502    0 -0.26470587284E+03 -0.57782788122E+03 -0.55277400341E+03  0.84232615909E+03  0.00000000000E+00 0. -1.
         -1    1    3    3    0  502 -0.51527441264E+02 -0.17138852733E+03 -0.14043374462E+03  0.22748789227E+03  0.00000000000E+00 0.  1.
         11    1    5    5    0    0  0.23981480857E+03  0.46234864081E+02 -0.27118576505E+03  0.36495276987E+03  0.00000000000E+00 0.  1.
        -11    1    5    5    0    0  0.23203330863E+03  0.12171388518E+03 -0.39337695594E+03  0.47265119869E+03  0.00000000000E+00 0. -1.
          2    1    6    6  503    0 -0.13722830635E+01  0.11811163276E+03 -0.10115283829E+02  0.11855192922E+03  0.00000000000E+00 0. -1.
         -2    1    6    6    0  503 -0.15424252003E+03  0.46315602653E+03 -0.14973714287E+03  0.51061283949E+03  0.00000000000E+00 0.  1.
<mgrwt>
<rscale>  0 0.20325041E+04</rscale>
<asrwt>0</asrwt>
<pdfrwt beam="1">  1        2 0.31186198E+00 0.20325041E+04</pdfrwt>
<pdfrwt beam="2">  1       -1 0.78381529E-01 0.20325041E+04</pdfrwt>
<totfact> 0.11090328E+01</totfact>
</mgrwt>
</event>
<event>
12    6  0.1395358E-007  0.2695016E+04  0.7818608E-02  0.8336624E-01
          2   -1    0    0  501    0  0.00000000000E+00  0.00000000000E+00  0.13228234414E+04  0.13228234414E+04  0.00000000000E+00 0. -1.
         -1   -1    0    0    0  501 -0.00000000000E+00 -0.00000000000E+00 -0.13726529045E+04  0.13726529045E+04  0.00000000000E+00 0.  1.
         24    2    1    2    0    0 -0.11469917132E+04 -0.30077359904E+03 -0.17302333470E+03  0.12011716696E+04  0.82592720961E+02 0.  0.
        254    2    1    2    0    0  0.11469917132E+04  0.30077359904E+03  0.12319387161E+03  0.14943046763E+04  0.90095226715E+03 0.  0.
         23    2    4    4    0    0  0.68556191379E+03  0.60667557835E+03  0.85114764228E+00  0.91986910475E+03  0.90044713405E+02 0.  0.
         23    2    4    4    0    0  0.46142979942E+03 -0.30590197932E+03  0.12234272397E+03  0.57443557159E+03  0.92276774216E+02 0.  0.
          4    1    3    3  502    0 -0.49120509741E+03 -0.90051466498E+02 -0.88914591843E+02  0.50724502854E+03  0.00000000000E+00 0. -1.
         -3    1    3    3    0  502 -0.65578661580E+03 -0.21072213254E+03 -0.84108742858E+02  0.69392664110E+03  0.00000000000E+00 0.  1.
         11    1    5    5    0    0  0.11685999229E+03  0.14225585232E+03 -0.21071634506E+02  0.18530245303E+03  0.00000000000E+00 0. -1.
        -11    1    5    5    0    0  0.56870192150E+03  0.46441972603E+03  0.21922782148E+02  0.73456665172E+03  0.00000000000E+00 0.  1.
          1    1    6    6  503    0  0.35894435319E+03 -0.20052446060E+03  0.63195188585E+02  0.41598646594E+03  0.00000000000E+00 0. -1.
         -1    1    6    6    0  503  0.10248544623E+03 -0.10537751871E+03  0.59147535384E+02  0.15844910565E+03  0.00000000000E+00 0.  1.
<mgrwt>
<rscale>  0 0.26950157E+04</rscale>
<asrwt>0</asrwt>
<pdfrwt beam="1">  1        2 0.20351130E+00 0.26950157E+04</pdfrwt>
<pdfrwt beam="2">  1       -1 0.21117737E+00 0.26950157E+04</pdfrwt>
<totfact> 0.20233367E+00</totfact>
</mgrwt>
</event>
<event>
12    6  0.1395358E-007  0.1361274E+04  0.7818608E-02  0.8982337E-01
         -1   -1    0    0    0  501 -0.00000000000E+00  0.00000000000E+00  0.16020250083E+03  0.16020250083E+03  0.00000000000E+00 0.  1.
          2   -1    0    0  501    0  0.00000000000E+00 -0.00000000000E+00 -0.28917583905E+04  0.28917583905E+04  0.00000000000E+00 0. -1.
         24    2    1    2    0    0  0.48187478650E+02 -0.37562424345E+03 -0.74929760566E+03  0.84336348302E+03  0.79996607863E+02 0.  0.
        254    2    1    2    0    0 -0.48187478650E+02  0.37562424345E+03 -0.19822582841E+04  0.22085974083E+04  0.89729538174E+03 0.  0.
         23    2    4    4    0    0  0.26249176699E+03  0.23676828753E+03 -0.25564201907E+03  0.44649344813E+03  0.95091574774E+02 0.  0.
         23    2    4    4    0    0 -0.31067924564E+03  0.13885595592E+03 -0.17266162650E+04  0.17621039602E+04  0.89465467858E+02 0.  0.
          4    1    3    3  502    0  0.25665567783E+02 -0.35581950394E+03 -0.69991333276E+03  0.78558571406E+03  0.00000000000E+00 0. -1.
         -3    1    3    3    0  502  0.22521910866E+02 -0.19804739519E+02 -0.49384272898E+02  0.57777768961E+02  0.00000000000E+00 0.  1.
         11    1    5    5    0    0  0.79361187149E+02  0.57611286379E+02 -0.12511074370E+03  0.15896526832E+03  0.00000000000E+00 0.  1.
        -11    1    5    5    0    0  0.18313057984E+03  0.17915700115E+03 -0.13053127537E+03  0.28752817981E+03  0.00000000000E+00 0. -1.
          3    1    6    6  503    0 -0.18451683254E+03  0.12118679634E+03 -0.12130400099E+04  0.12329634085E+04  0.00000000000E+00 0. -1.
         -3    1    6    6    0  503 -0.12616241309E+03  0.17669159583E+02 -0.51357625511E+03  0.52914055174E+03  0.00000000000E+00 0.  1.
<mgrwt>
<rscale>  0 0.13612743E+04</rscale>
<asrwt>0</asrwt>
<pdfrwt beam="1">  1        2 0.44488588E+00 0.13612743E+04</pdfrwt>
<pdfrwt beam="2">  1       -1 0.24646540E-01 0.13612743E+04</pdfrwt>
<totfact> 0.32706756E+01</totfact>
</mgrwt>
</event>
<event>
12    6  0.1395358E-007  0.2091421E+04  0.7818608E-02  0.8565032E-01
         -1   -1    0    0    0  501 -0.00000000000E+00  0.00000000000E+00  0.96626824008E+03  0.96626824008E+03  0.00000000000E+00 0.  1.
          2   -1    0    0  501    0  0.00000000000E+00 -0.00000000000E+00 -0.11316846125E+04  0.11316846125E+04  0.00000000000E+00 0. -1.
         24    2    1    2    0    0  0.76005960073E+03  0.62567659114E+02 -0.44597262419E+03  0.88730335820E+03  0.82524901250E+02 0.  0.
        254    2    1    2    0    0 -0.76005960073E+03 -0.62567659114E+02  0.28055625172E+03  0.12106494944E+04  0.89741577841E+03 0.  0.
         23    2    4    4    0    0 -0.50267478030E+03  0.37303198924E+03  0.15423178624E+02  0.63279666979E+03  0.91427299615E+02 0.  0.
         23    2    4    4    0    0 -0.25738482043E+03 -0.43559964835E+03  0.26513307310E+03  0.57785282463E+03  0.87317472809E+02 0.  0.
          4    1    3    3  502    0  0.31337168192E+03  0.58881506422E+02 -0.21345592713E+03  0.38370858168E+03  0.00000000000E+00 0. -1.
         -3    1    3    3    0  502  0.44668791880E+03  0.36861526925E+01 -0.23251669706E+03  0.50359477652E+03  0.00000000000E+00 0.  1.
         11    1    5    5    0    0 -0.76634752189E+02  0.69137241082E+02 -0.30072437098E+02  0.10750439442E+03  0.00000000000E+00 0.  1.
        -11    1    5    5    0    0 -0.42604002811E+03  0.30389474815E+03  0.45495615723E+02  0.52529227537E+03  0.00000000000E+00 0. -1.
          2    1    6    6  503    0 -0.22416465254E+02 -0.10766229090E+03  0.53847001502E+02  0.12244658577E+03  0.00000000000E+00 0. -1.
         -2    1    6    6    0  503 -0.23496835517E+03 -0.32793735745E+03  0.21128607160E+03  0.45540623886E+03  0.00000000000E+00 0.  1.
<mgrwt>
<rscale>  0 0.20914214E+04</rscale>
<asrwt>0</asrwt>
<pdfrwt beam="1">  1        2 0.17410532E+00 0.20914214E+04</pdfrwt>
<pdfrwt beam="2">  1       -1 0.14865665E+00 0.20914214E+04</pdfrwt>
<totfact> 0.78305690E+00</totfact>
</mgrwt>
</event>
<event>
12    6  0.1395358E-007  0.2598101E+04  0.7818608E-02  0.8368846E-01
         -1   -1    0    0    0  501 -0.00000000000E+00  0.00000000000E+00  0.92673113951E+03  0.92673113951E+03  0.00000000000E+00 0.  1.
          2   -1    0    0  501    0  0.00000000000E+00 -0.00000000000E+00 -0.18209514462E+04  0.18209514462E+04  0.00000000000E+00 0. -1.
         24    2    1    2    0    0 -0.10985371532E+04 -0.16423006105E+03 -0.11481860239E+03  0.11195757500E+04  0.80691751344E+02 0.  0.
        254    2    1    2    0    0  0.10985371532E+04  0.16423006105E+03 -0.77940170432E+03  0.16281068357E+04  0.89972743762E+03 0.  0.
         23    2    4    4    0    0  0.61205172870E+03 -0.30793822839E+03 -0.61314354761E+03  0.92406384152E+03  0.92280561944E+02 0.  0.
         23    2    4    4    0    0  0.48648542445E+03  0.47216828945E+03 -0.16625815671E+03  0.70404299420E+03  0.91781268518E+02 0.  0.
          4    1    3    3  502    0 -0.67552564418E+02 -0.53165748310E+01 -0.26229542892E+02  0.72660882514E+02  0.00000000000E+00 0. -1.
         -3    1    3    3    0  502 -0.10309845887E+04 -0.15891348622E+03 -0.88589059495E+02  0.10469148675E+04  0.00000000000E+00 0.  1.
         11    1    5    5    0    0  0.58734657686E+03 -0.27127765550E+03 -0.56889341393E+03  0.86151452927E+03  0.00000000000E+00 0. -1.
        -11    1    5    5    0    0  0.24705151839E+02 -0.36660572895E+02 -0.44250133684E+02  0.62549312254E+02  0.00000000000E+00 0.  1.
          3    1    6    6  503    0  0.34736366276E+03  0.39074646131E+03 -0.12169160333E+03  0.53679899175E+03  0.00000000000E+00 0. -1.
         -3    1    6    6    0  503  0.13912176170E+03  0.81421828140E+02 -0.44566553381E+02  0.16724400245E+03  0.00000000000E+00 0.  1.
<mgrwt>
<rscale>  0 0.25981012E+04</rscale>
<asrwt>0</asrwt>
<pdfrwt beam="1">  1        2 0.28014637E+00 0.25981012E+04</pdfrwt>
<pdfrwt beam="2">  1       -1 0.14257402E+00 0.25981012E+04</pdfrwt>
<totfact> 0.33798241E+00</totfact>
</mgrwt>
</event>
<event>
12    6  0.1395358E-007  0.1753040E+04  0.7818608E-02  0.8731679E-01
          4   -1    0    0  501    0  0.00000000000E+00  0.00000000000E+00  0.20124754432E+04  0.20124754432E+04  0.00000000000E+00 0. -1.
         -1   -1    0    0    0  501 -0.00000000000E+00 -0.00000000000E+00 -0.38176217188E+03  0.38176217188E+03  0.00000000000E+00 0.  1.
         24    2    1    2    0    0 -0.19966292115E+03  0.42962360087E+03  0.93709560413E+01  0.48071235681E+03  0.80961933444E+02 0.  0.
        254    2    1    2    0    0  0.19966292115E+03 -0.42962360087E+03  0.16213423152E+04  0.19135252582E+04  0.89910304760E+03 0.  0.
         23    2    4    4    0    0 -0.39056829999E+02 -0.61734841921E+02 -0.88884780722E+02  0.14558572009E+03  0.89208020797E+02 0.  0.
         23    2    4    4    0    0  0.23871975115E+03 -0.36788875895E+03  0.17102270960E+04  0.17679395381E+04  0.91674599587E+02 0.  0.
          4    1    3    3  502    0 -0.18232760789E+03  0.33215172220E+03  0.28140590180E+02  0.37994738580E+03  0.00000000000E+00 0. -1.
         -3    1    3    3    0  502 -0.17335313256E+02  0.97471878670E+02 -0.18769634139E+02  0.10076497101E+03  0.00000000000E+00 0.  1.
         11    1    5    5    0    0 -0.44127330758E+02 -0.27892791856E+02 -0.20415238069E+01  0.52243630969E+02  0.00000000000E+00 0. -1.
        -11    1    5    5    0    0  0.50705007585E+01 -0.33842050064E+02 -0.86843256915E+02  0.93342089124E+02  0.00000000000E+00 0.  1.
          2    1    6    6  503    0  0.22931370838E+03 -0.29065813214E+03  0.14167195826E+04  0.14642954970E+04  0.00000000000E+00 0. -1.
         -2    1    6    6    0  503  0.94060427652E+01 -0.77230626811E+02  0.29350751333E+03  0.30364404117E+03  0.00000000000E+00 0.  1.
<mgrwt>
<rscale>  0 0.17530396E+04</rscale>
<asrwt>0</asrwt>
<pdfrwt beam="1">  1        4 0.30961160E+00 0.17530396E+04</pdfrwt>
<pdfrwt beam="2">  1       -1 0.58732643E-01 0.17530396E+04</pdfrwt>
<totfact> 0.30462052E-01</totfact>
</mgrwt>
</event>
<event>
12    6  0.1395358E-007  0.2111390E+04  0.7818608E-02  0.8556243E-01
         -3   -1    0    0    0  501 -0.00000000000E+00  0.00000000000E+00  0.64938363870E+03  0.64938363870E+03  0.00000000000E+00 0.  1.
          4   -1    0    0  501    0  0.00000000000E+00 -0.00000000000E+00 -0.17162303769E+04  0.17162303769E+04  0.00000000000E+00 0. -1.
         24    2    1    2    0    0  0.40251753366E+03 -0.14641664174E+03  0.39940233777E+03  0.59123187162E+03  0.81084528295E+02 0.  0.
        254    2    1    2    0    0 -0.40251753366E+03  0.14641664174E+03 -0.14662490760E+04  0.17743821440E+04  0.90282193274E+03 0.  0.
         23    2    4    4    0    0 -0.53563682194E+03  0.39204802906E+03 -0.12163425206E+04  0.13884617626E+04  0.87911754246E+02 0.  0.
         23    2    4    4    0    0  0.13311928828E+03 -0.24563138732E+03 -0.24990655539E+03  0.38592038145E+03  0.91791780924E+02 0.  0.
          4    1    3    3  502    0  0.69061758354E+02 -0.38282342615E+00  0.40674649653E+02  0.80150484372E+02  0.00000000000E+00 0. -1.
         -3    1    3    3    0  502  0.33345577531E+03 -0.14603381831E+03  0.35872768812E+03  0.51108138725E+03  0.00000000000E+00 0.  1.
         11    1    5    5    0    0 -0.33894048031E+03  0.19640656049E+03 -0.68773344823E+03  0.79147550942E+03  0.00000000000E+00 0. -1.
        -11    1    5    5    0    0 -0.19669634163E+03  0.19564146857E+03 -0.52860907240E+03  0.59698625316E+03  0.00000000000E+00 0.  1.
          2    1    6    6  503    0  0.34740293460E+01 -0.87808702107E+02 -0.55438479293E+02  0.10390313774E+03  0.00000000000E+00 0.  1.
         -2    1    6    6    0  503  0.12964525893E+03 -0.15782268522E+03 -0.19446807609E+03  0.28201724371E+03  0.00000000000E+00 0. -1.
<mgrwt>
<rscale>  0 0.21113900E+04</rscale>
<asrwt>0</asrwt>
<pdfrwt beam="1">  1        4 0.26403544E+00 0.21113900E+04</pdfrwt>
<pdfrwt beam="2">  1       -3 0.99905176E-01 0.21113900E+04</pdfrwt>
<totfact> 0.95031296E-02</totfact>
</mgrwt>
</event>
<event>
12    6  0.1395358E-007  0.2194766E+04  0.7818608E-02  0.8520610E-01
          2   -1    0    0  501    0  0.00000000000E+00  0.00000000000E+00  0.15166420188E+04  0.15166420188E+04  0.00000000000E+00 0. -1.
         -1   -1    0    0    0  501 -0.00000000000E+00 -0.00000000000E+00 -0.79402352944E+03  0.79402352944E+03  0.00000000000E+00 0.  1.
         24    2    1    2    0    0  0.90915135027E+03  0.52905121477E+02  0.32341513961E+03  0.96971046468E+03  0.79911846444E+02 0.  0.
        254    2    1    2    0    0 -0.90915135027E+03 -0.52905121477E+02  0.39920334976E+03  0.13409550836E+04  0.89968999778E+03 0.  0.
         23    2    4    4    0    0 -0.82962623106E+03  0.30844903626E+03  0.19978195046E+03  0.91222498358E+03  0.93920720259E+02 0.  0.
         23    2    4    4    0    0 -0.79525119210E+02 -0.36135415773E+03  0.19942139930E+03  0.42873010000E+03  0.84495752816E+02 0.  0.
          2    1    3    3  502    0  0.43239869920E+03  0.49175893557E+02  0.18822168201E+03  0.47414586907E+03  0.00000000000E+00 0. -1.
         -1    1    3    3    0  502  0.47675265107E+03  0.37292279198E+01  0.13519345760E+03  0.49556459561E+03  0.00000000000E+00 0.  1.
         11    1    5    5    0    0 -0.45146167119E+03  0.16980563739E+03  0.15666939892E+03  0.50714583268E+03  0.00000000000E+00 0.  1.
        -11    1    5    5    0    0 -0.37816455987E+03  0.13864339887E+03  0.43112551543E+02  0.40507915090E+03  0.00000000000E+00 0. -1.
          2    1    6    6  503    0 -0.44364881065E+02 -0.57249720334E+02  0.50529024685E+02  0.88311695068E+02  0.00000000000E+00 0. -1.
         -2    1    6    6    0  503 -0.35160238145E+02 -0.30410443740E+03  0.14889237462E+03  0.34041840493E+03  0.00000000000E+00 0.  1.
<mgrwt>
<rscale>  0 0.21947660E+04</rscale>
<asrwt>0</asrwt>
<pdfrwt beam="1">  1        2 0.23332954E+00 0.21947660E+04</pdfrwt>
<pdfrwt beam="2">  1       -1 0.12215747E+00 0.21947660E+04</pdfrwt>
<totfact> 0.76673511E+00</totfact>
</mgrwt>
</event>
<event>
12    6  0.1395358E-007  0.1731957E+04  0.7818608E-02  0.8743345E-01
          2   -1    0    0  501    0  0.00000000000E+00  0.00000000000E+00  0.21297682264E+04  0.21297682264E+04  0.00000000000E+00 0. -1.
         -1   -1    0    0    0  501 -0.00000000000E+00 -0.00000000000E+00 -0.35211290678E+03  0.35211290678E+03  0.00000000000E+00 0.  1.
         24    2    1    2    0    0 -0.33680492333E+03  0.52865950920E+03  0.68437804368E+03  0.93164854882E+03  0.81714618066E+02 0.  0.
        254    2    1    2    0    0  0.33680492333E+03 -0.52865950920E+03  0.10932772759E+04  0.15502325843E+04  0.90279977319E+03 0.  0.
         23    2    4    4    0    0  0.49696638002E+03 -0.46235514475E+03  0.11569731611E+04  0.13444183439E+04  0.90143913335E+02 0.  0.
         23    2    4    4    0    0 -0.16016145670E+03 -0.66304364446E+02 -0.63695885197E+02  0.20581424045E+03  0.90853590044E+02 0.  0.
          4    1    3    3  502    0 -0.12778657444E+03  0.27575033592E+03  0.32033318573E+03  0.44156653660E+03  0.00000000000E+00 0. -1.
         -3    1    3    3    0  502 -0.20901834889E+03  0.25290917328E+03  0.36404485795E+03  0.49008201221E+03  0.00000000000E+00 0.  1.
         11    1    5    5    0    0  0.44345329987E+03 -0.43464781961E+03  0.10889037437E+04  0.12535074469E+04  0.00000000000E+00 0. -1.
        -11    1    5    5    0    0  0.53513080157E+02 -0.27707325143E+02  0.68069417377E+02  0.90910897017E+02  0.00000000000E+00 0.  1.
          3    1    6    6  503    0 -0.44056937095E+02 -0.46792561717E+02 -0.60153391255E+02  0.88028336447E+02  0.00000000000E+00 0. -1.
         -3    1    6    6    0  503 -0.11610451960E+03 -0.19511802730E+02 -0.35424939428E+01  0.11778590400E+03  0.00000000000E+00 0.  1.
<mgrwt>
<rscale>  0 0.17319571E+04</rscale>
<asrwt>0</asrwt>
<pdfrwt beam="1">  1        2 0.32765664E+00 0.17319571E+04</pdfrwt>
<pdfrwt beam="2">  1       -1 0.54171218E-01 0.17319571E+04</pdfrwt>
<totfact> 0.21038926E+01</totfact>
</mgrwt>
</event>
<event>
12    6  0.1395358E-007  0.4516114E+04  0.7818608E-02  0.7907822E-01
         -1   -1    0    0    0  501 -0.00000000000E+00  0.00000000000E+00  0.24120859227E+04  0.24120859227E+04  0.00000000000E+00 0.  1.
          2   -1    0    0  501    0  0.00000000000E+00 -0.00000000000E+00 -0.21138637664E+04  0.21138637664E+04  0.00000000000E+00 0. -1.
         24    2    1    2    0    0 -0.68696759515E+02 -0.94484596448E+03  0.20966393890E+04  0.23021012819E+04  0.79501214452E+02 0.  0.
        254    2    1    2    0    0  0.68696759515E+02  0.94484596448E+03 -0.17984172328E+04  0.22238484072E+04  0.90207763173E+03 0.  0.
         23    2    4    4    0    0  0.31281751961E+03  0.79699502704E+03 -0.17042112100E+04  0.19093055385E+04  0.89754761899E+02 0.  0.
         23    2    4    4    0    0 -0.24412076010E+03  0.14785093743E+03 -0.94206022735E+02  0.31454286867E+03  0.92777132428E+02 0.  0.
          2    1    3    3  502    0 -0.46915341085E+02 -0.59573488729E+03  0.12280896071E+04  0.13657617611E+04  0.00000000000E+00 0. -1.
         -1    1    3    3    0  502 -0.21781418430E+02 -0.34911107719E+03  0.86854978196E+03  0.93633952076E+03  0.00000000000E+00 0.  1.
         11    1    5    5    0    0  0.24828182167E+03  0.51861323927E+03 -0.11541227746E+04  0.12894196112E+04  0.00000000000E+00 0. -1.
        -11    1    5    5    0    0  0.64535697943E+02  0.27838178778E+03 -0.55008843547E+03  0.61988592734E+03  0.00000000000E+00 0.  1.
          4    1    6    6  503    0 -0.13734077774E+03  0.37516009101E+02 -0.71536919327E+02  0.15933446268E+03  0.00000000000E+00 0. -1.
         -4    1    6    6    0  503 -0.10677998236E+03  0.11033492833E+03 -0.22669103408E+02  0.15520840599E+03  0.00000000000E+00 0.  1.
<mgrwt>
<rscale>  0 0.45161138E+04</rscale>
<asrwt>0</asrwt>
<pdfrwt beam="1">  1        2 0.32520981E+00 0.45161138E+04</pdfrwt>
<pdfrwt beam="2">  1       -1 0.37109014E+00 0.45161138E+04</pdfrwt>
<totfact> 0.55837317E-02</totfact>
</mgrwt>
</event>
<event>
12    6  0.1395358E-007  0.3595057E+04  0.7818608E-02  0.8091625E-01
          2   -1    0    0  501    0  0.00000000000E+00  0.00000000000E+00  0.25477163562E+04  0.25477163562E+04  0.00000000000E+00 0. -1.
         -3   -1    0    0    0  501 -0.00000000000E+00 -0.00000000000E+00 -0.12682373329E+04  0.12682373329E+04  0.00000000000E+00 0.  1.
         24    2    1    2    0    0  0.38639334443E+03 -0.14968442047E+04 -0.10832004161E+03  0.15518012309E+04  0.80693487462E+02 0.  0.
        254    2    1    2    0    0 -0.38639334443E+03  0.14968442047E+04  0.13877990649E+04  0.22641524581E+04  0.90030979074E+03 0.  0.
         23    2    4    4    0    0  0.26580113737E+03  0.68046117163E+03  0.64556469865E+03  0.97923112533E+03  0.91990031835E+02 0.  0.
         23    2    4    4    0    0 -0.65219448180E+03  0.81638303311E+03  0.74223436625E+03  0.12849213328E+04  0.90950966140E+02 0.  0.
          4    1    3    3  502    0  0.10253770902E+03 -0.55211080266E+03 -0.36822037953E+02  0.56275765892E+03  0.00000000000E+00 0. -1.
         -3    1    3    3    0  502  0.28385563541E+03 -0.94473340207E+03 -0.71498003653E+02  0.98904357198E+03  0.00000000000E+00 0.  1.
         11    1    5    5    0    0  0.16742020580E+03  0.43010629182E+03  0.34749495600E+03  0.57773150513E+03  0.00000000000E+00 0. -1.
        -11    1    5    5    0    0  0.98380931564E+02  0.25035487981E+03  0.29806974265E+03  0.40149962020E+03  0.00000000000E+00 0.  1.
          2    1    6    6  503    0 -0.19239886508E+03  0.21725016791E+03  0.16055558013E+03  0.33165200595E+03  0.00000000000E+00 0.  1.
         -2    1    6    6    0  503 -0.45979561672E+03  0.59913286520E+03  0.58167878612E+03  0.95326932686E+03  0.00000000000E+00 0. -1.
<mgrwt>
<rscale>  0 0.35950572E+04</rscale>
<asrwt>0</asrwt>
<pdfrwt beam="1">  1        2 0.39195636E+00 0.35950572E+04</pdfrwt>
<pdfrwt beam="2">  1       -3 0.19511344E+00 0.35950572E+04</pdfrwt>
<totfact> 0.26543743E-01</totfact>
</mgrwt>
</event>
<event>
12    6  0.1395358E-007  0.2058436E+04  0.7818608E-02  0.8579777E-01
          2   -1    0    0  501    0  0.00000000000E+00  0.00000000000E+00  0.10085436271E+04  0.10085436271E+04  0.00000000000E+00 0. -1.
         -1   -1    0    0    0  501 -0.00000000000E+00 -0.00000000000E+00 -0.10503161509E+04  0.10503161509E+04  0.00000000000E+00 0.  1.
         24    2    1    2    0    0 -0.12533953111E+03  0.17176464058E+03 -0.81709559031E+03  0.84809181786E+03  0.80008987010E+02 0.  0.
        254    2    1    2    0    0  0.12533953111E+03 -0.17176464058E+03  0.77532306648E+03  0.12107679602E+04  0.90532872825E+03 0.  0.
         23    2    4    4    0    0  0.17232215384E+02  0.33745057010E+03  0.51234992339E+03  0.62026428936E+03  0.89752482665E+02 0.  0.
         23    2    4    4    0    0  0.10810731573E+03 -0.50921521068E+03  0.26297314309E+03  0.59050367084E+03  0.92479126206E+02 0.  0.
          2    1    3    3  502    0 -0.62298135721E+02  0.27602559120E+02 -0.29703791370E+03  0.30475314790E+03  0.00000000000E+00 0. -1.
         -1    1    3    3    0  502 -0.63041395393E+02  0.14416208146E+03 -0.52005767662E+03  0.54333866996E+03  0.00000000000E+00 0.  1.
         11    1    5    5    0    0  0.34945884002E+02  0.28358331599E+03  0.37332252875E+03  0.47011745595E+03  0.00000000000E+00 0.  1.
        -11    1    5    5    0    0 -0.17713668617E+02  0.53867254108E+02  0.13902739464E+03  0.15014683341E+03  0.00000000000E+00 0. -1.
          1    1    6    6  503    0  0.62127103795E+02 -0.23949499650E+03  0.74982609181E+02  0.25853437306E+03  0.00000000000E+00 0. -1.
         -1    1    6    6    0  503  0.45980211935E+02 -0.26972021418E+03  0.18799053391E+03  0.33196929777E+03  0.00000000000E+00 0.  1.
<mgrwt>
<rscale>  0 0.20584360E+04</rscale>
<asrwt>0</asrwt>
<pdfrwt beam="1">  1        2 0.15516056E+00 0.20584360E+04</pdfrwt>
<pdfrwt beam="2">  1       -1 0.16158710E+00 0.20584360E+04</pdfrwt>
<totfact> 0.74573939E+00</totfact>
</mgrwt>
</event>
<event>
12    6  0.1395358E-007  0.2037074E+04  0.7818608E-02  0.8589481E-01
         -1   -1    0    0    0  501 -0.00000000000E+00  0.00000000000E+00  0.61744556688E+03  0.61744556688E+03  0.00000000000E+00 0.  1.
          2   -1    0    0  501    0  0.00000000000E+00 -0.00000000000E+00 -0.16801762460E+04  0.16801762460E+04  0.00000000000E+00 0. -1.
         24    2    1    2    0    0 -0.64771939089E+03  0.26168121448E+03 -0.90707559764E+03  0.11477254724E+04  0.80437259662E+02 0.  0.
        254    2    1    2    0    0  0.64771939089E+03 -0.26168121448E+03 -0.15565508149E+03  0.11498963405E+04  0.90000867896E+03 0.  0.
         23    2    4    4    0    0 -0.17096157458E+03  0.35288048140E+01  0.13526078814E+03  0.23667165289E+03  0.92074307096E+02 0.  0.
         23    2    4    4    0    0  0.81868096547E+03 -0.26521001929E+03 -0.29091586963E+03  0.91322468764E+03  0.93661141141E+02 0.  0.
          2    1    3    3  502    0 -0.39830759146E+03  0.12337966834E+03 -0.50793238551E+03  0.65716572356E+03  0.00000000000E+00 0. -1.
         -1    1    3    3    0  502 -0.24941179943E+03  0.13830154614E+03 -0.39914321213E+03  0.49055974880E+03  0.00000000000E+00 0.  1.
         11    1    5    5    0    0 -0.31690494508E+01  0.21469844624E+02  0.32552472673E+02  0.39123657546E+02  0.00000000000E+00 0.  1.
        -11    1    5    5    0    0 -0.16779252513E+03 -0.17941039810E+02  0.10270831546E+03  0.19754799534E+03  0.00000000000E+00 0. -1.
          4    1    6    6  503    0  0.51606520376E+03 -0.11928553659E+03 -0.18061664900E+03  0.55962014587E+03  0.00000000000E+00 0. -1.
         -4    1    6    6    0  503  0.30261576171E+03 -0.14592448270E+03 -0.11029922062E+03  0.35360454177E+03  0.00000000000E+00 0.  1.
<mgrwt>
<rscale>  0 0.20370738E+04</rscale>
<asrwt>0</asrwt>
<pdfrwt beam="1">  1        2 0.25848865E+00 0.20370738E+04</pdfrwt>
<pdfrwt beam="2">  1       -1 0.94991627E-01 0.20370738E+04</pdfrwt>
<totfact> 0.11365477E+01</totfact>
</mgrwt>
</event>
<event>
12    6  0.1395358E-007  0.3455584E+04  0.7818608E-02  0.8124397E-01
          2   -1    0    0  501    0  0.00000000000E+00  0.00000000000E+00  0.24862442395E+04  0.24862442395E+04  0.00000000000E+00 0. -1.
         -1   -1    0    0    0  501 -0.00000000000E+00 -0.00000000000E+00 -0.12007129904E+04  0.12007129904E+04  0.00000000000E+00 0.  1.
         24    2    1    2    0    0  0.11502564346E+04 -0.11200950139E+04  0.47067605966E+03  0.16750332756E+04  0.80609028954E+02 0.  0.
        254    2    1    2    0    0 -0.11502564346E+04  0.11200950139E+04  0.81485518942E+03  0.20119239543E+04  0.89785651005E+03 0.  0.
         23    2    4    4    0    0 -0.90329982106E+03  0.75156555554E+03  0.12309429384E+03  0.11850513551E+04  0.91614180898E+02 0.  0.
         23    2    4    4    0    0 -0.24695661359E+03  0.36852945836E+03  0.69176089558E+03  0.82687259918E+03  0.91562153467E+02 0.  0.
          4    1    3    3  502    0  0.28561866812E+03 -0.31074911840E+03  0.15164176865E+03  0.44848440794E+03  0.00000000000E+00 0. -1.
         -3    1    3    3    0  502  0.86463776653E+03 -0.80934589550E+03  0.31903429101E+03  0.12265488676E+04  0.00000000000E+00 0.  1.
         11    1    5    5    0    0 -0.46138622722E+03  0.33307285973E+03  0.83493054492E+02  0.57513987056E+03  0.00000000000E+00 0. -1.
        -11    1    5    5    0    0 -0.44191359384E+03  0.41849269581E+03  0.39601239346E+02  0.60991148458E+03  0.00000000000E+00 0.  1.
          4    1    6    6  503    0 -0.19443992510E+03  0.33134356493E+03  0.54679608752E+03  0.66826746428E+03  0.00000000000E+00 0. -1.
         -4    1    6    6    0  503 -0.52516688485E+02  0.37185893437E+02  0.14496480807E+03  0.15860513490E+03  0.00000000000E+00 0.  1.
<mgrwt>
<rscale>  0 0.34555843E+04</rscale>
<asrwt>0</asrwt>
<pdfrwt beam="1">  1        2 0.38249911E+00 0.34555843E+04</pdfrwt>
<pdfrwt beam="2">  1       -1 0.18472508E+00 0.34555843E+04</pdfrwt>
<totfact> 0.63971370E-01</totfact>
</mgrwt>
</event>
<event>
12    6  0.1395358E-007  0.2222591E+04  0.7818608E-02  0.8509084E-01
         -1   -1    0    0    0  501 -0.00000000000E+00  0.00000000000E+00  0.82571595750E+03  0.82571595750E+03  0.00000000000E+00 0.  1.
          2   -1    0    0  501    0  0.00000000000E+00 -0.00000000000E+00 -0.14956452255E+04  0.14956452255E+04  0.00000000000E+00 0. -1.
         24    2    1    2    0    0  0.85045688499E+03  0.35743744228E+03 -0.37797631600E+03  0.10002522170E+04  0.81240161365E+02 0.  0.
        254    2    1    2    0    0 -0.85045688499E+03 -0.35743744228E+03 -0.29195295199E+03  0.13211089660E+04  0.89947425499E+03 0.  0.
         23    2    4    4    0    0 -0.81450574569E+02 -0.15263897392E+02 -0.44399925261E+03  0.46097615308E+03  0.92176432613E+02 0.  0.
         23    2    4    4    0    0 -0.76900631042E+03 -0.34217354489E+03  0.15204630062E+03  0.86013281288E+03  0.90867694849E+02 0.  0.
          4    1    3    3  502    0  0.42974262063E+03  0.22119869126E+03 -0.18039674584E+03  0.51589782604E+03  0.00000000000E+00 0. -1.
         -3    1    3    3    0  502  0.42071426436E+03  0.13623875102E+03 -0.19757957016E+03  0.48435439098E+03  0.00000000000E+00 0.  1.
         11    1    5    5    0    0 -0.85693925119E+02  0.20277309502E+02 -0.32377816485E+03  0.33553974148E+03  0.00000000000E+00 0. -1.
        -11    1    5    5    0    0  0.42433505500E+01 -0.35541206894E+02 -0.12022108776E+03  0.12543641160E+03  0.00000000000E+00 0.  1.
          3    1    6    6  503    0 -0.22904458882E+03 -0.14798378207E+03  0.54404637705E+02  0.27806561821E+03  0.00000000000E+00 0. -1.
         -3    1    6    6    0  503 -0.53996172160E+03 -0.19418976282E+03  0.97641662918E+02  0.58206719467E+03  0.00000000000E+00 0.  1.
<mgrwt>
<rscale>  0 0.22225914E+04</rscale>
<asrwt>0</asrwt>
<pdfrwt beam="1">  1        2 0.23009926E+00 0.22225914E+04</pdfrwt>
<pdfrwt beam="2">  1       -1 0.12703322E+00 0.22225914E+04</pdfrwt>
<totfact> 0.71320953E+00</totfact>
</mgrwt>
</event>
<event>
12    6  0.1395358E-007  0.3157209E+04  0.7818608E-02  0.8200210E-01
          2   -1    0    0  501    0  0.00000000000E+00  0.00000000000E+00  0.35743298800E+04  0.35743298800E+04  0.00000000000E+00 0. -1.
         -1   -1    0    0    0  501 -0.00000000000E+00 -0.00000000000E+00 -0.69719160315E+03  0.69719160315E+03  0.00000000000E+00 0.  1.
         24    2    1    2    0    0 -0.57937635628E+03 -0.11181265209E+04  0.35199953275E+03  0.13092607955E+04  0.66153463397E+02 0.  0.
        254    2    1    2    0    0  0.57937635628E+03  0.11181265209E+04  0.25251387441E+04  0.29622606876E+04  0.90154247015E+03 0.  0.
         23    2    4    4    0    0  0.31609431419E+03  0.11608860941E+04  0.23162553882E+04  0.26116833415E+04  0.90987437257E+02 0.  0.
         23    2    4    4    0    0  0.26328204208E+03 -0.42759573193E+02  0.20888335585E+03  0.35057734612E+03  0.90146572190E+02 0.  0.
          4    1    3    3  502    0 -0.24247743094E+03 -0.40938903057E+03  0.11484901027E+03  0.48947418525E+03  0.00000000000E+00 0. -1.
         -3    1    3    3    0  502 -0.33689892534E+03 -0.70873749033E+03  0.23715052247E+03  0.81978661028E+03  0.00000000000E+00 0.  1.
         11    1    5    5    0    0  0.20958176355E+03  0.59982534218E+03  0.12381767653E+04  0.13916884201E+04  0.00000000000E+00 0. -1.
        -11    1    5    5    0    0  0.10651255065E+03  0.56106075191E+03  0.10780786230E+04  0.12199949213E+04  0.00000000000E+00 0.  1.
          4    1    6    6  503    0  0.84944154098E+02  0.23554080332E+02  0.91295438573E+02  0.12690611144E+03  0.00000000000E+00 0.  1.
         -4    1    6    6    0  503  0.17833788798E+03 -0.66313653525E+02  0.11758791728E+03  0.22367123468E+03  0.00000000000E+00 0. -1.
<mgrwt>
<rscale>  0 0.31572094E+04</rscale>
<asrwt>0</asrwt>
<pdfrwt beam="1">  1        2 0.54989689E+00 0.31572094E+04</pdfrwt>
<pdfrwt beam="2">  1       -1 0.10726025E+00 0.31572094E+04</pdfrwt>
<totfact> 0.55917264E-01</totfact>
</mgrwt>
</event>
<event>
12    6  0.1395358E-007  0.1441790E+04  0.7818608E-02  0.8924112E-01
         -1   -1    0    0    0  501 -0.00000000000E+00  0.00000000000E+00  0.45154411489E+03  0.45154411489E+03  0.00000000000E+00 0.  1.
          2   -1    0    0  501    0  0.00000000000E+00 -0.00000000000E+00 -0.11509166701E+04  0.11509166701E+04  0.00000000000E+00 0. -1.
         24    2    1    2    0    0  0.12048576901E+03 -0.34809540736E+03 -0.49252355844E+03  0.62020610844E+03  0.79930771165E+02 0.  0.
        254    2    1    2    0    0 -0.12048576901E+03  0.34809540736E+03 -0.20684899682E+03  0.98225467660E+03  0.88676406617E+03 0.  0.
         23    2    4    4    0    0  0.88146331802E+02  0.50143784141E+03 -0.39424508920E+03  0.65038535069E+03  0.91445226378E+02 0.  0.
         23    2    4    4    0    0 -0.20863210081E+03 -0.15334243405E+03  0.18739609239E+03  0.33186932590E+03  0.89323560514E+02 0.  0.
          2    1    3    3  502    0  0.13867629910E+02 -0.37498885636E+02 -0.10443245013E+03  0.11182403241E+03  0.00000000000E+00 0. -1.
         -1    1    3    3    0  502  0.10661813910E+03 -0.31059652172E+03 -0.38809110831E+03  0.50838207604E+03  0.00000000000E+00 0.  1.
         11    1    5    5    0    0  0.80739837939E+02  0.22695191835E+03 -0.21138500694E+03  0.32048356562E+03  0.00000000000E+00 0. -1.
        -11    1    5    5    0    0  0.74064938623E+01  0.27448592306E+03 -0.18286008227E+03  0.32990178508E+03  0.00000000000E+00 0.  1.
          1    1    6    6  503    0 -0.10941691231E+03 -0.79614845294E+02  0.15154337111E+03  0.20316490253E+03  0.00000000000E+00 0. -1.
         -1    1    6    6    0  503 -0.99215188504E+02 -0.73727588759E+02  0.35852721275E+02  0.12870442338E+03  0.00000000000E+00 0.  1.
<mgrwt>
<rscale>  0 0.14417901E+04</rscale>
<asrwt>0</asrwt>
<pdfrwt beam="1">  1        2 0.17706410E+00 0.14417901E+04</pdfrwt>
<pdfrwt beam="2">  1       -1 0.69468326E-01 0.14417901E+04</pdfrwt>
<totfact> 0.47029293E+01</totfact>
</mgrwt>
</event>
<event>
12    6  0.1395358E-007  0.4045820E+04  0.7818608E-02  0.7995367E-01
         -1   -1    0    0    0  501 -0.00000000000E+00  0.00000000000E+00  0.17448972000E+04  0.17448972000E+04  0.00000000000E+00 0.  1.
          2   -1    0    0  501    0  0.00000000000E+00 -0.00000000000E+00 -0.23452179225E+04  0.23452179225E+04  0.00000000000E+00 0. -1.
         24    2    1    2    0    0 -0.12064780157E+04 -0.14954218130E+04 -0.33281102234E+03  0.19512788469E+04  0.69644531304E+02 0.  0.
        254    2    1    2    0    0  0.12064780157E+04  0.14954218130E+04 -0.26750970024E+03  0.21388362756E+04  0.90065730060E+03 0.  0.
         23    2    4    4    0    0  0.10677784816E+04  0.71446500686E+03  0.26763731188E+02  0.12881484255E+04  0.89436776373E+02 0.  0.
         23    2    4    4    0    0  0.13869953412E+03  0.78095680609E+03 -0.29427343142E+03  0.85068785014E+03  0.89117182380E+02 0.  0.
          4    1    3    3  502    0 -0.31434338529E+03 -0.34990260803E+03 -0.98271617989E+02  0.48052149784E+03  0.00000000000E+00 0. -1.
         -3    1    3    3    0  502 -0.89213463040E+03 -0.11455192049E+04 -0.23453940435E+03  0.14707573491E+04  0.00000000000E+00 0.  1.
         11    1    5    5    0    0  0.59083157471E+03  0.41321082061E+03  0.56841833455E+02  0.72322619281E+03  0.00000000000E+00 0. -1.
        -11    1    5    5    0    0  0.47694690687E+03  0.30125418625E+03 -0.30078102267E+02  0.56492223265E+03  0.00000000000E+00 0.  1.
          3    1    6    6  503    0  0.79067107752E+02  0.38342287869E+03 -0.19128396695E+03  0.43572269558E+03  0.00000000000E+00 0. -1.
         -3    1    6    6    0  503  0.59632426363E+02  0.39753392740E+03 -0.10298946447E+03  0.41496515456E+03  0.00000000000E+00 0.  1.
<mgrwt>
<rscale>  0 0.40458197E+04</rscale>
<asrwt>0</asrwt>
<pdfrwt beam="1">  1        2 0.36080276E+00 0.40458197E+04</pdfrwt>
<pdfrwt beam="2">  1       -1 0.26844572E+00 0.40458197E+04</pdfrwt>
<totfact> 0.20193512E-01</totfact>
</mgrwt>
</event>
<event>
12    6  0.1395358E-007  0.2659948E+04  0.7818608E-02  0.8348119E-01
         -3   -1    0    0    0  501 -0.00000000000E+00  0.00000000000E+00  0.12792068988E+04  0.12792068988E+04  0.00000000000E+00 0.  1.
          4   -1    0    0  501    0  0.00000000000E+00 -0.00000000000E+00 -0.13827555656E+04  0.13827555656E+04  0.00000000000E+00 0. -1.
         24    2    1    2    0    0 -0.11068566410E+04  0.38872685141E+03  0.38347777418E+02  0.11765060989E+04  0.80348366504E+02 0.  0.
        254    2    1    2    0    0  0.11068566410E+04 -0.38872685141E+03 -0.14189644418E+03  0.14854563655E+04  0.90011433959E+03 0.  0.
         23    2    4    4    0    0  0.77850365692E+03 -0.62339976923E+03  0.99556099856E+02  0.10063843300E+04  0.90569236069E+02 0.  0.
         23    2    4    4    0    0  0.32835298403E+03  0.23467291782E+03 -0.24145254403E+03  0.47907203552E+03  0.91233895648E+02 0.  0.
          2    1    3    3  502    0 -0.10297927781E+04  0.36456876719E+03  0.15330820415E+02  0.10925285286E+04  0.00000000000E+00 0. -1.
         -1    1    3    3    0  502 -0.77063862890E+02  0.24158084215E+02  0.23016957003E+02  0.83977570256E+02  0.00000000000E+00 0.  1.
         11    1    5    5    0    0  0.57681583695E+03 -0.47656403276E+03  0.36732419581E+02  0.74911885421E+03  0.00000000000E+00 0.  1.
        -11    1    5    5    0    0  0.20168781997E+03 -0.14683573647E+03  0.62823680275E+02  0.25726547578E+03  0.00000000000E+00 0. -1.
          2    1    6    6  503    0  0.19025106385E+03  0.89612599620E+02 -0.93946326724E+02  0.23032975841E+03  0.00000000000E+00 0. -1.
         -2    1    6    6    0  503  0.13810192019E+03  0.14506031820E+03 -0.14750621731E+03  0.24874227711E+03  0.00000000000E+00 0.  1.
<mgrwt>
<rscale>  0 0.26599477E+04</rscale>
<asrwt>0</asrwt>
<pdfrwt beam="1">  1        4 0.21273162E+00 0.26599477E+04</pdfrwt>
<pdfrwt beam="2">  1       -3 0.19680106E+00 0.26599477E+04</pdfrwt>
<totfact> 0.33371661E-02</totfact>
</mgrwt>
</event>
<event>
12    6  0.1395358E-007  0.1741915E+04  0.7818608E-02  0.8737813E-01
         -1   -1    0    0    0  501 -0.00000000000E+00  0.00000000000E+00  0.81967148966E+03  0.81967148966E+03  0.00000000000E+00 0.  1.
          2   -1    0    0  501    0  0.00000000000E+00 -0.00000000000E+00 -0.92545198935E+03  0.92545198935E+03  0.00000000000E+00 0. -1.
         24    2    1    2    0    0  0.38886511699E+03  0.49808666931E+02  0.46170550690E+03  0.61119883289E+03  0.81823320035E+02 0.  0.
        254    2    1    2    0    0 -0.38886511699E+03 -0.49808666931E+02 -0.56748600660E+03  0.11339246461E+04  0.90002652899E+03 0.  0.
         23    2    4    4    0    0 -0.59026530338E+03  0.10968172157E+03 -0.60896636886E+03  0.85981147092E+03  0.89400887625E+02 0.  0.
         23    2    4    4    0    0  0.20140018638E+03 -0.15949038850E+03  0.41480362260E+02  0.27411317521E+03  0.86128933989E+02 0.  0.
          2    1    3    3  502    0  0.25125023754E+03  0.43677947482E+02  0.24004919755E+03  0.35022573035E+03  0.00000000000E+00 0. -1.
         -3    1    3    3    0  502  0.13761487946E+03  0.61307194489E+01  0.22165630935E+03  0.26097310253E+03  0.00000000000E+00 0.  1.
         11    1    5    5    0    0 -0.46690308594E+03  0.53534175807E+02 -0.49693491119E+03  0.68396542720E+03  0.00000000000E+00 0.  1.
        -11    1    5    5    0    0 -0.12336221744E+03  0.56147545762E+02 -0.11203145766E+03  0.17584604372E+03  0.00000000000E+00 0. -1.
          1    1    6    6  503    0  0.92295128037E+02 -0.12720886342E+03  0.22784439240E+02  0.15880685207E+03  0.00000000000E+00 0. -1.
         -1    1    6    6    0  503  0.10910505835E+03 -0.32281525077E+02  0.18695923019E+02  0.11530632314E+03  0.00000000000E+00 0.  1.
<mgrwt>
<rscale>  0 0.17419146E+04</rscale>
<asrwt>0</asrwt>
<pdfrwt beam="1">  1        2 0.14237723E+00 0.17419146E+04</pdfrwt>
<pdfrwt beam="2">  1       -1 0.12610331E+00 0.17419146E+04</pdfrwt>
<totfact> 0.16704761E+01</totfact>
</mgrwt>
</event>
<event>
12    6  0.1395358E-007  0.3584332E+04  0.7818608E-02  0.8094090E-01
          2   -1    0    0  501    0  0.00000000000E+00  0.00000000000E+00  0.13358146640E+04  0.13358146640E+04  0.00000000000E+00 0. -1.
         -1   -1    0    0    0  501 -0.00000000000E+00 -0.00000000000E+00 -0.24044201079E+04  0.24044201079E+04  0.00000000000E+00 0.  1.
         24    2    1    2    0    0  0.86358995597E+03  0.14349444616E+04 -0.38813142275E+03  0.17209828910E+04  0.79264681327E+02 0.  0.
        254    2    1    2    0    0 -0.86358995597E+03 -0.14349444616E+04 -0.68047402110E+03  0.20192518809E+04  0.89971108994E+03 0.  0.
         23    2    4    4    0    0 -0.26707686012E+03 -0.12280355205E+04 -0.39337475503E+03  0.13196981121E+04  0.86360410000E+02 0.  0.
         23    2    4    4    0    0 -0.59651309585E+03 -0.20690894110E+03 -0.28709926606E+03  0.69955376881E+03  0.91160865837E+02 0.  0.
          4    1    3    3  502    0  0.18910914983E+03  0.32015846885E+03 -0.12009704886E+03  0.39075186100E+03  0.00000000000E+00 0. -1.
         -3    1    3    3    0  502  0.67448080614E+03  0.11147859928E+04 -0.26803437389E+03  0.13302310300E+04  0.00000000000E+00 0.  1.
         11    1    5    5    0    0 -0.21642521676E+03 -0.10418668609E+04 -0.30145588952E+03  0.11059846670E+04  0.00000000000E+00 0. -1.
        -11    1    5    5    0    0 -0.50651643356E+02 -0.18616865960E+03 -0.91918865510E+02  0.21371344513E+03  0.00000000000E+00 0.  1.
          2    1    6    6  503    0 -0.16875139567E+03 -0.62737351649E+02 -0.12813051458E+03  0.22097610188E+03  0.00000000000E+00 0. -1.
         -2    1    6    6    0  503 -0.42776170018E+03 -0.14417158945E+03 -0.15896875148E+03  0.47857766694E+03  0.00000000000E+00 0.  1.
<mgrwt>
<rscale>  0 0.35843324E+04</rscale>
<asrwt>0</asrwt>
<pdfrwt beam="1">  1        2 0.20550995E+00 0.35843324E+04</pdfrwt>
<pdfrwt beam="2">  1       -1 0.36991078E+00 0.35843324E+04</pdfrwt>
<totfact> 0.16747234E-01</totfact>
</mgrwt>
</event>
<event>
12    6  0.1395358E-007  0.2863687E+04  0.7818608E-02  0.8283764E-01
         -1   -1    0    0    0  501 -0.00000000000E+00  0.00000000000E+00  0.93647112555E+03  0.93647112555E+03  0.00000000000E+00 0.  1.
          2   -1    0    0  501    0  0.00000000000E+00 -0.00000000000E+00 -0.21892575294E+04  0.21892575294E+04  0.00000000000E+00 0. -1.
         24    2    1    2    0    0 -0.17034159392E+03  0.12662004480E+04 -0.37398045277E+03  0.13335310978E+04  0.78510995675E+02 0.  0.
        254    2    1    2    0    0  0.17034159392E+03 -0.12662004480E+04 -0.87880595112E+03  0.17921975572E+04  0.89855013834E+03 0.  0.
         23    2    4    4    0    0  0.19563259864E+03 -0.10276156328E+04 -0.10489454974E+04  0.14842951824E+04  0.92625748989E+02 0.  0.
         23    2    4    4    0    0 -0.25291004716E+02 -0.23858481520E+03  0.17013954632E+03  0.30790237481E+03  0.91071720268E+02 0.  0.
          2    1    3    3  502    0 -0.61608304256E+01  0.29287758194E+03 -0.86562744037E+02  0.30546414272E+03  0.00000000000E+00 0. -1.
         -3    1    3    3    0  502 -0.16418076350E+03  0.97332286611E+03 -0.28741770873E+03  0.10280669551E+04  0.00000000000E+00 0.  1.
         11    1    5    5    0    0  0.96637733501E+02 -0.70196595586E+03 -0.74156489010E+03  0.10256771134E+04  0.00000000000E+00 0.  1.
        -11    1    5    5    0    0  0.98994865138E+02 -0.32564967698E+03 -0.30738060734E+03  0.45861806899E+03  0.00000000000E+00 0. -1.
          1    1    6    6  503    0 -0.15816917718E+02  0.17806316554E+01  0.13245704356E+02  0.20707346983E+02  0.00000000000E+00 0. -1.
         -1    1    6    6    0  503 -0.94740869983E+01 -0.24036544685E+03  0.15689384196E+03  0.28719502783E+03  0.00000000000E+00 0.  1.
<mgrwt>
<rscale>  0 0.28636875E+04</rscale>
<asrwt>0</asrwt>
<pdfrwt beam="1">  1        2 0.33680884E+00 0.28636875E+04</pdfrwt>
<pdfrwt beam="2">  1       -1 0.14407248E+00 0.28636875E+04</pdfrwt>
<totfact> 0.20031604E+00</totfact>
</mgrwt>
</event>
<event>
12    6  0.1395358E-007  0.1397306E+04  0.7818608E-02  0.8955771E-01
          2   -1    0    0  501    0  0.00000000000E+00  0.00000000000E+00  0.37056759022E+03  0.37056759022E+03  0.00000000000E+00 0. -1.
         -1   -1    0    0    0  501 -0.00000000000E+00 -0.00000000000E+00 -0.13172110096E+04  0.13172110096E+04  0.00000000000E+00 0.  1.
         24    2    1    2    0    0 -0.38886677972E+03  0.10440733221E+03 -0.31229959663E+03  0.51529472154E+03  0.76676910543E+02 0.  0.
        254    2    1    2    0    0  0.38886677972E+03 -0.10440733221E+03 -0.63434382275E+03  0.11724838783E+04  0.90011560144E+03 0.  0.
         23    2    4    4    0    0  0.40327907078E+03 -0.37034630944E+03 -0.69042284552E+03  0.88571941873E+03  0.89581165669E+02 0.  0.
         23    2    4    4    0    0 -0.14412291066E+02  0.26593897723E+03  0.56079022777E+02  0.28676445954E+03  0.90320234234E+02 0.  0.
          4    1    3    3  502    0 -0.18329486614E+02 -0.88945526839E+00  0.15516871439E+01  0.18416539935E+02  0.00000000000E+00 0. -1.
         -3    1    3    3    0  502 -0.37053729310E+03  0.10529678748E+03 -0.31385128377E+03  0.49687818161E+03  0.00000000000E+00 0.  1.
         11    1    5    5    0    0  0.22286085932E+03 -0.23458230702E+03 -0.34449643792E+03  0.47262418170E+03  0.00000000000E+00 0.  1.
        -11    1    5    5    0    0  0.18041821146E+03 -0.13576400242E+03 -0.34592640760E+03  0.41309523703E+03  0.00000000000E+00 0. -1.
          4    1    6    6  503    0 -0.31892382158E+02  0.35417325625E+02 -0.42192309518E+01  0.47846764823E+02  0.00000000000E+00 0.  1.
         -4    1    6    6    0  503  0.17480091092E+02  0.23052165161E+03  0.60298253729E+02  0.23891769472E+03  0.00000000000E+00 0. -1.
<mgrwt>
<rscale>  0 0.13973056E+04</rscale>
<asrwt>0</asrwt>
<pdfrwt beam="1">  1        2 0.57010399E-01 0.13973056E+04</pdfrwt>
<pdfrwt beam="2">  1       -1 0.20264785E+00 0.13973056E+04</pdfrwt>
<totfact> 0.13935577E+01</totfact>
</mgrwt>
</event>
<event>
12    6  0.1395358E-007  0.2379625E+04  0.7818608E-02  0.8447171E-01
         -1   -1    0    0    0  501 -0.00000000000E+00  0.00000000000E+00  0.51714204368E+03  0.51714204368E+03  0.00000000000E+00 0.  1.
          2   -1    0    0  501    0  0.00000000000E+00 -0.00000000000E+00 -0.27374552510E+04  0.27374552510E+04  0.00000000000E+00 0. -1.
         24    2    1    2    0    0 -0.10022950800E+04 -0.10578222585E+03 -0.75681067729E+03  0.12628383872E+04  0.78823120606E+02 0.  0.
        254    2    1    2    0    0  0.10022950800E+04  0.10578222585E+03 -0.14635025301E+04  0.19917589075E+04  0.89971027740E+03 0.  0.
         23    2    4    4    0    0  0.23856654208E+03  0.44129623481E+03 -0.60701859385E+03  0.79273743049E+03  0.91130118886E+02 0.  0.
         23    2    4    4    0    0  0.76372853792E+03 -0.33551400895E+03 -0.85648393620E+03  0.11990214770E+04  0.90757035015E+02 0.  0.
          2    1    3    3  502    0 -0.35167945467E+03 -0.12055399230E+02 -0.29937797301E+03  0.46200751316E+03  0.00000000000E+00 0. -1.
         -1    1    3    3    0  502 -0.65061562532E+03 -0.93726826623E+02 -0.45743270428E+03  0.80083087408E+03  0.00000000000E+00 0.  1.
         11    1    5    5    0    0  0.13402484475E+03  0.20072233115E+03 -0.35277387926E+03  0.42743598716E+03  0.00000000000E+00 0. -1.
        -11    1    5    5    0    0  0.10454169733E+03  0.24057390366E+03 -0.25424471459E+03  0.36530144333E+03  0.00000000000E+00 0.  1.
          2    1    6    6  503    0  0.70023092701E+03 -0.33051033081E+03 -0.80670040529E+03  0.11181797592E+04  0.00000000000E+00 0. -1.
         -2    1    6    6    0  503  0.63497610912E+02 -0.50036781492E+01 -0.49783530915E+02  0.80841717800E+02  0.00000000000E+00 0.  1.
<mgrwt>
<rscale>  0 0.23796245E+04</rscale>
<asrwt>0</asrwt>
<pdfrwt beam="1">  1        2 0.42114697E+00 0.23796245E+04</pdfrwt>
<pdfrwt beam="2">  1       -1 0.79560312E-01 0.23796245E+04</pdfrwt>
<totfact> 0.40790434E+00</totfact>
</mgrwt>
</event>
<event>
12    6  0.1395358E-007  0.1772498E+04  0.7818608E-02  0.8721063E-01
          2   -1    0    0  501    0  0.00000000000E+00  0.00000000000E+00  0.87351628651E+03  0.87351628651E+03  0.00000000000E+00 0. -1.
         -1   -1    0    0    0  501 -0.00000000000E+00 -0.00000000000E+00 -0.89916686438E+03  0.89916686438E+03  0.00000000000E+00 0.  1.
         24    2    1    2    0    0  0.29359479236E+03 -0.16121833739E+03 -0.57179529912E+03  0.66748878282E+03  0.80013478187E+02 0.  0.
        254    2    1    2    0    0 -0.29359479236E+03  0.16121833739E+03  0.54614472125E+03  0.11051943681E+04  0.90055054287E+03 0.  0.
         23    2    4    4    0    0 -0.95080390711E+02  0.36010711941E+02  0.76072744414E+03  0.77307253133E+03  0.92724550931E+02 0.  0.
         23    2    4    4    0    0 -0.19851440165E+03  0.12520762545E+03 -0.21458272290E+03  0.33212183674E+03  0.95782317486E+02 0.  0.
          4    1    3    3  502    0  0.11790386300E+03 -0.35845115541E+02 -0.15401329212E+03  0.19724676770E+03  0.00000000000E+00 0. -1.
         -3    1    3    3    0  502  0.17569092936E+03 -0.12537322185E+03 -0.41778200700E+03  0.47024201512E+03  0.00000000000E+00 0.  1.
         11    1    5    5    0    0 -0.80687530487E+02  0.12007689893E+02  0.28291447107E+03  0.29444058846E+03  0.00000000000E+00 0.  1.
        -11    1    5    5    0    0 -0.14392860224E+02  0.24003022049E+02  0.47781297308E+03  0.47863194287E+03  0.00000000000E+00 0. -1.
          3    1    6    6  503    0 -0.18919931364E+03  0.10390133581E+03 -0.14832234646E+03  0.26189957297E+03  0.00000000000E+00 0. -1.
         -3    1    6    6    0  503 -0.93150880088E+01  0.21306289635E+02 -0.66260376442E+02  0.70222263769E+02  0.00000000000E+00 0.  1.
<mgrwt>
<rscale>  0 0.17724976E+04</rscale>
<asrwt>0</asrwt>
<pdfrwt beam="1">  1        2 0.13438712E+00 0.17724976E+04</pdfrwt>
<pdfrwt beam="2">  1       -1 0.13833336E+00 0.17724976E+04</pdfrwt>
<totfact> 0.14277049E+01</totfact>
</mgrwt>
</event>
<event>
12    6  0.1395358E-007  0.1791704E+04  0.7818608E-02  0.8710723E-01
          2   -1    0    0  501    0  0.00000000000E+00  0.00000000000E+00  0.11266658109E+04  0.11266658109E+04  0.00000000000E+00 0. -1.
         -1   -1    0    0    0  501 -0.00000000000E+00 -0.00000000000E+00 -0.71232408485E+03  0.71232408485E+03  0.00000000000E+00 0.  1.
         24    2    1    2    0    0  0.62966012452E+03 -0.18687130219E+03  0.27458848758E+03  0.71619124813E+03  0.78347370099E+02 0.  0.
        254    2    1    2    0    0 -0.62966012452E+03  0.18687130219E+03  0.13975323848E+03  0.11227986476E+04  0.89986281147E+03 0.  0.
         23    2    4    4    0    0 -0.50365249052E+03  0.39745967761E+03 -0.21372092449E+03  0.68320191862E+03  0.97201859536E+02 0.  0.
         23    2    4    4    0    0 -0.12600763400E+03 -0.21058837542E+03  0.35347416297E+03  0.43959672902E+03  0.89866081394E+02 0.  0.
          2    1    3    3  502    0  0.95901386759E+02 -0.11058434691E+02  0.17091616629E+02  0.98038198265E+02  0.00000000000E+00 0. -1.
         -3    1    3    3    0  502  0.53375873776E+03 -0.17581286750E+03  0.25749687095E+03  0.61815304987E+03  0.00000000000E+00 0.  1.
         11    1    5    5    0    0 -0.47303317962E+03  0.36956253810E+03 -0.22367728511E+03  0.64060002066E+03  0.00000000000E+00 0.  1.
        -11    1    5    5    0    0 -0.30619310904E+02  0.27897139509E+02  0.99563606193E+01  0.42601897961E+02  0.00000000000E+00 0. -1.
          2    1    6    6  503    0  0.13443032403E+02 -0.32386769309E+02  0.47381915967E+02  0.58946279841E+02  0.00000000000E+00 0. -1.
         -2    1    6    6    0  503 -0.13945066640E+03 -0.17820160612E+03  0.30609224701E+03  0.38065044918E+03  0.00000000000E+00 0.  1.
<mgrwt>
<rscale>  0 0.17917044E+04</rscale>
<asrwt>0</asrwt>
<pdfrwt beam="1">  1        2 0.17333320E+00 0.17917044E+04</pdfrwt>
<pdfrwt beam="2">  1       -1 0.10958832E+00 0.17917044E+04</pdfrwt>
<totfact> 0.17405728E+01</totfact>
</mgrwt>
</event>
<event>
12    6  0.1395358E-007  0.1464848E+04  0.7818608E-02  0.8908171E-01
          2   -1    0    0  501    0  0.00000000000E+00  0.00000000000E+00  0.19436892779E+04  0.19436892779E+04  0.00000000000E+00 0. -1.
         -1   -1    0    0    0  501 -0.00000000000E+00 -0.00000000000E+00 -0.27599331152E+03  0.27599331152E+03  0.00000000000E+00 0.  1.
         24    2    1    2    0    0 -0.59137306851E+02  0.41607615161E+03  0.26984897191E+03  0.50548974348E+03  0.78005308309E+02 0.  0.
        254    2    1    2    0    0  0.59137306851E+02 -0.41607615161E+03  0.13978469945E+04  0.17141928460E+04  0.89881272139E+03 0.  0.
         23    2    4    4    0    0  0.16457148707E+03 -0.21321016582E+03  0.14363455786E+04  0.14642756169E+04  0.92044076885E+02 0.  0.
         23    2    4    4    0    0 -0.10543418022E+03 -0.20286598579E+03 -0.38498584074E+02  0.24991722904E+03  0.93303300287E+02 0.  0.
          2    1    3    3  502    0 -0.64055310764E+02  0.18854732887E+03  0.14061882462E+03  0.24377619223E+03  0.00000000000E+00 0. -1.
         -1    1    3    3    0  502  0.49180039128E+01  0.22752882274E+03  0.12923014729E+03  0.26171355125E+03  0.00000000000E+00 0.  1.
         11    1    5    5    0    0  0.14267729832E+03 -0.14903382699E+03  0.88262740465E+03  0.90642099959E+03  0.00000000000E+00 0. -1.
        -11    1    5    5    0    0  0.21894188750E+02 -0.64176338834E+02  0.55371817391E+03  0.55785461734E+03  0.00000000000E+00 0.  1.
          2    1    6    6  503    0 -0.10260669060E+03 -0.14835127844E+03  0.44907338941E+01  0.18043392547E+03  0.00000000000E+00 0. -1.
         -2    1    6    6    0  503 -0.28274896239E+01 -0.54514707348E+02 -0.42989317968E+02  0.69483303564E+02  0.00000000000E+00 0.  1.
<mgrwt>
<rscale>  0 0.14648484E+04</rscale>
<asrwt>0</asrwt>
<pdfrwt beam="1">  1        2 0.29902911E+00 0.14648484E+04</pdfrwt>
<pdfrwt beam="2">  1       -1 0.42460511E-01 0.14648484E+04</pdfrwt>
<totfact> 0.43250270E+01</totfact>
</mgrwt>
</event>
<event>
12    6  0.1395358E-007  0.1809690E+04  0.7818608E-02  0.8701163E-01
         -1   -1    0    0    0  501 -0.00000000000E+00  0.00000000000E+00  0.16761311821E+03  0.16761311821E+03  0.00000000000E+00 0.  1.
          2   -1    0    0  501    0  0.00000000000E+00 -0.00000000000E+00 -0.48847283993E+04  0.48847283993E+04  0.00000000000E+00 0. -1.
         24    2    1    2    0    0 -0.67085358140E+03 -0.99396644257E+02 -0.19186828370E+04  0.20366188862E+04  0.80922420977E+02 0.  0.
        254    2    1    2    0    0  0.67085358140E+03  0.99396644257E+02 -0.27984324442E+04  0.30157226313E+04  0.89634514785E+03 0.  0.
         23    2    4    4    0    0  0.74751048131E+03 -0.10076773697E+03 -0.13524660125E+04  0.15511188552E+04  0.88765597197E+02 0.  0.
         23    2    4    4    0    0 -0.76656899907E+02  0.20016438122E+03 -0.14459664316E+04  0.14646037762E+04  0.91122116103E+02 0.  0.
          4    1    3    3  502    0 -0.92042124763E+02 -0.40543864647E+02 -0.25333191852E+03  0.27256672327E+03  0.00000000000E+00 0. -1.
         -3    1    3    3    0  502 -0.57881145664E+03 -0.58852779610E+02 -0.16653509184E+04  0.17640521629E+04  0.00000000000E+00 0.  1.
         11    1    5    5    0    0  0.69279419875E+02 -0.35921889752E+02 -0.14733328882E+03  0.16672467777E+03  0.00000000000E+00 0.  1.
        -11    1    5    5    0    0  0.67823106143E+03 -0.64845847217E+02 -0.12051327237E+04  0.13843941774E+04  0.00000000000E+00 0. -1.
          1    1    6    6  503    0 -0.79897018336E+02  0.19564845736E+03 -0.14428235687E+04  0.14582186745E+04  0.00000000000E+00 0. -1.
         -1    1    6    6    0  503  0.32401184286E+01  0.45159238667E+01 -0.31428629459E+01  0.63851016670E+01  0.00000000000E+00 0.  1.
<mgrwt>
<rscale>  0 0.18096901E+04</rscale>
<asrwt>0</asrwt>
<pdfrwt beam="1">  1        2 0.75149663E+00 0.18096901E+04</pdfrwt>
<pdfrwt beam="2">  1       -1 0.25786635E-01 0.18096901E+04</pdfrwt>
<totfact> 0.69831073E-01</totfact>
</mgrwt>
</event>
<event>
12    6  0.1395358E-007  0.1685299E+04  0.7818608E-02  0.8769793E-01
          2   -1    0    0  501    0  0.00000000000E+00  0.00000000000E+00  0.94238188056E+03  0.94238188056E+03  0.00000000000E+00 0. -1.
         -1   -1    0    0    0  501 -0.00000000000E+00 -0.00000000000E+00 -0.75347208997E+03  0.75347208997E+03  0.00000000000E+00 0.  1.
         24    2    1    2    0    0  0.29317724022E+03  0.15145127260E+03  0.57203614764E+03  0.66505417592E+03  0.78621374666E+02 0.  0.
        254    2    1    2    0    0 -0.29317724022E+03 -0.15145127260E+03 -0.38312635705E+03  0.10307997946E+04  0.89826055738E+03 0.  0.
         23    2    4    4    0    0  0.12486880411E+03  0.88317478345E+02 -0.49434151745E+03  0.52763861072E+03  0.10313472950E+03 0.  0.
         23    2    4    4    0    0 -0.41804604432E+03 -0.23976875095E+03  0.11121516040E+03  0.50316118388E+03  0.92470622128E+02 0.  0.
          4    1    3    3  502    0  0.14500620615E+03  0.50402901327E+02  0.32854306958E+03  0.36264004309E+03  0.00000000000E+00 0. -1.
         -3    1    3    3    0  502  0.14817103407E+03  0.10104837128E+03  0.24349307806E+03  0.30241413283E+03  0.00000000000E+00 0.  1.
         11    1    5    5    0    0  0.15355154749E+02  0.44301051743E+02 -0.52886495503E+02  0.70677757247E+02  0.00000000000E+00 0.  1.
        -11    1    5    5    0    0  0.10951364936E+03  0.44016426602E+02 -0.44145502195E+03  0.45696085347E+03  0.00000000000E+00 0. -1.
          4    1    6    6  503    0 -0.33069618246E+03 -0.20335772360E+03  0.12428368700E+03  0.40762821749E+03  0.00000000000E+00 0. -1.
         -4    1    6    6    0  503 -0.87349861868E+02 -0.36411027353E+02 -0.13068526595E+02  0.95532966397E+02  0.00000000000E+00 0.  1.
<mgrwt>
<rscale>  0 0.16852993E+04</rscale>
<asrwt>0</asrwt>
<pdfrwt beam="1">  1        2 0.14498183E+00 0.16852993E+04</pdfrwt>
<pdfrwt beam="2">  1       -1 0.11591878E+00 0.16852993E+04</pdfrwt>
<totfact> 0.20109732E+01</totfact>
</mgrwt>
</event>
<event>
12    6  0.1395358E-007  0.1801926E+04  0.7818608E-02  0.8705276E-01
          2   -1    0    0  501    0  0.00000000000E+00  0.00000000000E+00  0.72047065751E+03  0.72047065751E+03  0.00000000000E+00 0. -1.
         -1   -1    0    0    0  501 -0.00000000000E+00 -0.00000000000E+00 -0.11266717291E+04  0.11266717291E+04  0.00000000000E+00 0.  1.
         24    2    1    2    0    0  0.24042707703E+03  0.62745177160E+03 -0.12249888663E+03  0.68825007913E+03  0.84742487250E+02 0.  0.
        254    2    1    2    0    0 -0.24042707703E+03 -0.62745177160E+03 -0.28370218496E+03  0.11588923075E+04  0.90057956090E+03 0.  0.
         23    2    4    4    0    0 -0.13556388987E+03 -0.80378063013E+01 -0.47030552149E+03  0.49735497111E+03  0.87934687021E+02 0.  0.
         23    2    4    4    0    0 -0.10486318717E+03 -0.61941396530E+03  0.18660333653E+03  0.66153733636E+03  0.90226901569E+02 0.  0.
          2    1    3    3  502    0  0.56905724814E+01  0.30485097892E+02  0.11260689719E+02  0.32992831670E+02  0.00000000000E+00 0. -1.
         -1    1    3    3    0  502  0.23473650455E+03  0.59696667370E+03 -0.13375957635E+03  0.65525724746E+03  0.00000000000E+00 0.  1.
         11    1    5    5    0    0 -0.79699978726E+02 -0.37625661009E+02 -0.35585260559E+03  0.36660449244E+03  0.00000000000E+00 0. -1.
        -11    1    5    5    0    0 -0.55863911141E+02  0.29587854708E+02 -0.11445291590E+03  0.13075047867E+03  0.00000000000E+00 0.  1.
          4    1    6    6  503    0 -0.19700062289E+02 -0.37263652936E+03  0.97405605543E+02  0.38566037839E+03  0.00000000000E+00 0. -1.
         -4    1    6    6    0  503 -0.85163124876E+02 -0.24677743594E+03  0.89197730990E+02  0.27587695797E+03  0.00000000000E+00 0.  1.
<mgrwt>
<rscale>  0 0.18019255E+04</rscale>
<asrwt>0</asrwt>
<pdfrwt beam="1">  1        2 0.11084164E+00 0.18019255E+04</pdfrwt>
<pdfrwt beam="2">  1       -1 0.17333411E+00 0.18019255E+04</pdfrwt>
<totfact> 0.99003257E+00</totfact>
</mgrwt>
</event>
<event>
12    6  0.1395358E-007  0.1358612E+04  0.7818608E-02  0.8984334E-01
          2   -1    0    0  501    0  0.00000000000E+00  0.00000000000E+00  0.96003249689E+03  0.96003249689E+03  0.00000000000E+00 0. -1.
         -1   -1    0    0    0  501 -0.00000000000E+00 -0.00000000000E+00 -0.48066799964E+03  0.48066799964E+03  0.00000000000E+00 0.  1.
         24    2    1    2    0    0  0.41227899102E+02 -0.27275338087E+03 -0.13352524208E+03  0.31705438135E+03  0.81242501291E+02 0.  0.
        254    2    1    2    0    0 -0.41227899102E+02  0.27275338087E+03  0.61288973933E+03  0.11236461152E+04  0.90047354939E+03 0.  0.
         23    2    4    4    0    0  0.18952950168E+03 -0.23727432724E+03  0.42900032385E+02  0.31990360867E+03  0.90980040043E+02 0.  0.
         23    2    4    4    0    0 -0.23075740078E+03  0.51002770811E+03  0.56998970695E+03  0.80374250651E+03  0.87957431153E+02 0.  0.
          2    1    3    3  502    0 -0.72897636298E+01 -0.15337418064E+01 -0.15730379197E+02  0.17405109806E+02  0.00000000000E+00 0. -1.
         -1    1    3    3    0  502  0.48517662732E+02 -0.27121963907E+03 -0.11779486289E+03  0.29964927154E+03  0.00000000000E+00 0.  1.
         11    1    5    5    0    0  0.78331635145E+02 -0.12975322301E+03  0.62583072179E+02  0.16397678149E+03  0.00000000000E+00 0. -1.
        -11    1    5    5    0    0  0.11119786654E+03 -0.10752110423E+03 -0.19683039794E+02  0.15592682717E+03  0.00000000000E+00 0.  1.
          4    1    6    6  503    0 -0.22872287958E+03  0.46557227563E+03  0.54626777626E+03  0.75331280546E+03  0.00000000000E+00 0.  1.
         -4    1    6    6    0  503 -0.20345211999E+01  0.44455432477E+02  0.23721930684E+02  0.50429701056E+02  0.00000000000E+00 0. -1.
<mgrwt>
<rscale>  0 0.13586124E+04</rscale>
<asrwt>0</asrwt>
<pdfrwt beam="1">  1        2 0.14769731E+00 0.13586124E+04</pdfrwt>
<pdfrwt beam="2">  1       -1 0.73948923E-01 0.13586124E+04</pdfrwt>
<totfact> 0.54860509E+01</totfact>
</mgrwt>
</event>
<event>
12    6  0.1395358E-007  0.1397849E+04  0.7818608E-02  0.8955377E-01
          2   -1    0    0  501    0  0.00000000000E+00  0.00000000000E+00  0.14310554344E+04  0.14310554344E+04  0.00000000000E+00 0. -1.
         -1   -1    0    0    0  501 -0.00000000000E+00 -0.00000000000E+00 -0.34135306106E+03  0.34135306106E+03  0.00000000000E+00 0.  1.
         24    2    1    2    0    0 -0.16643874977E+03  0.14679362522E+03 -0.10481357902E+03  0.25849052209E+03  0.81124828718E+02 0.  0.
        254    2    1    2    0    0  0.16643874977E+03 -0.14679362522E+03  0.11945159523E+04  0.15139179733E+04  0.90323255243E+03 0.  0.
         23    2    4    4    0    0  0.39306123968E+03 -0.39965000882E+03  0.84531254726E+03  0.10179211646E+04  0.85982132476E+02 0.  0.
         23    2    4    4    0    0 -0.22662248991E+03  0.25285638360E+03  0.34920340506E+03  0.49599680871E+03  0.93678772887E+02 0.  0.
          4    1    3    3  502    0 -0.81184228047E+02  0.11293081368E+03 -0.35578229793E+02  0.14356203536E+03  0.00000000000E+00 0. -1.
         -3    1    3    3    0  502 -0.85254521724E+02  0.33862811540E+02 -0.69235349227E+02  0.11492848673E+03  0.00000000000E+00 0.  1.
         11    1    5    5    0    0  0.36702241091E+03 -0.33445315977E+03  0.75200081763E+03  0.90114904200E+03  0.00000000000E+00 0. -1.
        -11    1    5    5    0    0  0.26038828771E+02 -0.65196849052E+02  0.93311729636E+02  0.11677212260E+03  0.00000000000E+00 0.  1.
          4    1    6    6  503    0 -0.77604469028E+02  0.78289450514E+02  0.56004674298E+02  0.12364552243E+03  0.00000000000E+00 0. -1.
         -4    1    6    6    0  503 -0.14901802088E+03  0.17456693309E+03  0.29319873076E+03  0.37235128628E+03  0.00000000000E+00 0.  1.
<mgrwt>
<rscale>  0 0.13978486E+04</rscale>
<asrwt>0</asrwt>
<pdfrwt beam="1">  1        2 0.22016237E+00 0.13978486E+04</pdfrwt>
<pdfrwt beam="2">  1       -1 0.52515856E-01 0.13978486E+04</pdfrwt>
<totfact> 0.56294693E+01</totfact>
</mgrwt>
</event>
<event>
12    6  0.1395358E-007  0.1522384E+04  0.7818608E-02  0.8869703E-01
         -1   -1    0    0    0  501 -0.00000000000E+00  0.00000000000E+00  0.53180419208E+03  0.53180419208E+03  0.00000000000E+00 0.  1.
          2   -1    0    0  501    0  0.00000000000E+00 -0.00000000000E+00 -0.10895233909E+04  0.10895233909E+04  0.00000000000E+00 0. -1.
         24    2    1    2    0    0 -0.32389361711E+02 -0.48416568613E+03 -0.10154231854E+03  0.50215346494E+03  0.79886028326E+02 0.  0.
        254    2    1    2    0    0  0.32389361711E+02  0.48416568613E+03 -0.45617688025E+03  0.11191741180E+04  0.89943753424E+03 0.  0.
         23    2    4    4    0    0  0.25543173361E+03  0.25552684909E+03  0.16933230466E+03  0.40929537366E+03  0.91158830358E+02 0.  0.
         23    2    4    4    0    0 -0.22304237190E+03  0.22863883703E+03 -0.62550918492E+03  0.70987874437E+03  0.10316236632E+03 0.  0.
          4    1    3    3  502    0 -0.37482524358E+02 -0.14176367349E+03 -0.54789353208E+02  0.15653674322E+03  0.00000000000E+00 0. -1.
         -3    1    3    3    0  502  0.50931626469E+01 -0.34240201264E+03 -0.46752965334E+02  0.34561672172E+03  0.00000000000E+00 0.  1.
         11    1    5    5    0    0  0.56161416543E+02  0.24009933007E+02  0.22470464475E+01  0.61119807009E+02  0.00000000000E+00 0. -1.
        -11    1    5    5    0    0  0.19927031707E+03  0.23151691609E+03  0.16708525821E+03  0.34817556665E+03  0.00000000000E+00 0.  1.
          2    1    6    6  503    0 -0.16126202864E+03  0.92764252439E+02 -0.36327220979E+03  0.40813888178E+03  0.00000000000E+00 0. -1.
         -2    1    6    6    0  503 -0.61780343264E+02  0.13587458460E+03 -0.26223697512E+03  0.30173986259E+03  0.00000000000E+00 0.  1.
<mgrwt>
<rscale>  0 0.15223838E+04</rscale>
<asrwt>0</asrwt>
<pdfrwt beam="1">  1        2 0.16761898E+00 0.15223838E+04</pdfrwt>
<pdfrwt beam="2">  1       -1 0.81816031E-01 0.15223838E+04</pdfrwt>
<totfact> 0.36178624E+01</totfact>
</mgrwt>
</event>
<event>
12    6  0.1395358E-007  0.2775898E+04  0.7818608E-02  0.8310790E-01
          2   -1    0    0  501    0  0.00000000000E+00  0.00000000000E+00  0.24380707683E+04  0.24380707683E+04  0.00000000000E+00 0. -1.
         -1   -1    0    0    0  501 -0.00000000000E+00 -0.00000000000E+00 -0.79013386357E+03  0.79013386357E+03  0.00000000000E+00 0.  1.
         24    2    1    2    0    0 -0.70251092111E+03 -0.91147997655E+03  0.20036168793E+03  0.11707900276E+04  0.79291493278E+02 0.  0.
        254    2    1    2    0    0  0.70251092111E+03  0.91147997655E+03  0.14475752168E+04  0.20574146042E+04  0.90175578923E+03 0.  0.
         23    2    4    4    0    0  0.15677238913E+03  0.28846640891E+03  0.11051980748E+04  0.11566355459E+04  0.92479999135E+02 0.  0.
         23    2    4    4    0    0  0.54573853198E+03  0.62301356764E+03  0.34237714194E+03  0.90077905834E+03  0.90577888414E+02 0.  0.
          4    1    3    3  502    0 -0.16905509104E+03 -0.25269758326E+03  0.81881051941E+02  0.31486536656E+03  0.00000000000E+00 0. -1.
         -3    1    3    3    0  502 -0.53345583007E+03 -0.65878239329E+03  0.11848063599E+03  0.85592466108E+03  0.00000000000E+00 0.  1.
         11    1    5    5    0    0  0.57934353242E+02  0.11440796369E+03  0.59316122331E+03  0.60686556031E+03  0.00000000000E+00 0.  1.
        -11    1    5    5    0    0  0.98838035885E+02  0.17405844521E+03  0.51203685153E+03  0.54976998555E+03  0.00000000000E+00 0. -1.
          1    1    6    6  503    0  0.34720162709E+02  0.79980019109E+02  0.43508147533E+02  0.97443583971E+02  0.00000000000E+00 0. -1.
         -1    1    6    6    0  503  0.51101836927E+03  0.54303354853E+03  0.29886899440E+03  0.80333547437E+03  0.00000000000E+00 0.  1.
<mgrwt>
<rscale>  0 0.27758979E+04</rscale>
<asrwt>0</asrwt>
<pdfrwt beam="1">  1        2 0.37508781E+00 0.27758979E+04</pdfrwt>
<pdfrwt beam="2">  1       -1 0.12155906E+00 0.27758979E+04</pdfrwt>
<totfact> 0.22468383E+00</totfact>
</mgrwt>
</event>
<event>
12    6  0.1395358E-007  0.4764117E+04  0.7818608E-02  0.7865962E-01
          2   -1    0    0  501    0  0.00000000000E+00  0.00000000000E+00  0.12513175742E+04  0.12513175742E+04  0.00000000000E+00 0. -1.
         -1   -1    0    0    0  501 -0.00000000000E+00 -0.00000000000E+00 -0.45345815735E+04  0.45345815735E+04  0.00000000000E+00 0.  1.
         24    2    1    2    0    0 -0.10223742267E+04  0.16230227835E+04 -0.31165562632E+04  0.36605197519E+04  0.83844482845E+02 0.  0.
        254    2    1    2    0    0  0.10223742267E+04 -0.16230227835E+04 -0.16670773619E+03  0.21253793958E+04  0.89999671769E+03 0.  0.
         23    2    4    4    0    0  0.24530741805E+03 -0.47877221544E+03 -0.45285635080E+03  0.70986325441E+03  0.97099958203E+02 0.  0.
         23    2    4    4    0    0  0.77706680861E+03 -0.11442505681E+04  0.28614861461E+03  0.14155161414E+04  0.93073784915E+02 0.  0.
          4    1    3    3  502    0 -0.48312240257E+03  0.70732514666E+03 -0.13396627342E+04  0.15900982235E+04  0.00000000000E+00 0. -1.
         -3    1    3    3    0  502 -0.53925182409E+03  0.91569763684E+03 -0.17768935290E+04  0.20704215284E+04  0.00000000000E+00 0.  1.
         11    1    5    5    0    0  0.58800876546E+01 -0.58684057758E+00  0.34720170471E+01  0.68538102589E+01  0.00000000000E+00 0. -1.
        -11    1    5    5    0    0  0.23942733039E+03 -0.47818537486E+03 -0.45632836785E+03  0.70300944415E+03  0.00000000000E+00 0.  1.
          2    1    6    6  503    0  0.16448393710E+03 -0.28425802584E+03  0.35651415460E+02  0.33034620361E+03  0.00000000000E+00 0. -1.
         -2    1    6    6    0  503  0.61258287152E+03 -0.85999254222E+03  0.25049719915E+03  0.10851699378E+04  0.00000000000E+00 0.  1.
<mgrwt>
<rscale>  0 0.47641165E+04</rscale>
<asrwt>0</asrwt>
<pdfrwt beam="1">  1        2 0.19251040E+00 0.47641165E+04</pdfrwt>
<pdfrwt beam="2">  1       -1 0.69762794E+00 0.47641165E+04</pdfrwt>
<totfact> 0.30695834E-03</totfact>
</mgrwt>
</event>
<event>
12    6  0.1395358E-007  0.1675040E+04  0.7818608E-02  0.8775729E-01
         -1   -1    0    0    0  501 -0.00000000000E+00  0.00000000000E+00  0.61255634073E+03  0.61255634073E+03  0.00000000000E+00 0.  1.
          2   -1    0    0  501    0  0.00000000000E+00 -0.00000000000E+00 -0.11451023068E+04  0.11451023068E+04  0.00000000000E+00 0. -1.
         24    2    1    2    0    0 -0.40569282488E+02  0.41471654855E+03 -0.63025073099E+03  0.75987679842E+03  0.81000509551E+02 0.  0.
        254    2    1    2    0    0  0.40569282488E+02 -0.41471654855E+03  0.97704764935E+02  0.99778184908E+03  0.90132497743E+03 0.  0.
         23    2    4    4    0    0 -0.15858373096E+03 -0.55334568585E+02  0.42444757246E+03  0.46539368943E+03  0.90690849507E+02 0.  0.
         23    2    4    4    0    0  0.19915301345E+03 -0.35938197997E+03 -0.32674280753E+03  0.53238815965E+03  0.88650775350E+02 0.  0.
          2    1    3    3  502    0 -0.60606130242E+02  0.28955686893E+03 -0.47310680032E+03  0.55798416454E+03  0.00000000000E+00 0. -1.
         -1    1    3    3    0  502  0.20036847754E+02  0.12515967963E+03 -0.15714393067E+03  0.20189263389E+03  0.00000000000E+00 0.  1.
         11    1    5    5    0    0 -0.26421680403E+02 -0.31712307138E+02  0.19699929169E+03  0.20127716349E+03  0.00000000000E+00 0.  1.
        -11    1    5    5    0    0 -0.13216205056E+03 -0.23622261447E+02  0.22744828078E+03  0.26411652594E+03  0.00000000000E+00 0. -1.
          3    1    6    6  503    0  0.14967906879E+03 -0.17925112221E+03 -0.18114540147E+03  0.29554770329E+03  0.00000000000E+00 0. -1.
         -3    1    6    6    0  503  0.49473944663E+02 -0.18013085775E+03 -0.14559740606E+03  0.23684045636E+03  0.00000000000E+00 0.  1.
<mgrwt>
<rscale>  0 0.16750399E+04</rscale>
<asrwt>0</asrwt>
<pdfrwt beam="1">  1        2 0.17616958E+00 0.16750399E+04</pdfrwt>
<pdfrwt beam="2">  1       -1 0.94239438E-01 0.16750399E+04</pdfrwt>
<totfact> 0.24236706E+01</totfact>
</mgrwt>
</event>
<event>
12    6  0.1395358E-007  0.4928726E+04  0.7818608E-02  0.7839597E-01
          2   -1    0    0  501    0  0.00000000000E+00  0.00000000000E+00  0.29839960213E+04  0.29839960213E+04  0.00000000000E+00 0. -1.
         -1   -1    0    0    0  501 -0.00000000000E+00 -0.00000000000E+00 -0.20352188134E+04  0.20352188134E+04  0.00000000000E+00 0.  1.
         24    2    1    2    0    0  0.12047401997E+04 -0.16295781639E+04  0.17323162015E+04  0.26672986064E+04  0.81476945749E+02 0.  0.
        254    2    1    2    0    0 -0.12047401997E+04  0.16295781639E+04 -0.78353899362E+03  0.23519162283E+04  0.90036251010E+03 0.  0.
         23    2    4    4    0    0 -0.50806078993E+03  0.10119451390E+04 -0.84327332252E+03  0.14147032742E+04  0.90092880006E+02 0.  0.
         23    2    4    4    0    0 -0.69667940972E+03  0.61763302494E+03  0.59734328907E+02  0.93721295412E+03  0.89259049338E+02 0.  0.
          4    1    3    3  502    0  0.45715528055E+03 -0.55428122441E+03  0.60294181956E+03  0.93795387096E+03  0.00000000000E+00 0. -1.
         -3    1    3    3    0  502  0.74758491910E+03 -0.10752969395E+04  0.11293743820E+04  0.17293447355E+04  0.00000000000E+00 0.  1.
         11    1    5    5    0    0 -0.45523136278E+03  0.85594842685E+03 -0.69238616781E+03  0.11913361862E+04  0.00000000000E+00 0. -1.
        -11    1    5    5    0    0 -0.52829427154E+02  0.15599671214E+03 -0.15088715471E+03  0.22336708806E+03  0.00000000000E+00 0.  1.
          1    1    6    6  503    0 -0.28696876294E+03  0.30017939731E+03 -0.16605866893E+01  0.41528484083E+03  0.00000000000E+00 0.  1.
         -1    1    6    6    0  503 -0.40971064678E+03  0.31745362763E+03  0.61394915597E+02  0.52192811329E+03  0.00000000000E+00 0. -1.
<mgrwt>
<rscale>  0 0.49287259E+04</rscale>
<asrwt>0</asrwt>
<pdfrwt beam="1">  1        2 0.45907631E+00 0.49287259E+04</pdfrwt>
<pdfrwt beam="2">  1       -1 0.31311059E+00 0.49287259E+04</pdfrwt>
<totfact> 0.40226420E-02</totfact>
</mgrwt>
</event>
<event>
12    6  0.1395358E-007  0.3588878E+04  0.7818608E-02  0.8093044E-01
          2   -1    0    0  501    0  0.00000000000E+00  0.00000000000E+00  0.18746810027E+04  0.18746810027E+04  0.00000000000E+00 0. -1.
         -1   -1    0    0    0  501 -0.00000000000E+00 -0.00000000000E+00 -0.17176311277E+04  0.17176311277E+04  0.00000000000E+00 0.  1.
         24    2    1    2    0    0  0.15901836701E+04  0.57655770009E+02  0.61709320480E+03  0.17085110689E+04  0.78725832442E+02 0.  0.
        254    2    1    2    0    0 -0.15901836701E+04 -0.57655770009E+02 -0.46004332983E+03  0.18838010615E+04  0.89725040067E+03 0.  0.
         23    2    4    4    0    0 -0.12917356431E+04 -0.32846907622E+03 -0.10704695101E+03  0.13402819073E+04  0.91780365800E+02 0.  0.
         23    2    4    4    0    0 -0.29844802704E+03  0.27081330621E+03 -0.35299637882E+03  0.54351915426E+03  0.91627266252E+02 0.  0.
          4    1    3    3  502    0  0.12593283105E+04  0.60474273531E+02  0.45809607906E+03  0.13414234786E+04  0.00000000000E+00 0. -1.
         -3    1    3    3    0  502  0.33085535967E+03 -0.28185035219E+01  0.15899712574E+03  0.36708759033E+03  0.00000000000E+00 0.  1.
         11    1    5    5    0    0 -0.59114256013E+03 -0.19387086929E+03 -0.32078217621E+02  0.62294819399E+03  0.00000000000E+00 0. -1.
        -11    1    5    5    0    0 -0.70059308297E+03 -0.13459820693E+03 -0.74968733391E+02  0.71733371327E+03  0.00000000000E+00 0.  1.
          1    1    6    6  503    0 -0.11887756645E+03  0.59244492821E+02 -0.84721908666E+02  0.15754233572E+03  0.00000000000E+00 0. -1.
         -1    1    6    6    0  503 -0.17957046059E+03  0.21156881339E+03 -0.26827447016E+03  0.38597681854E+03  0.00000000000E+00 0.  1.
<mgrwt>
<rscale>  0 0.35888775E+04</rscale>
<asrwt>0</asrwt>
<pdfrwt beam="1">  1        2 0.28841246E+00 0.35888775E+04</pdfrwt>
<pdfrwt beam="2">  1       -1 0.26425094E+00 0.35888775E+04</pdfrwt>
<totfact> 0.40989218E-01</totfact>
</mgrwt>
</event>
<event>
12    6  0.1395358E-007  0.1807339E+04  0.7818608E-02  0.8702406E-01
         -1   -1    0    0    0  501 -0.00000000000E+00  0.00000000000E+00  0.33802509226E+03  0.33802509226E+03  0.00000000000E+00 0.  1.
          2   -1    0    0  501    0  0.00000000000E+00 -0.00000000000E+00 -0.24158526940E+04  0.24158526940E+04  0.00000000000E+00 0. -1.
         24    2    1    2    0    0 -0.37166465764E+02  0.65839933506E+03 -0.10101020163E+04  0.12089759009E+04  0.80284587193E+02 0.  0.
        254    2    1    2    0    0  0.37166465764E+02 -0.65839933506E+03 -0.10677255854E+04  0.15449018854E+04  0.90100659218E+03 0.  0.
         23    2    4    4    0    0  0.16485445561E+03 -0.28716230138E+03 -0.10886301841E+04  0.11413851744E+04  0.89472116361E+02 0.  0.
         23    2    4    4    0    0 -0.12768798984E+03 -0.37123703368E+03  0.20904598741E+02  0.40351671100E+03  0.90926211182E+02 0.  0.
          4    1    3    3  502    0 -0.48677457008E+02  0.33094547046E+03 -0.55888238171E+03  0.65134009229E+03  0.00000000000E+00 0. -1.
         -3    1    3    3    0  502  0.11510991244E+02  0.32745386460E+03 -0.45121963463E+03  0.55763580860E+03  0.00000000000E+00 0.  1.
         11    1    5    5    0    0  0.12580473536E+03 -0.19458541827E+03 -0.61471292677E+03  0.65693401402E+03  0.00000000000E+00 0. -1.
        -11    1    5    5    0    0  0.39049720248E+02 -0.92576883108E+02 -0.47391725738E+03  0.48445116036E+03  0.00000000000E+00 0.  1.
          4    1    6    6  503    0 -0.25624411547E+02 -0.63437108954E+02  0.38963398832E+02  0.78733879036E+02  0.00000000000E+00 0. -1.
         -4    1    6    6    0  503 -0.10206357829E+03 -0.30779992473E+03 -0.18058800091E+02  0.32478283196E+03  0.00000000000E+00 0.  1.
<mgrwt>
<rscale>  0 0.18073393E+04</rscale>
<asrwt>0</asrwt>
<pdfrwt beam="1">  1        2 0.37166964E+00 0.18073393E+04</pdfrwt>
<pdfrwt beam="2">  1       -1 0.52003861E-01 0.18073393E+04</pdfrwt>
<totfact> 0.15584343E+01</totfact>
</mgrwt>
</event>
<event>
12    6  0.1395358E-007  0.1997563E+04  0.7818608E-02  0.8607761E-01
         -1   -1    0    0    0  501 -0.00000000000E+00  0.00000000000E+00  0.12592694226E+04  0.12592694226E+04  0.00000000000E+00 0.  1.
          2   -1    0    0  501    0  0.00000000000E+00 -0.00000000000E+00 -0.79217681877E+03  0.79217681877E+03  0.00000000000E+00 0. -1.
         24    2    1    2    0    0 -0.79000790613E+02 -0.60137394567E+03  0.71293745091E+03  0.93946449667E+03  0.80137283151E+02 0.  0.
        254    2    1    2    0    0  0.79000790613E+02  0.60137394567E+03 -0.24584484709E+03  0.11119817447E+04  0.89898385094E+03 0.  0.
         23    2    4    4    0    0  0.17902401879E+03  0.78866595307E+03 -0.61887828220E+02  0.81626805231E+03  0.91759713885E+02 0.  0.
         23    2    4    4    0    0 -0.10002322818E+03 -0.18729200741E+03 -0.18395701887E+03  0.29571369238E+03  0.92322591273E+02 0.  0.
          4    1    3    3  502    0 -0.24338824167E+02 -0.34088121657E+02  0.47260089760E+02  0.63149778179E+02  0.00000000000E+00 0. -1.
         -3    1    3    3    0  502 -0.54661966446E+02 -0.56728582401E+03  0.66567736115E+03  0.87631471849E+03  0.00000000000E+00 0.  1.
         11    1    5    5    0    0  0.24671834234E+02  0.20970088516E+03 -0.49888329893E+02  0.21696084001E+03  0.00000000000E+00 0. -1.
        -11    1    5    5    0    0  0.15435218456E+03  0.57896506792E+03 -0.11999498327E+02  0.59930721229E+03  0.00000000000E+00 0.  1.
          2    1    6    6  503    0 -0.19396451398E+02 -0.61127148960E+02 -0.79268719705E+01  0.64618774099E+02  0.00000000000E+00 0. -1.
         -2    1    6    6    0  503 -0.80626776780E+02 -0.12616485845E+03 -0.17603014690E+03  0.23109491828E+03  0.00000000000E+00 0.  1.
<mgrwt>
<rscale>  0 0.19975626E+04</rscale>
<asrwt>0</asrwt>
<pdfrwt beam="1">  1        2 0.12187336E+00 0.19975626E+04</pdfrwt>
<pdfrwt beam="2">  1       -1 0.19373376E+00 0.19975626E+04</pdfrwt>
<totfact> 0.61570783E+00</totfact>
</mgrwt>
</event>
<event>
12    6  0.1395358E-007  0.1724141E+04  0.7818608E-02  0.8747715E-01
          2   -1    0    0  501    0  0.00000000000E+00  0.00000000000E+00  0.14282287882E+04  0.14282287882E+04  0.00000000000E+00 0. -1.
         -1   -1    0    0    0  501 -0.00000000000E+00 -0.00000000000E+00 -0.52034038836E+03  0.52034038836E+03  0.00000000000E+00 0.  1.
         24    2    1    2    0    0 -0.39993975519E+03  0.18629375383E+03 -0.16844718410E+03  0.47826864855E+03  0.75559750228E+02 0.  0.
        254    2    1    2    0    0  0.39993975519E+03 -0.18629375383E+03  0.10763355839E+04  0.14703005280E+04  0.89923755643E+03 0.  0.
         23    2    4    4    0    0  0.62548675407E+03  0.84531937600E+02  0.66927878205E+03  0.92442347266E+03  0.90803858501E+02 0.  0.
         23    2    4    4    0    0 -0.22554699888E+03 -0.27082569143E+03  0.40705680189E+03  0.54587705534E+03  0.89824917134E+02 0.  0.
          4    1    3    3  502    0 -0.12254205885E+03  0.23919435477E+02 -0.30723997227E+02  0.12857939021E+03  0.00000000000E+00 0. -1.
         -3    1    3    3    0  502 -0.27739769634E+03  0.16237431836E+03 -0.13772318687E+03  0.34968925834E+03  0.00000000000E+00 0.  1.
         11    1    5    5    0    0  0.58767758498E+03  0.67669547349E+02  0.59286592625E+03  0.83751663747E+03  0.00000000000E+00 0.  1.
        -11    1    5    5    0    0  0.37809169086E+02  0.16862390251E+02  0.76412855800E+02  0.86906835194E+02  0.00000000000E+00 0. -1.
          3    1    6    6  503    0 -0.90595572934E+02 -0.70515669005E+02  0.82780295879E+02  0.14153654933E+03  0.00000000000E+00 0. -1.
         -3    1    6    6    0  503 -0.13495142594E+03 -0.20031002243E+03  0.32427650601E+03  0.40434050601E+03  0.00000000000E+00 0.  1.
<mgrwt>
<rscale>  0 0.17241405E+04</rscale>
<asrwt>0</asrwt>
<pdfrwt beam="1">  1        2 0.21972750E+00 0.17241405E+04</pdfrwt>
<pdfrwt beam="2">  1       -1 0.80052368E-01 0.17241405E+04</pdfrwt>
<totfact> 0.23508680E+01</totfact>
</mgrwt>
</event>
<event>
12    6  0.1395358E-007  0.3257782E+04  0.7818608E-02  0.8173722E-01
         -1   -1    0    0    0  501 -0.00000000000E+00  0.00000000000E+00  0.11218912997E+04  0.11218912997E+04  0.00000000000E+00 0.  1.
          2   -1    0    0  501    0  0.00000000000E+00 -0.00000000000E+00 -0.23650108831E+04  0.23650108831E+04  0.00000000000E+00 0. -1.
         24    2    1    2    0    0 -0.70328901966E+03  0.12753341312E+04 -0.16586583331E+03  0.14682721275E+04  0.84964547092E+02 0.  0.
        254    2    1    2    0    0  0.70328901966E+03 -0.12753341312E+04 -0.10772537501E+04  0.20186300553E+04  0.89067337834E+03 0.  0.
         23    2    4    4    0    0 -0.48683176839E+02 -0.31552068616E+03 -0.63860348239E+03  0.71955343186E+03  0.89550982560E+02 0.  0.
         23    2    4    4    0    0  0.75197219650E+03 -0.95981344506E+03 -0.43865026767E+03  0.12990766235E+04  0.92097680372E+02 0.  0.
          4    1    3    3  502    0 -0.30081592401E+03  0.46085046297E+03 -0.67591724040E+02  0.55447453550E+03  0.00000000000E+00 0. -1.
         -3    1    3    3    0  502 -0.40247309565E+03  0.81448366825E+03 -0.98274109266E+02  0.91379759199E+03  0.00000000000E+00 0.  1.
         11    1    5    5    0    0 -0.55501062267E+02 -0.19189020085E+03 -0.46714001155E+03  0.50805709078E+03  0.00000000000E+00 0. -1.
        -11    1    5    5    0    0  0.68178854279E+01 -0.12363048531E+03 -0.17146347084E+03  0.21149634108E+03  0.00000000000E+00 0.  1.
          3    1    6    6  503    0  0.38056799883E+03 -0.47179927715E+03 -0.26611223123E+03  0.66199870035E+03  0.00000000000E+00 0. -1.
         -3    1    6    6    0  503  0.37140419767E+03 -0.48801416792E+03 -0.17253803643E+03  0.63707792314E+03  0.00000000000E+00 0.  1.
<mgrwt>
<rscale>  0 0.32577815E+04</rscale>
<asrwt>0</asrwt>
<pdfrwt beam="1">  1        2 0.36384783E+00 0.32577815E+04</pdfrwt>
<pdfrwt beam="2">  1       -1 0.17259866E+00 0.32577815E+04</pdfrwt>
<totfact> 0.93387529E-01</totfact>
</mgrwt>
</event>
<event>
12    6  0.1395358E-007  0.1637529E+04  0.7818608E-02  0.8797818E-01
         -1   -1    0    0    0  501 -0.00000000000E+00  0.00000000000E+00  0.59129757795E+03  0.59129757795E+03  0.00000000000E+00 0.  1.
          2   -1    0    0  501    0  0.00000000000E+00 -0.00000000000E+00 -0.11337360153E+04  0.11337360153E+04  0.00000000000E+00 0. -1.
         24    2    1    2    0    0  0.45614190337E+03  0.17520637823E+03  0.11426122183E+03  0.50826758168E+03  0.80731634420E+02 0.  0.
        254    2    1    2    0    0 -0.45614190337E+03 -0.17520637823E+03 -0.65669965916E+03  0.12167660116E+04  0.90027905317E+03 0.  0.
         23    2    4    4    0    0 -0.71080458939E+03 -0.10215716732E+03 -0.35923230803E+03  0.80810565679E+03  0.91146312481E+02 0.  0.
         23    2    4    4    0    0  0.25466268602E+03 -0.73049210912E+02 -0.29746735113E+03  0.40866035477E+03  0.91253436703E+02 0.  0.
          4    1    3    3  502    0  0.21891958811E+03  0.60529671511E+02  0.18372624873E+02  0.22787536184E+03  0.00000000000E+00 0. -1.
         -3    1    3    3    0  502  0.23722231526E+03  0.11467670672E+03  0.95888596952E+02  0.28039221984E+03  0.00000000000E+00 0.  1.
         11    1    5    5    0    0 -0.44416101584E+03 -0.24937139991E+02 -0.24555400788E+03  0.50813151814E+03  0.00000000000E+00 0. -1.
        -11    1    5    5    0    0 -0.26664357355E+03 -0.77220027326E+02 -0.11367830015E+03  0.29997413865E+03  0.00000000000E+00 0.  1.
          4    1    6    6  503    0  0.14647259549E+03 -0.88161674279E+02 -0.17987524980E+03  0.24815682044E+03  0.00000000000E+00 0. -1.
         -4    1    6    6    0  503  0.10819009053E+03  0.15112463367E+02 -0.11759210133E+03  0.16050353433E+03  0.00000000000E+00 0.  1.
<mgrwt>
<rscale>  0 0.16375291E+04</rscale>
<asrwt>0</asrwt>
<pdfrwt beam="1">  1        2 0.17442092E+00 0.16375291E+04</pdfrwt>
<pdfrwt beam="2">  1       -1 0.90968859E-01 0.16375291E+04</pdfrwt>
<totfact> 0.26723815E+01</totfact>
</mgrwt>
</event>
<event>
12    6  0.1395358E-007  0.2644705E+04  0.7818608E-02  0.8353173E-01
          2   -1    0    0  501    0  0.00000000000E+00  0.00000000000E+00  0.21439109648E+04  0.21439109648E+04  0.00000000000E+00 0. -1.
         -1   -1    0    0    0  501 -0.00000000000E+00 -0.00000000000E+00 -0.81561965315E+03  0.81561965315E+03  0.00000000000E+00 0.  1.
         24    2    1    2    0    0 -0.86039366738E+03  0.31652127140E+03 -0.22497416860E+03  0.94758112666E+03  0.82665814928E+02 0.  0.
        254    2    1    2    0    0  0.86039366738E+03 -0.31652127140E+03  0.15532654802E+04  0.20119494912E+04  0.89154031048E+03 0.  0.
         23    2    4    4    0    0  0.49059164866E+03 -0.48383225405E+03  0.14099694361E+04  0.15719572230E+04  0.90894909118E+02 0.  0.
         23    2    4    4    0    0  0.36980201872E+03  0.16731098265E+03  0.14329604413E+03  0.43999226824E+03  0.91175335922E+02 0.  0.
          4    1    3    3  502    0 -0.27433389413E+03  0.13273933206E+03 -0.49045767827E+02  0.30868155611E+03  0.00000000000E+00 0. -1.
         -3    1    3    3    0  502 -0.58605977325E+03  0.18378193934E+03 -0.17592840077E+03  0.63889957055E+03  0.00000000000E+00 0.  1.
         11    1    5    5    0    0  0.77554543999E+02 -0.58709549341E+02  0.13998827286E+03  0.17046476181E+03  0.00000000000E+00 0. -1.
        -11    1    5    5    0    0  0.41303710466E+03 -0.42512270471E+03  0.12699811632E+04  0.14014924612E+04  0.00000000000E+00 0.  1.
          4    1    6    6  503    0  0.20483893228E+03  0.11425822614E+03  0.39081191775E+02  0.23778408266E+03  0.00000000000E+00 0. -1.
         -4    1    6    6    0  503  0.16496308644E+03  0.53052756511E+02  0.10421485236E+03  0.20220818558E+03  0.00000000000E+00 0.  1.
<mgrwt>
<rscale>  0 0.26447048E+04</rscale>
<asrwt>0</asrwt>
<pdfrwt beam="1">  1        2 0.32983245E+00 0.26447048E+04</pdfrwt>
<pdfrwt beam="2">  1       -1 0.12547995E+00 0.26447048E+04</pdfrwt>
<totfact> 0.30850513E+00</totfact>
</mgrwt>
</event>
<event>
12    6  0.1395358E-007  0.3058192E+04  0.7818608E-02  0.8227306E-01
          2   -1    0    0  501    0  0.00000000000E+00  0.00000000000E+00  0.31784725580E+04  0.31784725580E+04  0.00000000000E+00 0. -1.
         -1   -1    0    0    0  501 -0.00000000000E+00 -0.00000000000E+00 -0.73561588936E+03  0.73561588936E+03  0.00000000000E+00 0.  1.
         24    2    1    2    0    0 -0.89353261172E+03 -0.96590314198E+03  0.17153074809E+04  0.21633431455E+04  0.80027516010E+02 0.  0.
        254    2    1    2    0    0  0.89353261172E+03  0.96590314198E+03  0.72754918775E+03  0.17507453018E+04  0.89689011782E+03 0.  0.
         23    2    4    4    0    0  0.68317353629E+02 -0.11669389492E+03 -0.61263681787E+02  0.17478183551E+03  0.92253592877E+02 0.  0.
         23    2    4    4    0    0  0.82521525809E+03  0.10825970369E+04  0.78881286954E+03  0.15759634663E+04  0.91861513131E+02 0.  0.
          4    1    3    3  502    0 -0.20714675289E+03 -0.24086743234E+03  0.46847142227E+03  0.56603212866E+03  0.00000000000E+00 0. -1.
         -3    1    3    3    0  502 -0.68638585883E+03 -0.72503570964E+03  0.12468360586E+04  0.15973110169E+04  0.00000000000E+00 0.  1.
         11    1    5    5    0    0  0.58265069939E+02 -0.35170241504E+02  0.64041704961E+01  0.68357718381E+02  0.00000000000E+00 0. -1.
        -11    1    5    5    0    0  0.10052283691E+02 -0.81523653414E+02 -0.67667852284E+02  0.10642411713E+03  0.00000000000E+00 0.  1.
          2    1    6    6  503    0  0.14382128950E+03  0.25037358117E+03  0.16412588888E+03  0.33212768758E+03  0.00000000000E+00 0. -1.
         -2    1    6    6    0  503  0.68139396859E+03  0.83222345574E+03  0.62468698066E+03  0.12438357788E+04  0.00000000000E+00 0.  1.
<mgrwt>
<rscale>  0 0.30581922E+04</rscale>
<asrwt>0</asrwt>
<pdfrwt beam="1">  1        2 0.48899577E+00 0.30581922E+04</pdfrwt>
<pdfrwt beam="2">  1       -1 0.11317168E+00 0.30581922E+04</pdfrwt>
<totfact> 0.92382717E-01</totfact>
</mgrwt>
</event>
<event>
12    6  0.1395358E-007  0.1829349E+04  0.7818608E-02  0.8690846E-01
         -1   -1    0    0    0  501 -0.00000000000E+00  0.00000000000E+00  0.61205231910E+03  0.61205231910E+03  0.00000000000E+00 0.  1.
          2   -1    0    0  501    0  0.00000000000E+00 -0.00000000000E+00 -0.13669251345E+04  0.13669251345E+04  0.00000000000E+00 0. -1.
         24    2    1    2    0    0  0.56206059162E+03  0.12044911891E+03 -0.70121783569E+03  0.90997343102E+03  0.76974626862E+02 0.  0.
        254    2    1    2    0    0 -0.56206059162E+03 -0.12044911891E+03 -0.53654979699E+02  0.10690040226E+04  0.89970586556E+03 0.  0.
         23    2    4    4    0    0 -0.75763330568E+03 -0.25232276438E+03 -0.10394883273E+03  0.81064484883E+03  0.93084412227E+02 0.  0.
         23    2    4    4    0    0  0.19557271406E+03  0.13187364547E+03  0.50293853028E+02  0.25835917374E+03  0.92631777210E+02 0.  0.
          2    1    3    3  502    0  0.38950876477E+03  0.10755701906E+03 -0.44840451674E+03  0.60361593817E+03  0.00000000000E+00 0. -1.
         -1    1    3    3    0  502  0.17255182685E+03  0.12892099845E+02 -0.25281331895E+03  0.30635749285E+03  0.00000000000E+00 0.  1.
         11    1    5    5    0    0 -0.57575777488E+03 -0.15081307365E+03 -0.89309760337E+02  0.60184535540E+03  0.00000000000E+00 0. -1.
        -11    1    5    5    0    0 -0.18187553080E+03 -0.10150969073E+03 -0.14639072390E+02  0.20879949343E+03  0.00000000000E+00 0.  1.
          4    1    6    6  503    0  0.18672963556E+03  0.10728148783E+03  0.69093175772E+02  0.22616618086E+03  0.00000000000E+00 0. -1.
         -4    1    6    6    0  503  0.88430785012E+01  0.24592157648E+02 -0.18799322744E+02  0.32192992883E+02  0.00000000000E+00 0.  1.
<mgrwt>
<rscale>  0 0.18293493E+04</rscale>
<asrwt>0</asrwt>
<pdfrwt beam="1">  1        2 0.21029617E+00 0.18293493E+04</pdfrwt>
<pdfrwt beam="2">  1       -1 0.94161896E-01 0.18293493E+04</pdfrwt>
<totfact> 0.17727879E+01</totfact>
</mgrwt>
</event>
<event>
12    6  0.1395358E-007  0.1852373E+04  0.7818608E-02  0.8678934E-01
          2   -1    0    0  501    0  0.00000000000E+00  0.00000000000E+00  0.92523518181E+03  0.92523518181E+03  0.00000000000E+00 0. -1.
         -1   -1    0    0    0  501 -0.00000000000E+00 -0.00000000000E+00 -0.92713847659E+03  0.92713847659E+03  0.00000000000E+00 0.  1.
         24    2    1    2    0    0 -0.21265898753E+03 -0.65434909624E+03  0.15372413334E+03  0.70940764929E+03  0.78939970746E+02 0.  0.
        254    2    1    2    0    0  0.21265898753E+03  0.65434909624E+03 -0.15562742812E+03  0.11429660091E+04  0.89930796553E+03 0.  0.
         23    2    4    4    0    0  0.16424366929E+03  0.84243070349E+03  0.25424539750E+02  0.86326839587E+03  0.88996870704E+02 0.  0.
         23    2    4    4    0    0  0.48415318232E+02 -0.18808160726E+03 -0.18105196787E+03  0.27969761324E+03  0.87932961706E+02 0.  0.
          4    1    3    3  502    0 -0.13269107137E+03 -0.44625545295E+03  0.13953885110E+03  0.48602668720E+03  0.00000000000E+00 0. -1.
         -3    1    3    3    0  502 -0.79967916153E+02 -0.20809364329E+03  0.14185282238E+02  0.22338096209E+03  0.00000000000E+00 0.  1.
         11    1    5    5    0    0  0.12079392907E+03  0.40439695921E+03  0.29298482457E+02  0.42306793189E+03  0.00000000000E+00 0. -1.
        -11    1    5    5    0    0  0.43449740219E+02  0.43803374428E+03 -0.38739427065E+01  0.44020046398E+03  0.00000000000E+00 0.  1.
          1    1    6    6  503    0  0.25237081792E+02 -0.12995657744E+03 -0.17110036514E+03  0.21633528901E+03  0.00000000000E+00 0. -1.
         -1    1    6    6    0  503  0.23178236440E+02 -0.58125029812E+02 -0.99516027282E+01  0.63362324231E+02  0.00000000000E+00 0.  1.
<mgrwt>
<rscale>  0 0.18523727E+04</rscale>
<asrwt>0</asrwt>
<pdfrwt beam="1">  1        2 0.14234387E+00 0.18523727E+04</pdfrwt>
<pdfrwt beam="2">  1       -1 0.14263669E+00 0.18523727E+04</pdfrwt>
<totfact> 0.12072655E+01</totfact>
</mgrwt>
</event>
<event>
12    6  0.1395358E-007  0.1569915E+04  0.7818608E-02  0.8839247E-01
          2   -1    0    0  501    0  0.00000000000E+00  0.00000000000E+00  0.11510414547E+04  0.11510414547E+04  0.00000000000E+00 0. -1.
         -1   -1    0    0    0  501 -0.00000000000E+00 -0.00000000000E+00 -0.53530487865E+03  0.53530487865E+03  0.00000000000E+00 0.  1.
         24    2    1    2    0    0  0.23096029646E+03  0.23031634266E+02  0.71005343275E+03  0.75157696967E+03  0.82576929302E+02 0.  0.
        254    2    1    2    0    0 -0.23096029646E+03 -0.23031634266E+02 -0.94316856737E+02  0.93476936364E+03  0.90056925276E+03 0.  0.
         23    2    4    4    0    0 -0.13223347034E+03  0.30569426948E+03  0.26055626504E+03  0.43267478316E+03  0.91559945706E+02 0.  0.
         23    2    4    4    0    0 -0.98726826126E+02 -0.32872590375E+03 -0.35487312178E+03  0.50209458048E+03  0.91412959684E+02 0.  0.
          2    1    3    3  502    0  0.13841707185E+03 -0.23907235558E+02  0.35876327578E+03  0.38528162393E+03  0.00000000000E+00 0. -1.
         -1    1    3    3    0  502  0.92543224616E+02  0.46938869825E+02  0.35129015697E+03  0.36629534574E+03  0.00000000000E+00 0.  1.
         11    1    5    5    0    0 -0.11567049185E+03  0.20259047636E+03  0.13561614412E+03  0.26984125397E+03  0.00000000000E+00 0.  1.
        -11    1    5    5    0    0 -0.16562978483E+02  0.10310379312E+03  0.12494012092E+03  0.16283352919E+03  0.00000000000E+00 0. -1.
          3    1    6    6  503    0 -0.87361195002E+02 -0.23115235495E+03 -0.30305631262E+03  0.39103263061E+03  0.00000000000E+00 0. -1.
         -3    1    6    6    0  503 -0.11365631124E+02 -0.97573548803E+02 -0.51816809161E+02  0.11106194987E+03  0.00000000000E+00 0.  1.
<mgrwt>
<rscale>  0 0.15699148E+04</rscale>
<asrwt>0</asrwt>
<pdfrwt beam="1">  1        2 0.17708330E+00 0.15699148E+04</pdfrwt>
<pdfrwt beam="2">  1       -1 0.82354597E-01 0.15699148E+04</pdfrwt>
<totfact> 0.32578784E+01</totfact>
</mgrwt>
</event>
<event>
12    6  0.1395358E-007  0.2339576E+04  0.7818608E-02  0.8462478E-01
         -1   -1    0    0    0  501 -0.00000000000E+00  0.00000000000E+00  0.18752398891E+04  0.18752398891E+04  0.00000000000E+00 0.  1.
          2   -1    0    0  501    0  0.00000000000E+00 -0.00000000000E+00 -0.72972210536E+03  0.72972210536E+03  0.00000000000E+00 0. -1.
         24    2    1    2    0    0 -0.75259644698E+03  0.56674545630E+03  0.84248761043E+03  0.12663151245E+04  0.78528953937E+02 0.  0.
        254    2    1    2    0    0  0.75259644698E+03 -0.56674545630E+03  0.30303017333E+03  0.13386468700E+04  0.90141351900E+03 0.  0.
         23    2    4    4    0    0  0.33073525617E+03 -0.75337177942E+03  0.25427485752E+03  0.86604368637E+03  0.91766637880E+02 0.  0.
         23    2    4    4    0    0  0.42186119082E+03  0.18662632313E+03  0.48755315814E+02  0.47260318359E+03  0.90445782192E+02 0.  0.
          4    1    3    3  502    0 -0.31162205621E+03  0.27600047335E+03  0.39919328826E+03  0.57674938110E+03  0.00000000000E+00 0. -1.
         -3    1    3    3    0  502 -0.44097439078E+03  0.29074498294E+03  0.44329432217E+03  0.68956574342E+03  0.00000000000E+00 0.  1.
         11    1    5    5    0    0  0.13777569609E+03 -0.21609401702E+03  0.62182719260E+02  0.26371472693E+03  0.00000000000E+00 0. -1.
        -11    1    5    5    0    0  0.19295956008E+03 -0.53727776240E+03  0.19209213826E+03  0.60232895944E+03  0.00000000000E+00 0.  1.
          3    1    6    6  503    0  0.14804411852E+03  0.92471808632E+02  0.54912333282E+02  0.18298486486E+03  0.00000000000E+00 0. -1.
         -3    1    6    6    0  503  0.27381707229E+03  0.94154514494E+02 -0.61570174684E+01  0.28961831873E+03  0.00000000000E+00 0.  1.
<mgrwt>
<rscale>  0 0.23395760E+04</rscale>
<asrwt>0</asrwt>
<pdfrwt beam="1">  1        2 0.11226494E+00 0.23395760E+04</pdfrwt>
<pdfrwt beam="2">  1       -1 0.28849844E+00 0.23395760E+04</pdfrwt>
<totfact> 0.15709361E+00</totfact>
</mgrwt>
</event>
<event>
12    6  0.1395358E-007  0.1319674E+04  0.7818608E-02  0.9014107E-01
         -1   -1    0    0    0  501 -0.00000000000E+00  0.00000000000E+00  0.71593727415E+03  0.71593727415E+03  0.00000000000E+00 0.  1.
          2   -1    0    0  501    0  0.00000000000E+00 -0.00000000000E+00 -0.60813275649E+03  0.60813275649E+03  0.00000000000E+00 0. -1.
         24    2    1    2    0    0  0.25957129276E+03 -0.20590626623E+03  0.13184775331E+03  0.36556059761E+03  0.80474057803E+02 0.  0.
        254    2    1    2    0    0 -0.25957129276E+03  0.20590626623E+03 -0.24043235649E+02  0.95850943302E+03  0.89910378128E+03 0.  0.
         23    2    4    4    0    0  0.13533689610E+03  0.44947512940E+03  0.45232625294E+02  0.48065904676E+03  0.92968604591E+02 0.  0.
         23    2    4    4    0    0 -0.39490818886E+03 -0.24356886317E+03 -0.69275860943E+02  0.47785038626E+03  0.90904224359E+02 0.  0.
          2    1    3    3  502    0  0.66340281168E+02 -0.65462932141E+02  0.10268471100E+01  0.93206667170E+02  0.00000000000E+00 0. -1.
         -1    1    3    3    0  502  0.19323101159E+03 -0.14044333409E+03  0.13082090620E+03  0.27235393044E+03  0.00000000000E+00 0.  1.
         11    1    5    5    0    0  0.12279823619E+03  0.39073039360E+03  0.73408758062E+01  0.40963829869E+03  0.00000000000E+00 0.  1.
        -11    1    5    5    0    0  0.12538659913E+02  0.58744735798E+02  0.37891749488E+02  0.71020748064E+02  0.00000000000E+00 0. -1.
          4    1    6    6  503    0 -0.67362157585E+02 -0.84630859043E+02 -0.25725962582E+02  0.11118393646E+03  0.00000000000E+00 0. -1.
         -4    1    6    6    0  503 -0.32754603128E+03 -0.15893800413E+03 -0.43549898361E+02  0.36666644980E+03  0.00000000000E+00 0.  1.
<mgrwt>
<rscale>  0 0.13196741E+04</rscale>
<asrwt>0</asrwt>
<pdfrwt beam="1">  1        2 0.93558885E-01 0.13196741E+04</pdfrwt>
<pdfrwt beam="2">  1       -1 0.11014420E+00 0.13196741E+04</pdfrwt>
<totfact> 0.41543446E+01</totfact>
</mgrwt>
</event>
<event>
12    6  0.1395358E-007  0.1576812E+04  0.7818608E-02  0.8834921E-01
         -1   -1    0    0    0  501 -0.00000000000E+00  0.00000000000E+00  0.34927105284E+03  0.34927105284E+03  0.00000000000E+00 0.  1.
          2   -1    0    0  501    0  0.00000000000E+00 -0.00000000000E+00 -0.17796614265E+04  0.17796614265E+04  0.00000000000E+00 0. -1.
         24    2    1    2    0    0 -0.42947994898E+03  0.28388105604E+03 -0.32992917835E+03  0.61661598198E+03  0.79501735502E+02 0.  0.
        254    2    1    2    0    0  0.42947994898E+03 -0.28388105604E+03 -0.11004611954E+04  0.15123164974E+04  0.90058029363E+03 0.  0.
         23    2    4    4    0    0  0.12057243850E+03 -0.15681095035E+03 -0.11436230434E+04  0.11641844545E+04  0.91238104442E+02 0.  0.
         23    2    4    4    0    0  0.30890751048E+03 -0.12707010570E+03  0.43161848019E+02  0.34813204289E+03  0.88103986153E+02 0.  0.
          4    1    3    3  502    0 -0.17011618752E+03  0.15453352353E+03 -0.16737988114E+03  0.28431699169E+03  0.00000000000E+00 0. -1.
         -3    1    3    3    0  502 -0.25936376146E+03  0.12934753251E+03 -0.16254929721E+03  0.33229899029E+03  0.00000000000E+00 0.  1.
         11    1    5    5    0    0  0.11225354975E+03 -0.11757484779E+03 -0.10473623093E+04  0.10599021235E+04  0.00000000000E+00 0.  1.
        -11    1    5    5    0    0  0.83188887543E+01 -0.39236102559E+02 -0.96260734034E+02  0.10428233106E+03  0.00000000000E+00 0. -1.
          2    1    6    6  503    0  0.11823869598E+03 -0.95114358634E+02  0.26992370035E+02  0.15412890218E+03  0.00000000000E+00 0.  1.
         -2    1    6    6    0  503  0.19066881449E+03 -0.31955747061E+02  0.16169477985E+02  0.19400314072E+03  0.00000000000E+00 0. -1.
<mgrwt>
<rscale>  0 0.15768123E+04</rscale>
<asrwt>0</asrwt>
<pdfrwt beam="1">  1        2 0.27379407E+00 0.15768123E+04</pdfrwt>
<pdfrwt beam="2">  1       -1 0.53734008E-01 0.15768123E+04</pdfrwt>
<totfact> 0.33874641E+01</totfact>
</mgrwt>
</event>
<event>
12    6  0.1395358E-007  0.3331592E+04  0.7818608E-02  0.8154903E-01
         -1   -1    0    0    0  501 -0.00000000000E+00  0.00000000000E+00  0.11099284283E+04  0.11099284283E+04  0.00000000000E+00 0.  1.
          2   -1    0    0  501    0  0.00000000000E+00 -0.00000000000E+00 -0.25000498767E+04  0.25000498767E+04  0.00000000000E+00 0. -1.
         24    2    1    2    0    0 -0.45990072066E+03  0.13955189364E+04 -0.11556262521E+04  0.18710398056E+04  0.79599904787E+02 0.  0.
        254    2    1    2    0    0  0.45990072066E+03 -0.13955189364E+04 -0.23449519626E+03  0.17389384994E+04  0.89996518435E+03 0.  0.
         23    2    4    4    0    0 -0.12127579095E+03  0.23267911031E+02  0.78933547110E+02  0.17135347640E+03  0.88782294747E+02 0.  0.
         23    2    4    4    0    0  0.58117651161E+03 -0.14187868474E+04 -0.31342874337E+03  0.15675850230E+04  0.91449282015E+02 0.  0.
          2    1    3    3  502    0 -0.28920290229E+03  0.97556779139E+03 -0.77353188443E+03  0.12781715106E+04  0.00000000000E+00 0. -1.
         -1    1    3    3    0  502 -0.17069781837E+03  0.41995114499E+03 -0.38209436770E+03  0.59286829499E+03  0.00000000000E+00 0.  1.
         11    1    5    5    0    0 -0.58538515087E+01 -0.16574506339E+02 -0.10065636635E+02  0.20255835671E+02  0.00000000000E+00 0. -1.
        -11    1    5    5    0    0 -0.11542193945E+03  0.39842417370E+02  0.88999183745E+02  0.15109764073E+03  0.00000000000E+00 0.  1.
          4    1    6    6  503    0  0.21617618910E+03 -0.43045905838E+03 -0.76970320198E+02  0.48780280428E+03  0.00000000000E+00 0. -1.
         -4    1    6    6    0  503  0.36500032251E+03 -0.98832778903E+03 -0.23645842317E+03  0.10797822187E+04  0.00000000000E+00 0.  1.
<mgrwt>
<rscale>  0 0.33315921E+04</rscale>
<asrwt>0</asrwt>
<pdfrwt beam="1">  1        2 0.38462306E+00 0.33315921E+04</pdfrwt>
<pdfrwt beam="2">  1       -1 0.17075822E+00 0.33315921E+04</pdfrwt>
<totfact> 0.80039664E-01</totfact>
</mgrwt>
</event>
<event>
12    6  0.1395358E-007  0.2252130E+04  0.7818608E-02  0.8497038E-01
         -1   -1    0    0    0  501 -0.00000000000E+00  0.00000000000E+00  0.50152580335E+03  0.50152580335E+03  0.00000000000E+00 0.  1.
          2   -1    0    0  501    0  0.00000000000E+00 -0.00000000000E+00 -0.25283290422E+04  0.25283290422E+04  0.00000000000E+00 0. -1.
         24    2    1    2    0    0  0.88427549126E+03  0.18332982535E+03 -0.12232847449E+04  0.15223536020E+04  0.74712469817E+02 0.  0.
        254    2    1    2    0    0 -0.88427549126E+03 -0.18332982535E+03 -0.80351849390E+03  0.15075012435E+04  0.90075804733E+03 0.  0.
         23    2    4    4    0    0 -0.42438830259E+03 -0.11977378522E+02  0.12606787158E+03  0.45238328488E+03  0.92242285424E+02 0.  0.
         23    2    4    4    0    0 -0.45988718867E+03 -0.17135244683E+03 -0.92958636548E+03  0.10551179586E+04  0.91023120152E+02 0.  0.
          2    1    3    3  502    0  0.46919388097E+03  0.12779111672E+03 -0.69452171439E+03  0.84784071571E+03  0.00000000000E+00 0. -1.
         -1    1    3    3    0  502  0.41508161029E+03  0.55538708637E+02 -0.52876303055E+03  0.67451288634E+03  0.00000000000E+00 0.  1.
         11    1    5    5    0    0 -0.34218450077E+02  0.15591687116E+02 -0.88409878104E+01  0.38628565833E+02  0.00000000000E+00 0. -1.
        -11    1    5    5    0    0 -0.39016985252E+03 -0.27569065638E+02  0.13490885939E+03  0.41375471905E+03  0.00000000000E+00 0.  1.
          3    1    6    6  503    0 -0.11900311152E+03 -0.65958408511E+02 -0.18701742183E+03  0.23127422742E+03  0.00000000000E+00 0. -1.
         -3    1    6    6    0  503 -0.34088407715E+03 -0.10539403832E+03 -0.74256894365E+03  0.82384373120E+03  0.00000000000E+00 0.  1.
<mgrwt>
<rscale>  0 0.22521299E+04</rscale>
<asrwt>0</asrwt>
<pdfrwt beam="1">  1        2 0.38897370E+00 0.22521299E+04</pdfrwt>
<pdfrwt beam="2">  1       -1 0.77157815E-01 0.22521299E+04</pdfrwt>
<totfact> 0.58468082E+00</totfact>
</mgrwt>
</event>
<event>
12    6  0.1395358E-007  0.1556373E+04  0.7818608E-02  0.8847808E-01
         -1   -1    0    0    0  501 -0.00000000000E+00  0.00000000000E+00  0.42580787355E+03  0.42580787355E+03  0.00000000000E+00 0.  1.
          2   -1    0    0  501    0  0.00000000000E+00 -0.00000000000E+00 -0.14221764535E+04  0.14221764535E+04  0.00000000000E+00 0. -1.
         24    2    1    2    0    0  0.41845909694E+03  0.19644352635E+03 -0.69574098677E+02  0.47477400668E+03  0.82895882598E+02 0.  0.
        254    2    1    2    0    0 -0.41845909694E+03 -0.19644352635E+03 -0.92679448123E+03  0.13732103203E+04  0.90169867391E+03 0.  0.
         23    2    4    4    0    0 -0.44065902566E+03 -0.27119403443E+03 -0.10665685320E+04  0.11888435375E+04  0.89743757294E+02 0.  0.
         23    2    4    4    0    0  0.22199928711E+02  0.74750508086E+02  0.13977405077E+03  0.18436678283E+03  0.91508743029E+02 0.  0.
          2    1    3    3  502    0  0.17950723566E+03  0.44499809498E+02 -0.46309333308E+02  0.19065055744E+03  0.00000000000E+00 0. -1.
         -1    1    3    3    0  502  0.23895186129E+03  0.15194371685E+03 -0.23264765369E+02  0.28412344924E+03  0.00000000000E+00 0.  1.
         11    1    5    5    0    0 -0.40873251711E+03 -0.23095753651E+03 -0.10003806207E+04  0.11050633649E+04  0.00000000000E+00 0. -1.
        -11    1    5    5    0    0 -0.31926508549E+02 -0.40236497928E+02 -0.66187911281E+02  0.83780172555E+02  0.00000000000E+00 0.  1.
          3    1    6    6  503    0  0.36639128078E+02  0.88387987136E+02  0.92469555225E+02  0.13306194279E+03  0.00000000000E+00 0. -1.
         -3    1    6    6    0  503 -0.14439199367E+02 -0.13637479050E+02  0.47304495541E+02  0.51304840041E+02  0.00000000000E+00 0.  1.
<mgrwt>
<rscale>  0 0.15563726E+04</rscale>
<asrwt>0</asrwt>
<pdfrwt beam="1">  1        2 0.21879637E+00 0.15563726E+04</pdfrwt>
<pdfrwt beam="2">  1       -1 0.65508905E-01 0.15563726E+04</pdfrwt>
<totfact> 0.36400316E+01</totfact>
</mgrwt>
</event>
<event>
12    6  0.1395358E-007  0.1290234E+04  0.7818608E-02  0.9037346E-01
          2   -1    0    0  501    0  0.00000000000E+00  0.00000000000E+00  0.34716909367E+03  0.34716909367E+03  0.00000000000E+00 0. -1.
         -1   -1    0    0    0  501 -0.00000000000E+00 -0.00000000000E+00 -0.11987703216E+04  0.11987703216E+04  0.00000000000E+00 0.  1.
         24    2    1    2    0    0  0.10275180641E+03  0.23582791530E+03  0.17054094510E+02  0.27011545449E+03  0.80614994037E+02 0.  0.
        254    2    1    2    0    0 -0.10275180641E+03 -0.23582791530E+03 -0.86865532242E+03  0.12758239608E+04  0.89832731804E+03 0.  0.
         23    2    4    4    0    0 -0.48369001272E+02 -0.56833946372E+03 -0.45779660259E+03  0.73679823486E+03  0.89132503889E+02 0.  0.
         23    2    4    4    0    0 -0.54382805135E+02  0.33251154842E+03 -0.41085871983E+03  0.53902572590E+03  0.90677594736E+02 0.  0.
          4    1    3    3  502    0  0.68797930874E+02  0.21920296680E+03  0.26155735886E+02  0.23122979580E+03  0.00000000000E+00 0. -1.
         -3    1    3    3    0  502  0.33953875532E+02  0.16624948497E+02 -0.91016413754E+01  0.38885658692E+02  0.00000000000E+00 0.  1.
         11    1    5    5    0    0 -0.25617566111E+02 -0.34838032712E+02 -0.30987707825E+02  0.53199494856E+02  0.00000000000E+00 0.  1.
        -11    1    5    5    0    0 -0.22751435161E+02 -0.53350143101E+03 -0.42680889476E+03  0.68359874001E+03  0.00000000000E+00 0. -1.
          1    1    6    6  503    0 -0.31784760588E+02  0.30101641672E+03 -0.39376409064E+03  0.49666015868E+03  0.00000000000E+00 0. -1.
         -1    1    6    6    0  503 -0.22598044547E+02  0.31495131708E+02 -0.17094629188E+02  0.42365567218E+02  0.00000000000E+00 0.  1.
<mgrwt>
<rscale>  0 0.12902341E+04</rscale>
<asrwt>0</asrwt>
<pdfrwt beam="1">  1        2 0.53410630E-01 0.12902341E+04</pdfrwt>
<pdfrwt beam="2">  1       -1 0.18442620E+00 0.12902341E+04</pdfrwt>
<totfact> 0.20262092E+01</totfact>
</mgrwt>
</event>
<event>
12    6  0.1395358E-007  0.2920502E+04  0.7818608E-02  0.8266804E-01
         -1   -1    0    0    0  501 -0.00000000000E+00  0.00000000000E+00  0.82632476965E+03  0.82632476965E+03  0.00000000000E+00 0.  1.
          2   -1    0    0  501    0  0.00000000000E+00 -0.00000000000E+00 -0.25805024493E+04  0.25805024493E+04  0.00000000000E+00 0. -1.
         24    2    1    2    0    0  0.64312715545E+03 -0.87417388834E+03 -0.16716128486E+04  0.19945280195E+04  0.77845873079E+02 0.  0.
        254    2    1    2    0    0 -0.64312715545E+03  0.87417388834E+03 -0.82564831118E+02  0.14122991995E+04  0.89998864015E+03 0.  0.
         23    2    4    4    0    0 -0.49969340184E+03  0.65620345558E+03 -0.45562136131E+03  0.94747334312E+03  0.99088042142E+02 0.  0.
         23    2    4    4    0    0 -0.14343375361E+03  0.21797043276E+03  0.37305653019E+03  0.46482585636E+03  0.93848552428E+02 0.  0.
          2    1    3    3  502    0  0.33544791110E+03 -0.41746480507E+03 -0.76639085103E+03  0.93496368971E+03  0.00000000000E+00 0. -1.
         -1    1    3    3    0  502  0.30767924435E+03 -0.45670908327E+03 -0.90522199752E+03  0.10595643298E+04  0.00000000000E+00 0.  1.
         11    1    5    5    0    0 -0.47823387684E+03  0.64576753011E+03 -0.45533553659E+03  0.92360911363E+03  0.00000000000E+00 0.  1.
        -11    1    5    5    0    0 -0.21459524997E+02  0.10435925469E+02 -0.28582472021E+00  0.23864229493E+02  0.00000000000E+00 0. -1.
          3    1    6    6  503    0 -0.18948042091E+02 -0.50761958500E+01  0.13660452398E+02  0.23904058716E+02  0.00000000000E+00 0. -1.
         -3    1    6    6    0  503 -0.12448571152E+03  0.22304662861E+03  0.35939607779E+03  0.44092179765E+03  0.00000000000E+00 0.  1.
<mgrwt>
<rscale>  0 0.29205021E+04</rscale>
<asrwt>0</asrwt>
<pdfrwt beam="1">  1        2 0.39700038E+00 0.29205021E+04</pdfrwt>
<pdfrwt beam="2">  1       -1 0.12712689E+00 0.29205021E+04</pdfrwt>
<totfact> 0.16411934E+00</totfact>
</mgrwt>
</event>
<event>
12    6  0.1395358E-007  0.2860923E+04  0.7818608E-02  0.8284600E-01
         -1   -1    0    0    0  501 -0.00000000000E+00  0.00000000000E+00  0.22798474508E+04  0.22798474508E+04  0.00000000000E+00 0.  1.
          2   -1    0    0  501    0  0.00000000000E+00 -0.00000000000E+00 -0.89752504570E+03  0.89752504570E+03  0.00000000000E+00 0. -1.
         24    2    1    2    0    0 -0.11094041541E+04  0.62981470092E+02  0.13455736562E+04  0.17469129774E+04  0.79951508627E+02 0.  0.
        254    2    1    2    0    0  0.11094041541E+04 -0.62981470092E+02  0.36748748887E+02  0.14304595191E+04  0.90006651000E+03 0.  0.
         23    2    4    4    0    0  0.25102137957E+03 -0.22138801755E+03 -0.33091362656E+03  0.47908281535E+03  0.89398704703E+02 0.  0.
         23    2    4    4    0    0  0.85838277453E+03  0.15840654746E+03  0.36766237545E+03  0.95137670371E+03  0.89601273181E+02 0.  0.
          2    1    3    3  502    0 -0.46015082550E+03 -0.77219330833E+01  0.52470710617E+03  0.69793692961E+03  0.00000000000E+00 0. -1.
         -3    1    3    3    0  502 -0.64925332860E+03  0.70703403175E+02  0.82086655001E+03  0.10489760478E+04  0.00000000000E+00 0.  1.
         11    1    5    5    0    0  0.11273101831E+03 -0.14326249016E+03 -0.21815094586E+03  0.28429255839E+03  0.00000000000E+00 0.  1.
        -11    1    5    5    0    0  0.13829036126E+03 -0.78125527391E+02 -0.11276268070E+03  0.19479025696E+03  0.00000000000E+00 0. -1.
          2    1    6    6  503    0  0.51812441575E+03  0.12476188729E+03  0.25952653623E+03  0.59276678528E+03  0.00000000000E+00 0. -1.
         -2    1    6    6    0  503  0.34025835878E+03  0.33644660169E+02  0.10813583921E+03  0.35860991843E+03  0.00000000000E+00 0.  1.
<mgrwt>
<rscale>  0 0.28609231E+04</rscale>
<asrwt>0</asrwt>
<pdfrwt beam="1">  1        2 0.13808078E+00 0.28609231E+04</pdfrwt>
<pdfrwt beam="2">  1       -1 0.35074576E+00 0.28609231E+04</pdfrwt>
<totfact> 0.44621596E-01</totfact>
</mgrwt>
</event>
<event>
12    6  0.1395358E-007  0.2227183E+04  0.7818608E-02  0.8507198E-01
         -1   -1    0    0    0  501 -0.00000000000E+00  0.00000000000E+00  0.80210536383E+03  0.80210536383E+03  0.00000000000E+00 0.  1.
          2   -1    0    0  501    0  0.00000000000E+00 -0.00000000000E+00 -0.15460390626E+04  0.15460390626E+04  0.00000000000E+00 0. -1.
         24    2    1    2    0    0 -0.33560031119E+03 -0.68738564014E+01  0.60243680141E+03  0.69423192138E+03  0.79705973403E+02 0.  0.
        254    2    1    2    0    0  0.33560031119E+03  0.68738564014E+01 -0.13463705002E+04  0.16539125051E+04  0.90002123966E+03 0.  0.
         23    2    4    4    0    0  0.57019325746E+02 -0.36187079137E+02 -0.13525599269E+04  0.13573664217E+04  0.92002927981E+02 0.  0.
         23    2    4    4    0    0  0.27858098545E+03  0.43060935538E+02  0.61894267106E+01  0.29654608333E+03  0.91867627132E+02 0.  0.
          2    1    3    3  502    0 -0.24775607838E+03  0.28259548390E+02  0.45990558802E+03  0.52315850977E+03  0.00000000000E+00 0. -1.
         -1    1    3    3    0  502 -0.87844232812E+02 -0.35133404791E+02  0.14253121339E+03  0.17107341161E+03  0.00000000000E+00 0.  1.
         11    1    5    5    0    0  0.47668301958E+02 -0.66452010885E+02 -0.90543053094E+03  0.90911637490E+03  0.00000000000E+00 0.  1.
        -11    1    5    5    0    0  0.93510237886E+01  0.30264931748E+02 -0.44712939599E+03  0.44825004684E+03  0.00000000000E+00 0. -1.
          3    1    6    6  503    0  0.79558671653E+02 -0.29013040413E+02 -0.21499186891E+01  0.84711043552E+02  0.00000000000E+00 0. -1.
         -3    1    6    6    0  503  0.19902231380E+03  0.72073975951E+02  0.83393453997E+01  0.21183503978E+03  0.00000000000E+00 0.  1.
<mgrwt>
<rscale>  0 0.22271832E+04</rscale>
<asrwt>0</asrwt>
<pdfrwt beam="1">  1        2 0.23785216E+00 0.22271832E+04</pdfrwt>
<pdfrwt beam="2">  1       -1 0.12340083E+00 0.22271832E+04</pdfrwt>
<totfact> 0.71779702E+00</totfact>
</mgrwt>
</event>
<event>
12    6  0.1395358E-007  0.2002955E+04  0.7818608E-02  0.8605241E-01
          2   -1    0    0  501    0  0.00000000000E+00  0.00000000000E+00  0.76336303614E+03  0.76336303614E+03  0.00000000000E+00 0. -1.
         -1   -1    0    0    0  501 -0.00000000000E+00 -0.00000000000E+00 -0.13138660137E+04  0.13138660137E+04  0.00000000000E+00 0.  1.
         24    2    1    2    0    0 -0.33924200410E+03 -0.33432307666E+03 -0.88350274639E+03  0.10069516437E+04  0.80730743376E+02 0.  0.
        254    2    1    2    0    0  0.33924200410E+03  0.33432307666E+03  0.33299976883E+03  0.10702774061E+04  0.89874791968E+03 0.  0.
         23    2    4    4    0    0 -0.13723669459E+03  0.42371974064E+03  0.35193116450E+03  0.57605674360E+03  0.98048449024E+02 0.  0.
         23    2    4    4    0    0  0.47647869869E+03 -0.89396663978E+02 -0.18931395677E+02  0.49422066254E+03  0.94191038348E+02 0.  0.
          4    1    3    3  502    0 -0.65798934403E+02 -0.51832420349E+02 -0.10084408253E+03  0.13109396840E+03  0.00000000000E+00 0. -1.
         -1    1    3    3    0  502 -0.27344306969E+03 -0.28249065631E+03 -0.78265866386E+03  0.87585767530E+03  0.00000000000E+00 0.  1.
         11    1    5    5    0    0 -0.26394262668E+02  0.23723981801E+03  0.19664338535E+03  0.30927012360E+03  0.00000000000E+00 0. -1.
        -11    1    5    5    0    0 -0.11084243192E+03  0.18647992262E+03  0.15528777916E+03  0.26678662000E+03  0.00000000000E+00 0.  1.
          2    1    6    6  503    0  0.27197581432E+03 -0.40335130405E+02  0.34841611856E+02  0.27714924542E+03  0.00000000000E+00 0.  1.
         -2    1    6    6    0  503  0.20450288436E+03 -0.49061533574E+02 -0.53773007533E+02  0.21707141712E+03  0.00000000000E+00 0. -1.
<mgrwt>
<rscale>  0 0.20029546E+04</rscale>
<asrwt>0</asrwt>
<pdfrwt beam="1">  1        2 0.11744047E+00 0.20029546E+04</pdfrwt>
<pdfrwt beam="2">  1       -1 0.20213323E+00 0.20029546E+04</pdfrwt>
<totfact> 0.56518764E+00</totfact>
</mgrwt>
</event>
<event>
12    6  0.1395358E-007  0.1677881E+04  0.7818608E-02  0.8774081E-01
          2   -1    0    0  501    0  0.00000000000E+00  0.00000000000E+00  0.31675815732E+04  0.31675815732E+04  0.00000000000E+00 0. -1.
         -1   -1    0    0    0  501 -0.00000000000E+00 -0.00000000000E+00 -0.22219524719E+03  0.22219524719E+03  0.00000000000E+00 0.  1.
         24    2    1    2    0    0  0.49507136191E+03 -0.32730261565E+03  0.99828790321E+03  0.11641603363E+04  0.80423226578E+02 0.  0.
        254    2    1    2    0    0 -0.49507136191E+03  0.32730261565E+03  0.19470984228E+04  0.22256164841E+04  0.89997433879E+03 0.  0.
         23    2    4    4    0    0 -0.54033196307E+02  0.15182347355E+03  0.16454341184E+04  0.16558698841E+04  0.92096045781E+02 0.  0.
         23    2    4    4    0    0 -0.44103816560E+03  0.17547914209E+03  0.30166430441E+03  0.56974659998E+03  0.91116643937E+02 0.  0.
          4    1    3    3  502    0  0.17762380804E+03 -0.92674603795E+02  0.40021690612E+03  0.44756270099E+03  0.00000000000E+00 0. -1.
         -3    1    3    3    0  502  0.31744755387E+03 -0.23462801185E+03  0.59807099709E+03  0.71659763533E+03  0.00000000000E+00 0.  1.
         11    1    5    5    0    0 -0.45047316151E+02  0.14297683706E+02  0.36786546341E+03  0.37088904489E+03  0.00000000000E+00 0. -1.
        -11    1    5    5    0    0 -0.89858801559E+01  0.13752578985E+03  0.12775686550E+04  0.12849808392E+04  0.00000000000E+00 0.  1.
          4    1    6    6  503    0 -0.10308286823E+03  0.19558413112E+02  0.30541792267E+02  0.10927676021E+03  0.00000000000E+00 0. -1.
         -4    1    6    6    0  503 -0.33795529737E+03  0.15592072898E+03  0.27112251215E+03  0.46046983977E+03  0.00000000000E+00 0.  1.
<mgrwt>
<rscale>  0 0.16778815E+04</rscale>
<asrwt>0</asrwt>
<pdfrwt beam="1">  1        2 0.48732021E+00 0.16778815E+04</pdfrwt>
<pdfrwt beam="2">  1       -1 0.34183886E-01 0.16778815E+04</pdfrwt>
<totfact> 0.12039307E+01</totfact>
</mgrwt>
</event>
<event>
12    6  0.1395358E-007  0.2220377E+04  0.7818608E-02  0.8509994E-01
         -1   -1    0    0    0  501 -0.00000000000E+00  0.00000000000E+00  0.74963701683E+03  0.74963701683E+03  0.00000000000E+00 0.  1.
          2   -1    0    0  501    0  0.00000000000E+00 -0.00000000000E+00 -0.16441540096E+04  0.16441540096E+04  0.00000000000E+00 0. -1.
         24    2    1    2    0    0  0.27582842250E+03 -0.88198399717E+03 -0.31762253913E+03  0.98047818591E+03  0.80475497902E+02 0.  0.
        254    2    1    2    0    0 -0.27582842250E+03  0.88198399717E+03 -0.57689445365E+03  0.14133128405E+04  0.90037152588E+03 0.  0.
         23    2    4    4    0    0 -0.24533817340E+03  0.10567253197E+04 -0.45019649022E+03  0.11778342788E+04  0.88076602850E+02 0.  0.
         23    2    4    4    0    0 -0.30490249103E+02 -0.17474132253E+03 -0.12669796343E+03  0.23547856169E+03  0.89070724654E+02 0.  0.
          2    1    3    3  502    0  0.65185547386E+02 -0.13120497372E+03 -0.69737165565E+02  0.16225650365E+03  0.00000000000E+00 0. -1.
         -1    1    3    3    0  502  0.21064287511E+03 -0.75077902345E+03 -0.24788537356E+03  0.81822168226E+03  0.00000000000E+00 0.  1.
         11    1    5    5    0    0 -0.13843892505E+03  0.76743012891E+03 -0.33196307990E+03  0.84753396696E+03  0.00000000000E+00 0. -1.
        -11    1    5    5    0    0 -0.10689924834E+03  0.28929519079E+03 -0.11823341032E+03  0.33030031188E+03  0.00000000000E+00 0.  1.
          1    1    6    6  503    0 -0.55695943269E+02 -0.15142630060E+03 -0.88142505665E+02  0.18385065655E+03  0.00000000000E+00 0. -1.
         -1    1    6    6    0  503  0.25205694166E+02 -0.23315021931E+02 -0.38555457762E+02  0.51627905141E+02  0.00000000000E+00 0.  1.
<mgrwt>
<rscale>  0 0.22203772E+04</rscale>
<asrwt>0</asrwt>
<pdfrwt beam="1">  1        2 0.25294676E+00 0.22203772E+04</pdfrwt>
<pdfrwt beam="2">  1       -1 0.11532877E+00 0.22203772E+04</pdfrwt>
<totfact> 0.74640140E+00</totfact>
</mgrwt>
</event>
<event>
12    6  0.1395358E-007  0.1528855E+04  0.7818608E-02  0.8865488E-01
          2   -1    0    0  501    0  0.00000000000E+00  0.00000000000E+00  0.12546573349E+04  0.12546573349E+04  0.00000000000E+00 0. -1.
         -1   -1    0    0    0  501 -0.00000000000E+00 -0.00000000000E+00 -0.46574442214E+03  0.46574442214E+03  0.00000000000E+00 0.  1.
         24    2    1    2    0    0 -0.21737167364E+01 -0.49023622347E+03  0.14361761534E+03  0.51518315827E+03  0.66718717636E+02 0.  0.
        254    2    1    2    0    0  0.21737167364E+01  0.49023622347E+03  0.64529529745E+03  0.12052185988E+04  0.89208159388E+03 0.  0.
         23    2    4    4    0    0 -0.12857737972E+03  0.14586832359E+03  0.77524381491E+03  0.80435407153E+03  0.90403481308E+02 0.  0.
         23    2    4    4    0    0  0.13075109645E+03  0.34436789988E+03 -0.12994851746E+03  0.40086452727E+03  0.90114662226E+02 0.  0.
          2    1    3    3  502    0  0.86716624336E+01 -0.29133495770E+03  0.11760012285E+03  0.31429451825E+03  0.00000000000E+00 0. -1.
         -1    1    3    3    0  502 -0.10845379170E+02 -0.19890126577E+03  0.26017492495E+02  0.20088864002E+03  0.00000000000E+00 0.  1.
         11    1    5    5    0    0 -0.19268362157E+02 -0.97764718671E+01  0.47780836333E+02  0.52439083735E+02  0.00000000000E+00 0. -1.
        -11    1    5    5    0    0 -0.10930901756E+03  0.15564479546E+03  0.72746297858E+03  0.75191498780E+03  0.00000000000E+00 0.  1.
          3    1    6    6  503    0  0.36717462050E+02  0.12951344321E+03 -0.40509059010E+01  0.13467855743E+03  0.00000000000E+00 0. -1.
         -3    1    6    6    0  503  0.94033634403E+02  0.21485445666E+03 -0.12589761155E+03  0.26618596984E+03  0.00000000000E+00 0.  1.
<mgrwt>
<rscale>  0 0.15288553E+04</rscale>
<asrwt>0</asrwt>
<pdfrwt beam="1">  1        2 0.19302420E+00 0.15288553E+04</pdfrwt>
<pdfrwt beam="2">  1       -1 0.71652989E-01 0.15288553E+04</pdfrwt>
<totfact> 0.37987718E+01</totfact>
</mgrwt>
</event>
<event>
12    6  0.1395358E-007  0.1991728E+04  0.7818608E-02  0.8610498E-01
         -1   -1    0    0    0  501 -0.00000000000E+00  0.00000000000E+00  0.40517295198E+03  0.40517295198E+03  0.00000000000E+00 0.  1.
          2   -1    0    0  501    0  0.00000000000E+00 -0.00000000000E+00 -0.24477069726E+04  0.24477069726E+04  0.00000000000E+00 0. -1.
         24    2    1    2    0    0 -0.76933501636E+03 -0.51281103925E+02 -0.10637726607E+04  0.13163642095E+04  0.81831163198E+02 0.  0.
        254    2    1    2    0    0  0.76933501636E+03  0.51281103925E+02 -0.97876135992E+03  0.15365157151E+04  0.89911101881E+03 0.  0.
         23    2    4    4    0    0  0.58656802764E+03  0.44666015001E+02 -0.11324453845E+04  0.12795385643E+04  0.93430642224E+02 0.  0.
         23    2    4    4    0    0  0.18276698873E+03  0.66150889244E+01  0.15368402455E+03  0.25697715078E+03  0.94715073004E+02 0.  0.
          4    1    3    3  502    0 -0.16159535112E+03 -0.44382314143E+02 -0.23321297129E+03  0.28717788440E+03  0.00000000000E+00 0. -1.
         -3    1    3    3    0  502 -0.60773966524E+03 -0.68987897826E+01 -0.83055968943E+03  0.10291863251E+04  0.00000000000E+00 0.  1.
         11    1    5    5    0    0  0.39098110298E+03 -0.14410916397E+02 -0.73403185857E+03  0.83179123991E+03  0.00000000000E+00 0. -1.
        -11    1    5    5    0    0  0.19558692466E+03  0.59076931398E+02 -0.39841352590E+03  0.44774732444E+03  0.00000000000E+00 0.  1.
          4    1    6    6  503    0  0.78061138404E+02 -0.31959614403E+02  0.10641998549E+03  0.13579459339E+03  0.00000000000E+00 0. -1.
         -4    1    6    6    0  503  0.10470585032E+03  0.38574703328E+02  0.47264039054E+02  0.12118255739E+03  0.00000000000E+00 0.  1.
<mgrwt>
<rscale>  0 0.19917276E+04</rscale>
<asrwt>0</asrwt>
<pdfrwt beam="1">  1        2 0.37657031E+00 0.19917276E+04</pdfrwt>
<pdfrwt beam="2">  1       -1 0.62334299E-01 0.19917276E+04</pdfrwt>
<totfact> 0.10315135E+01</totfact>
</mgrwt>
</event>
<event>
12    6  0.1395358E-007  0.1622698E+04  0.7818608E-02  0.8806724E-01
         -1   -1    0    0    0  501 -0.00000000000E+00  0.00000000000E+00  0.33081774854E+03  0.33081774854E+03  0.00000000000E+00 0.  1.
          2   -1    0    0  501    0  0.00000000000E+00 -0.00000000000E+00 -0.19898791972E+04  0.19898791972E+04  0.00000000000E+00 0. -1.
         24    2    1    2    0    0  0.54410118009E+03 -0.13870751231E+03 -0.51736918739E+03  0.76764420271E+03  0.79503948014E+02 0.  0.
        254    2    1    2    0    0 -0.54410118009E+03  0.13870751231E+03 -0.11416922613E+04  0.15530527431E+04  0.89063221089E+03 0.  0.
         23    2    4    4    0    0  0.16515835683E+03 -0.32721866779E+02 -0.62662139692E+03  0.65524556942E+03  0.91347565718E+02 0.  0.
         23    2    4    4    0    0 -0.70925953691E+03  0.17142937908E+03 -0.51507086437E+03  0.89780717364E+03  0.91228301541E+02 0.  0.
          2    1    3    3  502    0  0.21046074107E+03 -0.62444171143E+02 -0.25448513674E+03  0.33608880205E+03  0.00000000000E+00 0. -1.
         -1    1    3    3    0  502  0.33364043901E+03 -0.76263341163E+02 -0.26288405065E+03  0.43155540066E+03  0.00000000000E+00 0.  1.
         11    1    5    5    0    0  0.78356596958E+02 -0.26455183521E+02 -0.15521287187E+03  0.17587117051E+03  0.00000000000E+00 0. -1.
        -11    1    5    5    0    0  0.86801759868E+02 -0.62666832574E+01 -0.47140852505E+03  0.47937439891E+03  0.00000000000E+00 0.  1.
          2    1    6    6  503    0 -0.40207628386E+03  0.12790043777E+03 -0.33771444269E+03  0.54043954780E+03  0.00000000000E+00 0. -1.
         -2    1    6    6    0  503 -0.30718325305E+03  0.43528941310E+02 -0.17735642168E+03  0.35736762584E+03  0.00000000000E+00 0.  1.
<mgrwt>
<rscale>  0 0.16226982E+04</rscale>
<asrwt>0</asrwt>
<pdfrwt beam="1">  1        2 0.30613525E+00 0.16226982E+04</pdfrwt>
<pdfrwt beam="2">  1       -1 0.50895040E-01 0.16226982E+04</pdfrwt>
<totfact> 0.28640359E+01</totfact>
</mgrwt>
</event>
<event>
12    6  0.1395358E-007  0.2801178E+04  0.7818608E-02  0.8302903E-01
         -1   -1    0    0    0  501 -0.00000000000E+00  0.00000000000E+00  0.14559484420E+04  0.14559484420E+04  0.00000000000E+00 0.  1.
          2   -1    0    0  501    0  0.00000000000E+00 -0.00000000000E+00 -0.13473348488E+04  0.13473348488E+04  0.00000000000E+00 0. -1.
         24    2    1    2    0    0 -0.57316342183E+03  0.72868367054E+03  0.89480038078E+03  0.12910640766E+04  0.81746735132E+02 0.  0.
        254    2    1    2    0    0  0.57316342183E+03 -0.72868367054E+03 -0.78618678758E+03  0.15122192141E+04  0.89956716637E+03 0.  0.
         23    2    4    4    0    0  0.70580773593E+03 -0.57423799930E+03 -0.88101933672E+03  0.12699654056E+04  0.93291048841E+02 0.  0.
         23    2    4    4    0    0 -0.13264431410E+03 -0.15444567124E+03  0.94832549141E+02  0.24225380854E+03  0.90805924637E+02 0.  0.
          2    1    3    3  502    0 -0.14578567009E+03  0.13554685692E+03  0.21007284404E+03  0.28940803691E+03  0.00000000000E+00 0. -1.
         -1    1    3    3    0  502 -0.42737775173E+03  0.59313681362E+03  0.68472753675E+03  0.10016560397E+04  0.00000000000E+00 0.  1.
         11    1    5    5    0    0  0.45905921648E+03 -0.39954104003E+03 -0.64157725310E+03  0.88430185943E+03  0.00000000000E+00 0.  1.
        -11    1    5    5    0    0  0.24674851945E+03 -0.17469695927E+03 -0.23944208362E+03  0.38566354616E+03  0.00000000000E+00 0. -1.
          3    1    6    6  503    0 -0.52854863839E+02 -0.82956453511E+01  0.40498792726E+02  0.67101464779E+02  0.00000000000E+00 0. -1.
         -3    1    6    6    0  503 -0.79789450264E+02 -0.14615002588E+03  0.54333756415E+02  0.17515234376E+03  0.00000000000E+00 0.  1.
<mgrwt>
<rscale>  0 0.28011784E+04</rscale>
<asrwt>0</asrwt>
<pdfrwt beam="1">  1        2 0.20728229E+00 0.28011784E+04</pdfrwt>
<pdfrwt beam="2">  1       -1 0.22399207E+00 0.28011784E+04</pdfrwt>
<totfact> 0.15915447E+00</totfact>
</mgrwt>
</event>
<event>
12    6  0.1395358E-007  0.3069056E+04  0.7818608E-02  0.8224282E-01
         -1   -1    0    0    0  501 -0.00000000000E+00  0.00000000000E+00  0.21856140178E+04  0.21856140178E+04  0.00000000000E+00 0.  1.
          2   -1    0    0  501    0  0.00000000000E+00 -0.00000000000E+00 -0.10773977347E+04  0.10773977347E+04  0.00000000000E+00 0. -1.
         24    2    1    2    0    0  0.54138126746E+03 -0.11556460406E+04  0.11214678824E+04  0.17007432072E+04  0.78903725425E+02 0.  0.
        254    2    1    2    0    0 -0.54138126746E+03  0.11556460406E+04 -0.13251599242E+02  0.15622685453E+04  0.90105269256E+03 0.  0.
         23    2    4    4    0    0 -0.77601420055E+03  0.76226704909E+03  0.39204092596E+02  0.10923565521E+04  0.91960766238E+02 0.  0.
         23    2    4    4    0    0  0.23463293310E+03  0.39337899149E+03 -0.52455691838E+02  0.46991199313E+03  0.90917750971E+02 0.  0.
          4    1    3    3  502    0  0.37681892070E+03 -0.87228977430E+03  0.80848091569E+03  0.12476070457E+04  0.00000000000E+00 0. -1.
         -3    1    3    3    0  502  0.16456234676E+03 -0.28335626628E+03  0.31298696667E+03  0.45313616156E+03  0.00000000000E+00 0.  1.
         11    1    5    5    0    0 -0.75692971863E+03  0.74282444187E+03  0.23256420489E+02  0.10607882029E+04  0.00000000000E+00 0.  1.
        -11    1    5    5    0    0 -0.19084481923E+02  0.19442607221E+02  0.15947672107E+02  0.31568349204E+02  0.00000000000E+00 0. -1.
          3    1    6    6  503    0  0.25689904059E+02  0.53124654167E+01 -0.30844056679E+01  0.26414144273E+02  0.00000000000E+00 0. -1.
         -3    1    6    6    0  503  0.20894302904E+03  0.38806652608E+03 -0.49371286170E+02  0.44349784886E+03  0.00000000000E+00 0.  1.
<mgrwt>
<rscale>  0 0.30690556E+04</rscale>
<asrwt>0</asrwt>
<pdfrwt beam="1">  1        2 0.16575350E+00 0.30690556E+04</pdfrwt>
<pdfrwt beam="2">  1       -1 0.33624831E+00 0.30690556E+04</pdfrwt>
<totfact> 0.41788488E-01</totfact>
</mgrwt>
</event>
<event>
12    6  0.1395358E-007  0.3073299E+04  0.7818608E-02  0.8223104E-01
         -1   -1    0    0    0  501 -0.00000000000E+00  0.00000000000E+00  0.84752478484E+03  0.84752478484E+03  0.00000000000E+00 0.  1.
          2   -1    0    0  501    0  0.00000000000E+00 -0.00000000000E+00 -0.27861037770E+04  0.27861037770E+04  0.00000000000E+00 0. -1.
         24    2    1    2    0    0 -0.11726116218E+04  0.69692455805E+03 -0.12802405801E+04  0.18724536169E+04  0.79653936461E+02 0.  0.
        254    2    1    2    0    0  0.11726116218E+04 -0.69692455805E+03 -0.65833841211E+03  0.17611749449E+04  0.89866894164E+03 0.  0.
         23    2    4    4    0    0  0.10938007130E+03  0.91553409937E+02  0.13530846456E+03  0.21521954634E+03  0.87550246573E+02 0.  0.
         23    2    4    4    0    0  0.10632315504E+04 -0.78847796799E+03 -0.79364687666E+03  0.15459553986E+04  0.89128523425E+02 0.  0.
          4    1    3    3  502    0 -0.73117941658E+03  0.43768581647E+03 -0.85197451542E+03  0.12050115303E+04  0.00000000000E+00 0. -1.
         -1    1    3    3    0  502 -0.44143220518E+03  0.25923874158E+03 -0.42826606463E+03  0.66744208664E+03  0.00000000000E+00 0.  1.
         11    1    5    5    0    0  0.12041634424E+03  0.83139624318E+02  0.99873048045E+02  0.17716353693E+03  0.00000000000E+00 0. -1.
        -11    1    5    5    0    0 -0.11036272933E+02  0.84137856189E+01  0.35435416513E+02  0.38056009409E+02  0.00000000000E+00 0.  1.
          1    1    6    6  503    0  0.43252654687E+03 -0.37558701684E+03 -0.34620669777E+03  0.66933093351E+03  0.00000000000E+00 0. -1.
         -1    1    6    6    0  503  0.63070500358E+03 -0.41289095115E+03 -0.44744017889E+03  0.87662446507E+03  0.00000000000E+00 0.  1.
<mgrwt>
<rscale>  0 0.30732992E+04</rscale>
<asrwt>0</asrwt>
<pdfrwt beam="1">  1        2 0.42863135E+00 0.30732992E+04</pdfrwt>
<pdfrwt beam="2">  1       -1 0.13038843E+00 0.30732992E+04</pdfrwt>
<totfact> 0.11467174E+00</totfact>
</mgrwt>
</event>
<event>
12    6  0.1395358E-007  0.1991757E+04  0.7818608E-02  0.8610484E-01
         -1   -1    0    0    0  501 -0.00000000000E+00  0.00000000000E+00  0.34017689977E+03  0.34017689977E+03  0.00000000000E+00 0.  1.
          2   -1    0    0  501    0  0.00000000000E+00 -0.00000000000E+00 -0.29154648593E+04  0.29154648593E+04  0.00000000000E+00 0. -1.
         24    2    1    2    0    0  0.51211231712E+03  0.53178357529E+03 -0.14808702890E+04  0.16565896278E+04  0.79117544858E+02 0.  0.
        254    2    1    2    0    0 -0.51211231712E+03 -0.53178357529E+03 -0.10944176705E+04  0.15990521312E+04  0.90231085804E+03 0.  0.
         23    2    4    4    0    0 -0.75366205958E+03 -0.48574535422E+03 -0.89226428200E+03  0.12680983353E+04  0.89346459844E+02 0.  0.
         23    2    4    4    0    0  0.24154974246E+03 -0.46038221066E+02 -0.20215338849E+03  0.33095379589E+03  0.90546268048E+02 0.  0.
          2    1    3    3  502    0  0.30554232338E+03  0.36657570658E+03 -0.98871039581E+03  0.10978534086E+04  0.00000000000E+00 0. -1.
         -1    1    3    3    0  502  0.20656999374E+03  0.16520786871E+03 -0.49215989319E+03  0.55873621922E+03  0.00000000000E+00 0.  1.
         11    1    5    5    0    0 -0.20692581087E+03 -0.17780933819E+03 -0.24677860418E+03  0.36787787571E+03  0.00000000000E+00 0. -1.
        -11    1    5    5    0    0 -0.54673624871E+03 -0.30793601603E+03 -0.64548567782E+03  0.90022045961E+03  0.00000000000E+00 0.  1.
          2    1    6    6  503    0  0.20047047435E+03 -0.66240258002E+02 -0.18888700634E+03  0.28329222374E+03  0.00000000000E+00 0.  1.
         -2    1    6    6    0  503  0.41079268109E+02  0.20202036936E+02 -0.13266382142E+02  0.47661572150E+02  0.00000000000E+00 0. -1.
<mgrwt>
<rscale>  0 0.19917568E+04</rscale>
<asrwt>0</asrwt>
<pdfrwt beam="1">  1        2 0.44853305E+00 0.19917568E+04</pdfrwt>
<pdfrwt beam="2">  1       -1 0.52334909E-01 0.19917568E+04</pdfrwt>
<totfact> 0.76649164E+00</totfact>
</mgrwt>
</event>
<event>
12    6  0.1395358E-007  0.4822464E+04  0.7818608E-02  0.7856493E-01
         -1   -1    0    0    0  501 -0.00000000000E+00  0.00000000000E+00  0.13651839483E+04  0.13651839483E+04  0.00000000000E+00 0.  1.
          2   -1    0    0  501    0  0.00000000000E+00 -0.00000000000E+00 -0.42587953063E+04  0.42587953063E+04  0.00000000000E+00 0. -1.
         24    2    1    2    0    0 -0.19677167706E+04  0.12221096645E+04 -0.16676018009E+04  0.28552726111E+04  0.78896108761E+02 0.  0.
        254    2    1    2    0    0  0.19677167706E+04 -0.12221096645E+04 -0.12260095571E+04  0.27687066435E+04  0.89284697578E+03 0.  0.
         23    2    4    4    0    0  0.49629509367E+03 -0.43048587399E+03 -0.80520322045E+03  0.10432533170E+04  0.91642508932E+02 0.  0.
         23    2    4    4    0    0  0.14714216770E+04 -0.79162379049E+03 -0.42080633667E+03  0.17254533265E+04  0.91439772186E+02 0.  0.
          2    1    3    3  502    0 -0.12602893311E+04  0.82320551195E+03 -0.10642579514E+04  0.18435404796E+04  0.00000000000E+00 0. -1.
         -1    1    3    3    0  502 -0.70742743956E+03  0.39890415254E+03 -0.60334384954E+03  0.10117321315E+04  0.00000000000E+00 0.  1.
         11    1    5    5    0    0  0.29786078918E+02 -0.68757451883E+01 -0.20280473401E+02  0.36684928384E+02  0.00000000000E+00 0. -1.
        -11    1    5    5    0    0  0.46650901475E+03 -0.42361012880E+03 -0.78492274705E+03  0.10065683886E+04  0.00000000000E+00 0.  1.
          4    1    6    6  503    0  0.13506393201E+03 -0.45101181227E+02 -0.27986404290E+02  0.14511933401E+03  0.00000000000E+00 0. -1.
         -4    1    6    6    0  503  0.13363577450E+04 -0.74652260927E+03 -0.39281993238E+03  0.15803339925E+04  0.00000000000E+00 0.  1.
<mgrwt>
<rscale>  0 0.48224637E+04</rscale>
<asrwt>0</asrwt>
<pdfrwt beam="1">  1        2 0.65519927E+00 0.48224637E+04</pdfrwt>
<pdfrwt beam="2">  1       -1 0.21002830E+00 0.48224637E+04</pdfrwt>
<totfact> 0.22072216E-02</totfact>
</mgrwt>
</event>
<event>
12    6  0.1395358E-007  0.1957005E+04  0.7818608E-02  0.8626990E-01
         -1   -1    0    0    0  501 -0.00000000000E+00  0.00000000000E+00  0.14015125256E+04  0.14015125256E+04  0.00000000000E+00 0.  1.
          2   -1    0    0  501    0  0.00000000000E+00 -0.00000000000E+00 -0.68316670397E+03  0.68316670397E+03  0.00000000000E+00 0. -1.
         24    2    1    2    0    0 -0.63005061348E+03 -0.26000675350E+03  0.66543350176E+03  0.95557606653E+03  0.75872170439E+02 0.  0.
        254    2    1    2    0    0  0.63005061348E+03  0.26000675350E+03  0.52912319851E+02  0.11291031630E+04  0.89861390582E+03 0.  0.
         23    2    4    4    0    0  0.32961587339E+03 -0.18530996788E+03 -0.29013675283E+03  0.48513265178E+03  0.90487271446E+02 0.  0.
         23    2    4    4    0    0  0.30043474009E+03  0.44531672139E+03  0.34304907269E+03  0.64397051124E+03  0.91909399244E+02 0.  0.
          2    1    3    3  502    0 -0.98542395651E+02 -0.54551324506E+02  0.76922706597E+02  0.13639484424E+03  0.00000000000E+00 0. -1.
         -1    1    3    3    0  502 -0.53150821783E+03 -0.20545542900E+03  0.58851079516E+03  0.81918122228E+03  0.00000000000E+00 0.  1.
         11    1    5    5    0    0  0.14071344281E+03 -0.52913210407E+02 -0.68396070208E+02  0.16516084052E+03  0.00000000000E+00 0.  1.
        -11    1    5    5    0    0  0.18890243058E+03 -0.13239675748E+03 -0.22174068263E+03  0.31997181126E+03  0.00000000000E+00 0. -1.
          2    1    6    6  503    0  0.19206501369E+03  0.21925331261E+03  0.21688143185E+03  0.36331603330E+03  0.00000000000E+00 0. -1.
         -2    1    6    6    0  503  0.10836972640E+03  0.22606340878E+03  0.12616764083E+03  0.28065447793E+03  0.00000000000E+00 0.  1.
<mgrwt>
<rscale>  0 0.19570045E+04</rscale>
<asrwt>0</asrwt>
<pdfrwt beam="1">  1        2 0.10510257E+00 0.19570045E+04</pdfrwt>
<pdfrwt beam="2">  1       -1 0.21561731E+00 0.19570045E+04</pdfrwt>
<totfact> 0.52961626E+00</totfact>
</mgrwt>
</event>
<event>
12    6  0.1395358E-007  0.1215875E+04  0.7818608E-02  0.9099074E-01
          2   -1    0    0  501    0  0.00000000000E+00  0.00000000000E+00  0.11090290561E+04  0.11090290561E+04  0.00000000000E+00 0. -1.
         -1   -1    0    0    0  501 -0.00000000000E+00 -0.00000000000E+00 -0.33325346814E+03  0.33325346814E+03  0.00000000000E+00 0.  1.
         24    2    1    2    0    0 -0.25896985530E+03  0.70519862022E+02  0.17920823162E+03  0.33244076299E+03  0.79767372562E+02 0.  0.
        254    2    1    2    0    0  0.25896985530E+03 -0.70519862022E+02  0.59656735637E+03  0.11098417613E+04  0.89655880314E+03 0.  0.
         23    2    4    4    0    0 -0.32034395218E+03 -0.10287839418E+03  0.21904916233E+03  0.41165230511E+03  0.90944340662E+02 0.  0.
         23    2    4    4    0    0  0.57931380748E+03  0.32358532160E+02  0.37751819404E+03  0.69818945616E+03  0.91087692489E+02 0.  0.
          4    1    3    3  502    0 -0.19999379875E+03  0.83894077712E+02  0.15811017922E+03  0.26839255688E+03  0.00000000000E+00 0. -1.
         -3    1    3    3    0  502 -0.58976056548E+02 -0.13374215691E+02  0.21098052393E+02  0.64048206111E+02  0.00000000000E+00 0.  1.
         11    1    5    5    0    0 -0.18253909134E+03 -0.93719706434E+02  0.16515260455E+03  0.26339947994E+03  0.00000000000E+00 0. -1.
        -11    1    5    5    0    0 -0.13780486084E+03 -0.91586877478E+01  0.53896557783E+02  0.14825282517E+03  0.00000000000E+00 0.  1.
          4    1    6    6  503    0  0.17982918346E+03 -0.48954155658E+01  0.16527700456E+03  0.24429283361E+03  0.00000000000E+00 0.  1.
         -4    1    6    6    0  503  0.39948462402E+03  0.37253947726E+02  0.21224118948E+03  0.45389662255E+03  0.00000000000E+00 0. -1.
<mgrwt>
<rscale>  0 0.12158746E+04</rscale>
<asrwt>0</asrwt>
<pdfrwt beam="1">  1        2 0.17061985E+00 0.12158746E+04</pdfrwt>
<pdfrwt beam="2">  1       -1 0.51269765E-01 0.12158746E+04</pdfrwt>
<totfact> 0.92474512E+01</totfact>
</mgrwt>
</event>
<event>
12    6  0.1395358E-007  0.3252601E+04  0.7818608E-02  0.8175062E-01
          2   -1    0    0  501    0  0.00000000000E+00  0.00000000000E+00  0.40131320771E+04  0.40131320771E+04  0.00000000000E+00 0. -1.
         -1   -1    0    0    0  501 -0.00000000000E+00 -0.00000000000E+00 -0.65904964180E+03  0.65904964180E+03  0.00000000000E+00 0.  1.
         24    2    1    2    0    0  0.14817307944E+04  0.23577322969E+03  0.15673643382E+04  0.21711793811E+04  0.79207155124E+02 0.  0.
        254    2    1    2    0    0 -0.14817307944E+04 -0.23577322969E+03  0.17867180971E+04  0.25010023378E+04  0.90085291370E+03 0.  0.
         23    2    4    4    0    0 -0.50396842925E+03 -0.10543937976E+03  0.12917881294E+04  0.13936156351E+04  0.91358231597E+02 0.  0.
         23    2    4    4    0    0 -0.97776236516E+03 -0.13033384993E+03  0.49492996766E+03  0.11073867027E+04  0.91342658543E+02 0.  0.
          2    1    3    3  502    0  0.73453958060E+03  0.11395229725E+03  0.71945478304E+03  0.10344799207E+04  0.00000000000E+00 0. -1.
         -1    1    3    3    0  502  0.74719121381E+03  0.12182093244E+03  0.84790955514E+03  0.11366994604E+04  0.00000000000E+00 0.  1.
         11    1    5    5    0    0 -0.25710390726E+03 -0.10249431727E+02  0.59315171441E+03  0.64655736504E+03  0.00000000000E+00 0.  1.
        -11    1    5    5    0    0 -0.24686452199E+03 -0.95189948033E+02  0.69863641504E+03  0.74705827005E+03  0.00000000000E+00 0. -1.
          3    1    6    6  503    0 -0.20486064673E+03  0.83104484695E+01  0.11473381191E+03  0.23494849590E+03  0.00000000000E+00 0. -1.
         -3    1    6    6    0  503 -0.77290171843E+03 -0.13864429840E+03  0.38019615576E+03  0.87243820680E+03  0.00000000000E+00 0.  1.
<mgrwt>
<rscale>  0 0.32526010E+04</rscale>
<asrwt>0</asrwt>
<pdfrwt beam="1">  1        2 0.61740492E+00 0.32526010E+04</pdfrwt>
<pdfrwt beam="2">  1       -1 0.10139226E+00 0.32526010E+04</pdfrwt>
<totfact> 0.29284986E-01</totfact>
</mgrwt>
</event>
<event>
12    6  0.1395358E-007  0.3467157E+04  0.7818608E-02  0.8121618E-01
         -1   -1    0    0    0  501 -0.00000000000E+00  0.00000000000E+00  0.85350511995E+03  0.85350511995E+03  0.00000000000E+00 0.  1.
          2   -1    0    0  501    0  0.00000000000E+00 -0.00000000000E+00 -0.35211198744E+04  0.35211198744E+04  0.00000000000E+00 0. -1.
         24    2    1    2    0    0 -0.11036212684E+04  0.11285948734E+04 -0.16776027613E+04  0.23048752165E+04  0.79952778195E+02 0.  0.
        254    2    1    2    0    0  0.11036212684E+04 -0.11285948734E+04 -0.99001199313E+03  0.20697497778E+04  0.90112934928E+03 0.  0.
         23    2    4    4    0    0  0.46717239565E+03 -0.79980969536E+03 -0.97433160997E+03  0.13473907102E+04  0.90520956470E+02 0.  0.
         23    2    4    4    0    0  0.63644887272E+03 -0.32878517801E+03 -0.15680383157E+02  0.72235906769E+03  0.91596328481E+02 0.  0.
          2    1    3    3  502    0 -0.55306763315E+03  0.58507248696E+03 -0.80068499019E+03  0.11354690993E+04  0.00000000000E+00 0. -1.
         -1    1    3    3    0  502 -0.55055363522E+03  0.54352238641E+03 -0.87691777115E+03  0.11694061173E+04  0.00000000000E+00 0.  1.
         11    1    5    5    0    0  0.15226594824E+03 -0.29054133166E+03 -0.28725787302E+03  0.43602324480E+03  0.00000000000E+00 0. -1.
        -11    1    5    5    0    0  0.31490644742E+03 -0.50926836370E+03 -0.68707373695E+03  0.91136746535E+03  0.00000000000E+00 0.  1.
          3    1    6    6  503    0  0.28830313190E+03 -0.19329678593E+03  0.15716647647E+02  0.34746130191E+03  0.00000000000E+00 0. -1.
         -3    1    6    6    0  503  0.34814574082E+03 -0.13548839208E+03 -0.31397030804E+02  0.37489776578E+03  0.00000000000E+00 0.  1.
<mgrwt>
<rscale>  0 0.34671567E+04</rscale>
<asrwt>0</asrwt>
<pdfrwt beam="1">  1        2 0.54171075E+00 0.34671567E+04</pdfrwt>
<pdfrwt beam="2">  1       -1 0.13130848E+00 0.34671567E+04</pdfrwt>
<totfact> 0.36273759E-01</totfact>
</mgrwt>
</event>
<event>
12    6  0.1395358E-007  0.1654382E+04  0.7818608E-02  0.8787818E-01
          2   -1    0    0  501    0  0.00000000000E+00  0.00000000000E+00  0.21057879831E+04  0.21057879831E+04  0.00000000000E+00 0. -1.
         -1   -1    0    0    0  501 -0.00000000000E+00 -0.00000000000E+00 -0.32493551986E+03  0.32493551986E+03  0.00000000000E+00 0.  1.
         24    2    1    2    0    0  0.50965646315E+03 -0.24002024119E+02  0.10448556299E+04  0.11655038620E+04  0.79687875353E+02 0.  0.
        254    2    1    2    0    0 -0.50965646315E+03  0.24002024119E+02  0.73599683337E+03  0.12652196410E+04  0.89373575152E+03 0.  0.
         23    2    4    4    0    0 -0.12905842728E+03 -0.27302509655E+03  0.70572975057E+03  0.77299055817E+03  0.90890820068E+02 0.  0.
         23    2    4    4    0    0 -0.38059803587E+03  0.29702712066E+03  0.30267082791E+02  0.49222908279E+03  0.91068097190E+02 0.  0.
          2    1    3    3  502    0  0.37064822341E+03 -0.20495588128E+02  0.83453509589E+03  0.91337232328E+03  0.00000000000E+00 0. -1.
         -1    1    3    3    0  502  0.13900823974E+03 -0.35064359907E+01  0.21032053402E+03  0.25213153876E+03  0.00000000000E+00 0.  1.
         11    1    5    5    0    0  0.47292463283E+01 -0.68379795497E+02  0.19638651226E+03  0.20800438553E+03  0.00000000000E+00 0.  1.
        -11    1    5    5    0    0 -0.13378767361E+03 -0.20464530105E+03  0.50934323831E+03  0.56498617263E+03  0.00000000000E+00 0. -1.
          3    1    6    6  503    0 -0.30707151456E+03  0.26766922828E+03 -0.31417896967E+00  0.40735712775E+03  0.00000000000E+00 0. -1.
         -3    1    6    6    0  503 -0.73526521309E+02  0.29357892385E+02  0.30581261761E+02  0.84871955038E+02  0.00000000000E+00 0.  1.
<mgrwt>
<rscale>  0 0.16543824E+04</rscale>
<asrwt>0</asrwt>
<pdfrwt beam="1">  1        2 0.32396737E+00 0.16543824E+04</pdfrwt>
<pdfrwt beam="2">  1       -1 0.49990081E-01 0.16543824E+04</pdfrwt>
<totfact> 0.25479704E+01</totfact>
</mgrwt>
</event>
<event>
12    6  0.1395358E-007  0.2598213E+04  0.7818608E-02  0.8368808E-01
         -1   -1    0    0    0  501 -0.00000000000E+00  0.00000000000E+00  0.88141480975E+03  0.88141480975E+03  0.00000000000E+00 0.  1.
          2   -1    0    0  501    0  0.00000000000E+00 -0.00000000000E+00 -0.19147371069E+04  0.19147371069E+04  0.00000000000E+00 0. -1.
         24    2    1    2    0    0  0.68243934676E+03  0.17756262180E+03 -0.14219309927E+04  0.15892399077E+04  0.80893691921E+02 0.  0.
        254    2    1    2    0    0 -0.68243934676E+03 -0.17756262180E+03  0.38860869556E+03  0.12069120090E+04  0.89909283866E+03 0.  0.
         23    2    4    4    0    0 -0.54819860298E+03 -0.49907489771E+01 -0.18628380705E+03  0.58610109221E+03  0.90918741928E+02 0.  0.
         23    2    4    4    0    0 -0.13424074378E+03 -0.17257187282E+03  0.57489250261E+03  0.62081091679E+03  0.84280343285E+02 0.  0.
          4    1    3    3  502    0  0.46502135926E+03  0.85205599894E+02 -0.98322933018E+03  0.10909833979E+04  0.00000000000E+00 0. -1.
         -3    1    3    3    0  502  0.21741798750E+03  0.92357021906E+02 -0.43870166255E+03  0.49825650975E+03  0.00000000000E+00 0.  1.
         11    1    5    5    0    0 -0.29869608803E+03 -0.14666875705E+02 -0.55249087129E+02  0.30411664189E+03  0.00000000000E+00 0. -1.
        -11    1    5    5    0    0 -0.24950251495E+03  0.96761267283E+01 -0.13103471992E+03  0.28198445032E+03  0.00000000000E+00 0.  1.
          2    1    6    6  503    0  0.55805850880E+01 -0.42681333748E+02  0.91901453869E+02  0.10148259163E+03  0.00000000000E+00 0. -1.
         -2    1    6    6    0  503 -0.13982132887E+03 -0.12989053907E+03  0.48299104874E+03  0.51932832516E+03  0.00000000000E+00 0.  1.
<mgrwt>
<rscale>  0 0.25982130E+04</rscale>
<asrwt>0</asrwt>
<pdfrwt beam="1">  1        2 0.29457494E+00 0.25982130E+04</pdfrwt>
<pdfrwt beam="2">  1       -1 0.13560228E+00 0.25982130E+04</pdfrwt>
<totfact> 0.34163502E+00</totfact>
</mgrwt>
</event>
<event>
12    6  0.1395358E-007  0.1797742E+04  0.7818608E-02  0.8707501E-01
         -1   -1    0    0    0  501 -0.00000000000E+00  0.00000000000E+00  0.79964811066E+03  0.79964811066E+03  0.00000000000E+00 0.  1.
          2   -1    0    0  501    0  0.00000000000E+00 -0.00000000000E+00 -0.10104054311E+04  0.10104054311E+04  0.00000000000E+00 0. -1.
         24    2    1    2    0    0  0.50364880239E+03  0.40591974239E+03  0.10561615190E+03  0.66027381249E+03  0.79835972452E+02 0.  0.
        254    2    1    2    0    0 -0.50364880239E+03 -0.40591974239E+03 -0.31637347230E+03  0.11497797292E+04  0.89636393189E+03 0.  0.
         23    2    4    4    0    0 -0.26544304607E+03 -0.39397088947E+03  0.23787726725E+03  0.53992955493E+03  0.96256207863E+02 0.  0.
         23    2    4    4    0    0 -0.23820575632E+03 -0.11948852918E+02 -0.55425073955E+03  0.60985017431E+03  0.88535842398E+02 0.  0.
          4    1    3    3  502    0  0.68022107735E+02  0.27093429324E+02  0.24992195502E+02  0.77367117623E+02  0.00000000000E+00 0. -1.
         -3    1    3    3    0  502  0.43562669466E+03  0.37882631307E+03  0.80623956393E+02  0.58290669486E+03  0.00000000000E+00 0.  1.
         11    1    5    5    0    0 -0.56239590578E+02 -0.15449069930E+03  0.10638335365E+03  0.19582565116E+03  0.00000000000E+00 0. -1.
        -11    1    5    5    0    0 -0.20920345549E+03 -0.23948019018E+03  0.13149391360E+03  0.34410390377E+03  0.00000000000E+00 0.  1.
          3    1    6    6  503    0 -0.23369606729E+03 -0.32033715851E+01 -0.46874850878E+03  0.52378361748E+03  0.00000000000E+00 0. -1.
         -3    1    6    6    0  503 -0.45096890325E+01 -0.87454813334E+01 -0.85502230768E+02  0.86066556834E+02  0.00000000000E+00 0.  1.
<mgrwt>
<rscale>  0 0.17977417E+04</rscale>
<asrwt>0</asrwt>
<pdfrwt beam="1">  1        2 0.15544699E+00 0.17977417E+04</pdfrwt>
<pdfrwt beam="2">  1       -1 0.12302279E+00 0.17977417E+04</pdfrwt>
<totfact> 0.15559205E+01</totfact>
</mgrwt>
</event>
<event>
12    6  0.1395358E-007  0.1611012E+04  0.7818608E-02  0.8813811E-01
          2   -1    0    0  501    0  0.00000000000E+00  0.00000000000E+00  0.63036014119E+03  0.63036014119E+03  0.00000000000E+00 0. -1.
         -1   -1    0    0    0  501 -0.00000000000E+00 -0.00000000000E+00 -0.10293165533E+04  0.10293165533E+04  0.00000000000E+00 0.  1.
         24    2    1    2    0    0 -0.12356989631E+03  0.41796120239E+03  0.20851520087E+03  0.48991302192E+03  0.81086953813E+02 0.  0.
        254    2    1    2    0    0  0.12356989631E+03 -0.41796120239E+03 -0.60747161295E+03  0.11697636725E+04  0.89964671016E+03 0.  0.
         23    2    4    4    0    0 -0.35103843797E+03 -0.75208645801E+01 -0.18165705357E+03  0.40620285915E+03  0.93364497150E+02 0.  0.
         23    2    4    4    0    0  0.47460833428E+03 -0.41044033781E+03 -0.42581455937E+03  0.76356081340E+03  0.89402096812E+02 0.  0.
          4    1    3    3  502    0 -0.11563142980E+03  0.25303716189E+03  0.12994090981E+03  0.30705548831E+03  0.00000000000E+00 0. -1.
         -3    1    3    3    0  502 -0.79384665034E+01  0.16492404050E+03  0.78574291054E+02  0.18285753361E+03  0.00000000000E+00 0.  1.
         11    1    5    5    0    0 -0.28976532364E+03  0.30241406793E+02 -0.14473195193E+03  0.32530881233E+03  0.00000000000E+00 0. -1.
        -11    1    5    5    0    0 -0.61273114330E+02 -0.37762271373E+02 -0.36925101645E+02  0.80894046817E+02  0.00000000000E+00 0.  1.
          4    1    6    6  503    0  0.28121887499E+03 -0.28696124419E+03 -0.30362027356E+03  0.50360309951E+03  0.00000000000E+00 0. -1.
         -4    1    6    6    0  503  0.19338945929E+03 -0.12347909361E+03 -0.12219428582E+03  0.25995771389E+03  0.00000000000E+00 0.  1.
<mgrwt>
<rscale>  0 0.16110123E+04</rscale>
<asrwt>0</asrwt>
<pdfrwt beam="1">  1        2 0.96978483E-01 0.16110123E+04</pdfrwt>
<pdfrwt beam="2">  1       -1 0.15835639E+00 0.16110123E+04</pdfrwt>
<totfact> 0.15373341E+01</totfact>
</mgrwt>
</event>
<event>
12    6  0.1395358E-007  0.2318533E+04  0.7818608E-02  0.8470649E-01
         -1   -1    0    0    0  501 -0.00000000000E+00  0.00000000000E+00  0.86264341631E+03  0.86264341631E+03  0.00000000000E+00 0.  1.
          2   -1    0    0  501    0  0.00000000000E+00 -0.00000000000E+00 -0.15578849910E+04  0.15578849910E+04  0.00000000000E+00 0. -1.
         24    2    1    2    0    0  0.81125859669E+03  0.52916619014E+03 -0.12440025374E+03  0.97947499406E+03  0.75752711862E+02 0.  0.
        254    2    1    2    0    0 -0.81125859669E+03 -0.52916619014E+03 -0.57084132091E+03  0.14410534132E+04  0.90145313722E+03 0.  0.
         23    2    4    4    0    0 -0.58041848188E+03  0.13908924298E+03 -0.19319787088E+03  0.63425467453E+03  0.93392415289E+02 0.  0.
         23    2    4    4    0    0 -0.23084011482E+03 -0.66825543312E+03 -0.37764345004E+03  0.80679873869E+03  0.91962747322E+02 0.  0.
          2    1    3    3  502    0  0.56643377453E+03  0.37726593435E+03 -0.12155711930E+03  0.69134140582E+03  0.00000000000E+00 0. -1.
         -1    1    3    3    0  502  0.24482482216E+03  0.15190025579E+03 -0.28431344437E+01  0.28813358824E+03  0.00000000000E+00 0.  1.
         11    1    5    5    0    0 -0.46336184074E+03  0.71220734014E+02 -0.15060766052E+03  0.49240151890E+03  0.00000000000E+00 0.  1.
        -11    1    5    5    0    0 -0.11705664114E+03  0.67868508968E+02 -0.42590210360E+02  0.14185315563E+03  0.00000000000E+00 0. -1.
          1    1    6    6  503    0 -0.83023581236E+02 -0.24235239032E+03 -0.87650431906E+02  0.27075855360E+03  0.00000000000E+00 0. -1.
         -1    1    6    6    0  503 -0.14781653358E+03 -0.42590304280E+03 -0.28999301813E+03  0.53604018509E+03  0.00000000000E+00 0.  1.
<mgrwt>
<rscale>  0 0.23185334E+04</rscale>
<asrwt>0</asrwt>
<pdfrwt beam="1">  1        2 0.23967461E+00 0.23185334E+04</pdfrwt>
<pdfrwt beam="2">  1       -1 0.13271437E+00 0.23185334E+04</pdfrwt>
<totfact> 0.58426393E+00</totfact>
</mgrwt>
</event>
<event>
12    6  0.1395358E-007  0.2221894E+04  0.7818608E-02  0.8509370E-01
         -1   -1    0    0    0  501 -0.00000000000E+00  0.00000000000E+00  0.62368246664E+03  0.62368246664E+03  0.00000000000E+00 0.  1.
          2   -1    0    0  501    0  0.00000000000E+00 -0.00000000000E+00 -0.19788960689E+04  0.19788960689E+04  0.00000000000E+00 0. -1.
         24    2    1    2    0    0  0.64681930440E+03 -0.56911616317E+03 -0.95824325912E+03  0.12910376713E+04  0.79244591418E+02 0.  0.
        254    2    1    2    0    0 -0.64681930440E+03  0.56911616317E+03 -0.39697034310E+03  0.13115408642E+04  0.90569617728E+03 0.  0.
         23    2    4    4    0    0 -0.54723408094E+03  0.10085200670E+03  0.14540054296E+03  0.58260285466E+03  0.92997321275E+02 0.  0.
         23    2    4    4    0    0 -0.99585223456E+02  0.46826415647E+03 -0.54237088606E+03  0.72893800958E+03  0.89419834463E+02 0.  0.
          2    1    3    3  502    0  0.56426949220E+03 -0.45792293131E+03 -0.80451330135E+03  0.10841287391E+04  0.00000000000E+00 0. -1.
         -1    1    3    3    0  502  0.82549812202E+02 -0.11119323186E+03 -0.15372995777E+03  0.20690893219E+03  0.00000000000E+00 0.  1.
         11    1    5    5    0    0 -0.28840298752E+03  0.60027345665E+01  0.70917743432E+02  0.29705494840E+03  0.00000000000E+00 0.  1.
        -11    1    5    5    0    0 -0.25883109342E+03  0.94849272130E+02  0.74482799529E+02  0.28554790626E+03  0.00000000000E+00 0. -1.
          1    1    6    6  503    0 -0.82900052896E+02  0.45074878811E+03 -0.53311986593E+03  0.70303888953E+03  0.00000000000E+00 0. -1.
         -1    1    6    6    0  503 -0.16685170560E+02  0.17515368363E+02 -0.92510201310E+01  0.25899120042E+02  0.00000000000E+00 0.  1.
<mgrwt>
<rscale>  0 0.22218936E+04</rscale>
<asrwt>0</asrwt>
<pdfrwt beam="1">  1        2 0.30444554E+00 0.22218936E+04</pdfrwt>
<pdfrwt beam="2">  1       -1 0.95951150E-01 0.22218936E+04</pdfrwt>
<totfact> 0.74632954E+00</totfact>
</mgrwt>
</event>
<event>
12    6  0.1395358E-007  0.1697335E+04  0.7818608E-02  0.8762886E-01
         -1   -1    0    0    0  501 -0.00000000000E+00  0.00000000000E+00  0.30709467440E+03  0.30709467440E+03  0.00000000000E+00 0.  1.
          2   -1    0    0  501    0  0.00000000000E+00 -0.00000000000E+00 -0.23453249793E+04  0.23453249793E+04  0.00000000000E+00 0. -1.
         24    2    1    2    0    0  0.13179462443E+03 -0.22049025141E+03  0.11828722876E+03  0.29376100686E+03  0.79485134875E+02 0.  0.
        254    2    1    2    0    0 -0.13179462443E+03  0.22049025141E+03 -0.21565175337E+04  0.23586586469E+04  0.92017224764E+03 0.  0.
         23    2    4    4    0    0 -0.41450826396E+03  0.47417856714E+02 -0.18489208330E+04  0.18975214017E+04  0.89519098998E+02 0.  0.
         23    2    4    4    0    0  0.28271363953E+03  0.17307239470E+03 -0.30759670068E+03  0.46113724519E+03  0.90281630703E+02 0.  0.
          4    1    3    3  502    0 -0.63779646152E+01 -0.95048941671E+01  0.20076342763E+02  0.23110192221E+02  0.00000000000E+00 0. -1.
         -3    1    3    3    0  502  0.13817258904E+03 -0.21098535724E+03  0.98210885996E+02  0.27065081463E+03  0.00000000000E+00 0.  1.
         11    1    5    5    0    0 -0.24279790160E+02 -0.10193005038E+02 -0.21759585139E+03  0.21918339377E+03  0.00000000000E+00 0.  1.
        -11    1    5    5    0    0 -0.39022847380E+03  0.57610861753E+02 -0.16313249816E+04  0.16783380079E+04  0.00000000000E+00 0. -1.
          2    1    6    6  503    0  0.21517818902E+03  0.90490284609E+02 -0.17969693707E+03  0.29458637753E+03  0.00000000000E+00 0. -1.
         -2    1    6    6    0  503  0.67535450519E+02  0.82582110086E+02 -0.12789976361E+03  0.16655086765E+03  0.00000000000E+00 0.  1.
<mgrwt>
<rscale>  0 0.16973353E+04</rscale>
<asrwt>0</asrwt>
<pdfrwt beam="1">  1        2 0.36081924E+00 0.16973353E+04</pdfrwt>
<pdfrwt beam="2">  1       -1 0.47245332E-01 0.16973353E+04</pdfrwt>
<totfact> 0.20715179E+01</totfact>
</mgrwt>
</event>
<event>
12    6  0.1395358E-007  0.4704779E+04  0.7818608E-02  0.7875735E-01
         -1   -1    0    0    0  501 -0.00000000000E+00  0.00000000000E+00  0.19522316648E+04  0.19522316648E+04  0.00000000000E+00 0.  1.
          2   -1    0    0  501    0  0.00000000000E+00 -0.00000000000E+00 -0.28345696429E+04  0.28345696429E+04  0.00000000000E+00 0. -1.
         24    2    1    2    0    0 -0.43885490173E+03  0.16739987126E+04 -0.19132005976E+04  0.25809139211E+04  0.76907912687E+02 0.  0.
        254    2    1    2    0    0  0.43885490173E+03 -0.16739987126E+04  0.10308626194E+04  0.22058873866E+04  0.89910850734E+03 0.  0.
         23    2    4    4    0    0 -0.44801561836E+02 -0.99806130974E+03  0.19157571160E+03  0.10213503165E+04  0.91223120694E+02 0.  0.
         23    2    4    4    0    0  0.48365646357E+03 -0.67593740283E+03  0.83928690780E+03  0.11845370702E+04  0.88941608195E+02 0.  0.
          4    1    3    3  502    0 -0.34727450354E+03  0.11954567431E+04 -0.13913837608E+04  0.18669936195E+04  0.00000000000E+00 0. -1.
         -3    1    3    3    0  502 -0.91580398193E+02  0.47854196943E+03 -0.52181683674E+03  0.71392030154E+03  0.00000000000E+00 0.  1.
         11    1    5    5    0    0  0.23786449146E+02 -0.38411549615E+03  0.56300469678E+02  0.38894762171E+03  0.00000000000E+00 0. -1.
        -11    1    5    5    0    0 -0.68588010982E+02 -0.61394581359E+03  0.13527524192E+03  0.63240269477E+03  0.00000000000E+00 0.  1.
          4    1    6    6  503    0  0.26238899160E+03 -0.35378767814E+03  0.50643130471E+03  0.67118281452E+03  0.00000000000E+00 0. -1.
         -4    1    6    6    0  503  0.22126747197E+03 -0.32214972468E+03  0.33285560309E+03  0.51335425563E+03  0.00000000000E+00 0.  1.
<mgrwt>
<rscale>  0 0.47047791E+04</rscale>
<asrwt>0</asrwt>
<pdfrwt beam="1">  1        2 0.43608764E+00 0.47047791E+04</pdfrwt>
<pdfrwt beam="2">  1       -1 0.30034333E+00 0.47047791E+04</pdfrwt>
<totfact> 0.61308950E-02</totfact>
</mgrwt>
</event>
<event>
12    6  0.1395358E-007  0.3480294E+04  0.7818608E-02  0.8118476E-01
          2   -1    0    0  501    0  0.00000000000E+00  0.00000000000E+00  0.39333483858E+04  0.39333483858E+04  0.00000000000E+00 0. -1.
         -1   -1    0    0    0  501 -0.00000000000E+00 -0.00000000000E+00 -0.76985610356E+03  0.76985610356E+03  0.00000000000E+00 0.  1.
         24    2    1    2    0    0 -0.73327935169E+03  0.96571459749E+03  0.17818812007E+02  0.12152817044E+04  0.79302077515E+02 0.  0.
        254    2    1    2    0    0  0.73327935169E+03 -0.96571459749E+03  0.31456734702E+04  0.34879227850E+04  0.89444982045E+03 0.  0.
         23    2    4    4    0    0  0.39146446786E+03 -0.21624519231E+03  0.21242763815E+04  0.21726157717E+04  0.87765218251E+02 0.  0.
         23    2    4    4    0    0  0.34181488382E+03 -0.74946940518E+03  0.10213970887E+04  0.13153070133E+04  0.90767407681E+02 0.  0.
          2    1    3    3  502    0 -0.19963647825E+03  0.29169391385E+03  0.36770408663E+02  0.35537603434E+03  0.00000000000E+00 0. -1.
         -1    1    3    3    0  502 -0.53364287344E+03  0.67402068364E+03 -0.18951596656E+02  0.85990567003E+03  0.00000000000E+00 0.  1.
         11    1    5    5    0    0  0.53061537129E+01 -0.21686936169E+02  0.76853653130E+02  0.80031009409E+02  0.00000000000E+00 0.  1.
        -11    1    5    5    0    0  0.38615831415E+03 -0.19455825614E+03  0.20474227284E+04  0.20925847623E+04  0.00000000000E+00 0. -1.
          1    1    6    6  503    0  0.17531232292E+03 -0.48853314832E+03  0.65197998905E+03  0.83335283866E+03  0.00000000000E+00 0. -1.
         -1    1    6    6    0  503  0.16650256091E+03 -0.26093625686E+03  0.36941709969E+03  0.48195417466E+03  0.00000000000E+00 0.  1.
<mgrwt>
<rscale>  0 0.34802944E+04</rscale>
<asrwt>0</asrwt>
<pdfrwt beam="1">  1        2 0.60513051E+00 0.34802944E+04</pdfrwt>
<pdfrwt beam="2">  1       -1 0.11843940E+00 0.34802944E+04</pdfrwt>
<totfact> 0.23047154E-01</totfact>
</mgrwt>
</event>
<event>
12    6  0.1395358E-007  0.2139174E+04  0.7818608E-02  0.8544181E-01
         -1   -1    0    0    0  501 -0.00000000000E+00  0.00000000000E+00  0.19739528894E+04  0.19739528894E+04  0.00000000000E+00 0.  1.
          2   -1    0    0  501    0  0.00000000000E+00 -0.00000000000E+00 -0.57955585462E+03  0.57955585462E+03  0.00000000000E+00 0. -1.
         24    2    1    2    0    0 -0.25152089628E+03  0.67032379602E+03 -0.31439836032E+02  0.72109948062E+03  0.79995280427E+02 0.  0.
        254    2    1    2    0    0  0.25152089628E+03 -0.67032379602E+03  0.14258368708E+04  0.18324092634E+04  0.90117488515E+03 0.  0.
         23    2    4    4    0    0  0.58206962961E+03 -0.45284520686E+03  0.87183836627E+03  0.11455251074E+04  0.90839416636E+02 0.  0.
         23    2    4    4    0    0 -0.33054873333E+03 -0.21747858916E+03  0.55399850452E+03  0.68688415601E+03  0.91302239389E+02 0.  0.
          2    1    3    3  502    0 -0.14194794513E+03  0.37013026804E+03 -0.57089901236E+02  0.40050579430E+03  0.00000000000E+00 0. -1.
         -1    1    3    3    0  502 -0.10957295114E+03  0.30019352798E+03  0.25650065205E+02  0.32059368632E+03  0.00000000000E+00 0.  1.
         11    1    5    5    0    0  0.32009887150E+03 -0.20241090809E+03  0.40444700764E+03  0.55408559378E+03  0.00000000000E+00 0. -1.
        -11    1    5    5    0    0  0.26197075811E+03 -0.25043429877E+03  0.46739135863E+03  0.59143951358E+03  0.00000000000E+00 0.  1.
          1    1    6    6  503    0 -0.21650266247E+03 -0.19009988743E+03  0.37544762654E+03  0.47325710806E+03  0.00000000000E+00 0. -1.
         -1    1    6    6    0  503 -0.11404607086E+03 -0.27378701731E+02  0.17855087798E+03  0.21362704795E+03  0.00000000000E+00 0.  1.
<mgrwt>
<rscale>  0 0.21391736E+04</rscale>
<asrwt>0</asrwt>
<pdfrwt beam="1">  1        2 0.89162440E-01 0.21391736E+04</pdfrwt>
<pdfrwt beam="2">  1       -1 0.30368506E+00 0.21391736E+04</pdfrwt>
<totfact> 0.16961871E+00</totfact>
</mgrwt>
</event>
<event>
12    6  0.1395358E-007  0.1800333E+04  0.7818608E-02  0.8706122E-01
          2   -1    0    0  501    0  0.00000000000E+00  0.00000000000E+00  0.22488459480E+04  0.22488459480E+04  0.00000000000E+00 0. -1.
         -1   -1    0    0    0  501 -0.00000000000E+00 -0.00000000000E+00 -0.36031814281E+03  0.36031814281E+03  0.00000000000E+00 0.  1.
         24    2    1    2    0    0  0.55028498210E+03 -0.23822877109E+03  0.27080229534E+03  0.66296519155E+03  0.81378456345E+02 0.  0.
        254    2    1    2    0    0 -0.55028498210E+03  0.23822877109E+03  0.16177255098E+04  0.19461988993E+04  0.90060414244E+03 0.  0.
         23    2    4    4    0    0  0.12493229893E+02  0.16406957603E+03 -0.43882217202E+02  0.18813388827E+03  0.79961267847E+02 0.  0.
         23    2    4    4    0    0 -0.56277821199E+03  0.74159195056E+02  0.16616077271E+04  0.17580650110E+04  0.87369572502E+02 0.  0.
          2    1    3    3  502    0  0.20206738063E+03 -0.94311523634E+02  0.14385655605E+03  0.26536879720E+03  0.00000000000E+00 0. -1.
         -3    1    3    3    0  502  0.34821760146E+03 -0.14391724745E+03  0.12694573929E+03  0.39759639436E+03  0.00000000000E+00 0.  1.
         11    1    5    5    0    0  0.39978874456E+02  0.10179785238E+03 -0.44242566011E+01  0.10945632553E+03  0.00000000000E+00 0. -1.
        -11    1    5    5    0    0 -0.27485644563E+02  0.62271723653E+02 -0.39457960601E+02  0.78677562739E+02  0.00000000000E+00 0.  1.
          3    1    6    6  503    0 -0.52206904838E+03  0.84467063569E+02  0.14796006440E+04  0.15712761826E+04  0.00000000000E+00 0. -1.
         -3    1    6    6    0  503 -0.40709163609E+02 -0.10307868513E+02  0.18200708301E+03  0.18678882842E+03  0.00000000000E+00 0.  1.
<mgrwt>
<rscale>  0 0.18003333E+04</rscale>
<asrwt>0</asrwt>
<pdfrwt beam="1">  1        2 0.34597629E+00 0.18003333E+04</pdfrwt>
<pdfrwt beam="2">  1       -1 0.55433562E-01 0.18003333E+04</pdfrwt>
<totfact> 0.17149424E+01</totfact>
</mgrwt>
</event>
<event>
12    6  0.1395358E-007  0.2055811E+04  0.7818608E-02  0.8580963E-01
         -1   -1    0    0    0  501 -0.00000000000E+00  0.00000000000E+00  0.10826116509E+04  0.10826116509E+04  0.00000000000E+00 0.  1.
          2   -1    0    0  501    0  0.00000000000E+00 -0.00000000000E+00 -0.97596356051E+03  0.97596356051E+03  0.00000000000E+00 0. -1.
         24    2    1    2    0    0 -0.66688864925E+03  0.76258090273E+02  0.52969756129E+03  0.85880293629E+03  0.80045050497E+02 0.  0.
        254    2    1    2    0    0  0.66688864925E+03 -0.76258090273E+02 -0.42304947094E+03  0.11997722751E+04  0.89995938261E+03 0.  0.
         23    2    4    4    0    0  0.70333614237E+03  0.13427103450E+03 -0.66942399637E+01  0.72296653964E+03  0.99626124720E+02 0.  0.
         23    2    4    4    0    0 -0.36447493117E+02 -0.21052912477E+03 -0.41635523098E+03  0.47680573544E+03  0.91329616514E+02 0.  0.
          4    1    3    3  502    0 -0.11440759097E+03  0.22586174321E+02  0.57378657188E+02  0.12996746686E+03  0.00000000000E+00 0. -1.
         -3    1    3    3    0  502 -0.55248105828E+03  0.53671915951E+02  0.47231890411E+03  0.72883546943E+03  0.00000000000E+00 0.  1.
         11    1    5    5    0    0  0.60011633549E+02  0.21170016546E+02 -0.27779813856E+02  0.69435465144E+02  0.00000000000E+00 0.  1.
        -11    1    5    5    0    0  0.64332450882E+03  0.11310101795E+03  0.21085573892E+02  0.65353107450E+03  0.00000000000E+00 0. -1.
          3    1    6    6  503    0 -0.38307698558E+02 -0.11819068506E+03 -0.32029748058E+03  0.34355056960E+03  0.00000000000E+00 0. -1.
         -3    1    6    6    0  503  0.18602054419E+01 -0.92338439706E+02 -0.96057750401E+02  0.13325516584E+03  0.00000000000E+00 0.  1.
<mgrwt>
<rscale>  0 0.20558108E+04</rscale>
<asrwt>0</asrwt>
<pdfrwt beam="1">  1        2 0.15014824E+00 0.20558108E+04</pdfrwt>
<pdfrwt beam="2">  1       -1 0.16655564E+00 0.20558108E+04</pdfrwt>
<totfact> 0.71868881E+00</totfact>
</mgrwt>
</event>
<event>
12    6  0.1395358E-007  0.2919720E+04  0.7818608E-02  0.8267034E-01
         -1   -1    0    0    0  501 -0.00000000000E+00  0.00000000000E+00  0.10040332792E+04  0.10040332792E+04  0.00000000000E+00 0.  1.
          2   -1    0    0  501    0  0.00000000000E+00 -0.00000000000E+00 -0.21226302817E+04  0.21226302817E+04  0.00000000000E+00 0. -1.
         24    2    1    2    0    0 -0.19319723247E+03  0.12528218692E+04 -0.11573972996E+03  0.12753621882E+04  0.79153138946E+02 0.  0.
        254    2    1    2    0    0  0.19319723247E+03 -0.12528218692E+04 -0.10028572725E+04  0.18513013727E+04  0.90261080038E+03 0.  0.
         23    2    4    4    0    0  0.31672621913E+03 -0.11065915838E+04 -0.41554239764E+03  0.12270293729E+04  0.89806271256E+02 0.  0.
         23    2    4    4    0    0 -0.12352898666E+03 -0.14623028537E+03 -0.58731487488E+03  0.62427199984E+03  0.90189027149E+02 0.  0.
          4    1    3    3  502    0 -0.16045419145E+03  0.10552644124E+04 -0.12625195619E+03  0.10748339797E+04  0.00000000000E+00 0. -1.
         -3    1    3    3    0  502 -0.32743041019E+02  0.19755745683E+03  0.10512226231E+02  0.20052820845E+03  0.00000000000E+00 0.  1.
         11    1    5    5    0    0  0.29652369822E+03 -0.10057865372E+04 -0.35162950728E+03  0.11059729528E+04  0.00000000000E+00 0. -1.
        -11    1    5    5    0    0  0.20202520909E+02 -0.10080504667E+03 -0.63912890359E+02  0.12105642007E+03  0.00000000000E+00 0.  1.
          4    1    6    6  503    0 -0.94834897292E+02 -0.56780749604E+02 -0.23580186534E+03  0.26042317671E+03  0.00000000000E+00 0.  1.
         -4    1    6    6    0  503 -0.28694089370E+02 -0.89449535765E+02 -0.35151300955E+03  0.36384882313E+03  0.00000000000E+00 0. -1.
<mgrwt>
<rscale>  0 0.29197202E+04</rscale>
<asrwt>0</asrwt>
<pdfrwt beam="1">  1        2 0.32655850E+00 0.29197202E+04</pdfrwt>
<pdfrwt beam="2">  1       -1 0.15446666E+00 0.29197202E+04</pdfrwt>
<totfact> 0.18016563E+00</totfact>
</mgrwt>
</event>
<event>
12    6  0.1395358E-007  0.2336565E+04  0.7818608E-02  0.8463642E-01
         -1   -1    0    0    0  501 -0.00000000000E+00  0.00000000000E+00  0.53735221563E+03  0.53735221563E+03  0.00000000000E+00 0.  1.
          2   -1    0    0  501    0  0.00000000000E+00 -0.00000000000E+00 -0.25400175441E+04  0.25400175441E+04  0.00000000000E+00 0. -1.
         24    2    1    2    0    0 -0.67515695419E+03  0.24729549233E+03  0.48792674338E+02  0.72467746579E+03  0.76057419409E+02 0.  0.
        254    2    1    2    0    0  0.67515695419E+03 -0.24729549233E+03 -0.20514580028E+04  0.23526922939E+04  0.89982727195E+03 0.  0.
         23    2    4    4    0    0  0.28327879176E+03 -0.19163454001E+03 -0.11173590275E+03  0.37133461031E+03  0.91835777676E+02 0.  0.
         23    2    4    4    0    0  0.39187816242E+03 -0.55660952323E+02 -0.19397221000E+04  0.19813576836E+04  0.81177639985E+02 0.  0.
          4    1    3    3  502    0 -0.55143739347E+03  0.19991901948E+03  0.10035791082E+02  0.58664429629E+03  0.00000000000E+00 0. -1.
         -3    1    3    3    0  502 -0.12371956072E+03  0.47376472848E+02  0.38756883256E+02  0.13803316950E+03  0.00000000000E+00 0.  1.
         11    1    5    5    0    0  0.27038936399E+03 -0.18476338682E+03 -0.81077302522E+02  0.33737434143E+03  0.00000000000E+00 0. -1.
        -11    1    5    5    0    0  0.12889427773E+02 -0.68711531890E+01 -0.30658600230E+02  0.33960268882E+02  0.00000000000E+00 0.  1.
          4    1    6    6  503    0  0.22449777822E+03 -0.58725367525E+01 -0.12401279624E+04  0.12602980212E+04  0.00000000000E+00 0. -1.
         -4    1    6    6    0  503  0.16738038420E+03 -0.49788415571E+02 -0.69959413768E+03  0.72105966246E+03  0.00000000000E+00 0.  1.
<mgrwt>
<rscale>  0 0.23365650E+04</rscale>
<asrwt>0</asrwt>
<pdfrwt beam="1">  1        2 0.39077193E+00 0.23365650E+04</pdfrwt>
<pdfrwt beam="2">  1       -1 0.82669572E-01 0.23365650E+04</pdfrwt>
<totfact> 0.49331346E+00</totfact>
</mgrwt>
</event>
<event>
12    6  0.1395358E-007  0.1390279E+04  0.7818608E-02  0.8960885E-01
         -1   -1    0    0    0  501 -0.00000000000E+00  0.00000000000E+00  0.34196798437E+03  0.34196798437E+03  0.00000000000E+00 0.  1.
          2   -1    0    0  501    0  0.00000000000E+00 -0.00000000000E+00 -0.14130537244E+04  0.14130537244E+04  0.00000000000E+00 0. -1.
         24    2    1    2    0    0  0.38628810414E+02 -0.39208344247E+03 -0.36714256430E+03  0.54447564589E+03  0.80239987441E+02 0.  0.
        254    2    1    2    0    0 -0.38628810414E+02  0.39208344247E+03 -0.70394317572E+03  0.12105460629E+04  0.90258748321E+03 0.  0.
         23    2    4    4    0    0 -0.42767851666E+03  0.29648892013E+03 -0.21195159154E+03  0.56926678191E+03  0.91250197056E+02 0.  0.
         23    2    4    4    0    0  0.38904970624E+03  0.95594522346E+02 -0.49199158418E+03  0.64127928097E+03  0.93195550677E+02 0.  0.
          4    1    3    3  502    0  0.35095298680E+02 -0.39212606835E+03 -0.34938247360E+03  0.52636740621E+03  0.00000000000E+00 0. -1.
         -3    1    3    3    0  502  0.35335117347E+01  0.42625875131E-01 -0.17760090706E+02  0.18108239672E+02  0.00000000000E+00 0.  1.
         11    1    5    5    0    0 -0.29905296631E+03  0.17660056050E+03 -0.10235471741E+03  0.36207309041E+03  0.00000000000E+00 0. -1.
        -11    1    5    5    0    0 -0.12862555035E+03  0.11988835963E+03 -0.10959687413E+03  0.20719369150E+03  0.00000000000E+00 0.  1.
          1    1    6    6  503    0  0.15851561264E+03  0.85119246268E+02 -0.23314492355E+03  0.29449794722E+03  0.00000000000E+00 0. -1.
         -1    1    6    6    0  503  0.23053409360E+03  0.10475276078E+02 -0.25884666063E+03  0.34678133375E+03  0.00000000000E+00 0.  1.
<mgrwt>
<rscale>  0 0.13902793E+04</rscale>
<asrwt>0</asrwt>
<pdfrwt beam="1">  1        2 0.21739288E+00 0.13902793E+04</pdfrwt>
<pdfrwt beam="2">  1       -1 0.52610460E-01 0.13902793E+04</pdfrwt>
<totfact> 0.57476475E+01</totfact>
</mgrwt>
</event>
<event>
12    6  0.1395358E-007  0.1870324E+04  0.7818608E-02  0.8669771E-01
         -1   -1    0    0    0  501 -0.00000000000E+00  0.00000000000E+00  0.52219513637E+03  0.52219513637E+03  0.00000000000E+00 0.  1.
          2   -1    0    0  501    0  0.00000000000E+00 -0.00000000000E+00 -0.16747142796E+04  0.16747142796E+04  0.00000000000E+00 0. -1.
         24    2    1    2    0    0 -0.19699040308E+03  0.60006817615E+03 -0.40653719912E+02  0.63819765291E+03  0.82197836362E+02 0.  0.
        254    2    1    2    0    0  0.19699040308E+03 -0.60006817615E+03 -0.11118654233E+04  0.15587117631E+04  0.89131958683E+03 0.  0.
         23    2    4    4    0    0  0.91080024465E+02 -0.34369530041E+03 -0.11985748208E+04  0.12535130039E+04  0.91056134232E+02 0.  0.
         23    2    4    4    0    0  0.10591037861E+03 -0.25637287574E+03  0.86709397473E+02  0.30519875915E+03  0.93186389919E+02 0.  0.
          4    1    3    3  502    0 -0.33590925446E+02  0.14108634879E+03 -0.42024303406E+02  0.15099586142E+03  0.00000000000E+00 0. -1.
         -3    1    3    3    0  502 -0.16339947763E+03  0.45898182736E+03  0.13705834941E+01  0.48720179149E+03  0.00000000000E+00 0.  1.
         11    1    5    5    0    0  0.22263135428E+02 -0.72903193772E+01 -0.88207940960E+02  0.91265748252E+02  0.00000000000E+00 0.  1.
        -11    1    5    5    0    0  0.68816889037E+02 -0.33640498103E+03 -0.11103668799E+04  0.11622472557E+04  0.00000000000E+00 0. -1.
          3    1    6    6  503    0  0.12029202449E+03 -0.19303951558E+03  0.62443275830E+02  0.23586773503E+03  0.00000000000E+00 0. -1.
         -3    1    6    6    0  503 -0.14381645871E+02 -0.63333360159E+02  0.24266121643E+02  0.69331024128E+02  0.00000000000E+00 0.  1.
<mgrwt>
<rscale>  0 0.18703237E+04</rscale>
<asrwt>0</asrwt>
<pdfrwt beam="1">  1        2 0.25764835E+00 0.18703237E+04</pdfrwt>
<pdfrwt beam="2">  1       -1 0.80337714E-01 0.18703237E+04</pdfrwt>
<totfact> 0.16746180E+01</totfact>
</mgrwt>
</event>
<event>
12    6  0.1395358E-007  0.1821899E+04  0.7818608E-02  0.8694740E-01
         -1   -1    0    0    0  501 -0.00000000000E+00  0.00000000000E+00  0.29937137809E+03  0.29937137809E+03  0.00000000000E+00 0.  1.
          2   -1    0    0  501    0  0.00000000000E+00 -0.00000000000E+00 -0.27719049746E+04  0.27719049746E+04  0.00000000000E+00 0. -1.
         24    2    1    2    0    0 -0.61154788617E+03  0.11664818133E+03 -0.14233963144E+04  0.15559093565E+04  0.84848350194E+02 0.  0.
        254    2    1    2    0    0  0.61154788617E+03 -0.11664818133E+03 -0.10491372821E+04  0.15153669962E+04  0.89891628148E+03 0.  0.
         23    2    4    4    0    0  0.61750002626E+03 -0.24377100758E+03 -0.11485208721E+04  0.13296461563E+04  0.90156092087E+02 0.  0.
         23    2    4    4    0    0 -0.59521400915E+01  0.12712282625E+03  0.99383589991E+02  0.18572083981E+03  0.91757786894E+02 0.  0.
          4    1    3    3  502    0 -0.24923276708E+03  0.55223712906E+02 -0.48406868019E+03  0.54725598927E+03  0.00000000000E+00 0. -1.
         -1    1    3    3    0  502 -0.36231511909E+03  0.61424468424E+02 -0.93932763425E+03  0.10086533673E+04  0.00000000000E+00 0.  1.
         11    1    5    5    0    0  0.29535581730E+03 -0.16455001871E+03 -0.59264248815E+03  0.68230263537E+03  0.00000000000E+00 0.  1.
        -11    1    5    5    0    0  0.32214420896E+03 -0.79220988877E+02 -0.55587838391E+03  0.64734352097E+03  0.00000000000E+00 0. -1.
          1    1    6    6  503    0 -0.35631912072E+02  0.37358492730E+02  0.45756336222E+01  0.51828819782E+02  0.00000000000E+00 0. -1.
         -1    1    6    6    0  503  0.29679771980E+02  0.89764333523E+02  0.94807956369E+02  0.13389202003E+03  0.00000000000E+00 0.  1.
<mgrwt>
<rscale>  0 0.18218990E+04</rscale>
<asrwt>0</asrwt>
<pdfrwt beam="1">  1        2 0.42644690E+00 0.18218990E+04</pdfrwt>
<pdfrwt beam="2">  1       -1 0.46057137E-01 0.18218990E+04</pdfrwt>
<totfact> 0.12125095E+01</totfact>
</mgrwt>
</event>
<event>
12    6  0.1395358E-007  0.1744703E+04  0.7818608E-02  0.8736271E-01
          2   -1    0    0  501    0  0.00000000000E+00  0.00000000000E+00  0.19626873741E+04  0.19626873741E+04  0.00000000000E+00 0. -1.
         -1   -1    0    0    0  501 -0.00000000000E+00 -0.00000000000E+00 -0.38773218018E+03  0.38773218018E+03  0.00000000000E+00 0.  1.
         24    2    1    2    0    0 -0.24182809334E+03 -0.57777850862E+03  0.42151019633E+03  0.75914252907E+03  0.79483973779E+02 0.  0.
        254    2    1    2    0    0  0.24182809334E+03  0.57777850862E+03  0.11534449976E+04  0.15912770252E+04  0.89967681796E+03 0.  0.
         23    2    4    4    0    0 -0.26700160310E+03  0.35372738725E+03  0.81996448530E+03  0.93649504815E+03  0.90930179273E+02 0.  0.
         23    2    4    4    0    0  0.50882969644E+03  0.22405112136E+03  0.33348051233E+03  0.65478197710E+03  0.91780283616E+02 0.  0.
          4    1    3    3  502    0 -0.19155410055E+03 -0.42137717746E+03  0.34833107773E+03  0.57929805699E+03  0.00000000000E+00 0. -1.
         -3    1    3    3    0  502 -0.50273992792E+02 -0.15640133116E+03  0.73179118596E+02  0.17984447208E+03  0.00000000000E+00 0.  1.
         11    1    5    5    0    0 -0.23276538057E+03  0.24900381139E+03  0.58690587036E+03  0.67870547451E+03  0.00000000000E+00 0. -1.
        -11    1    5    5    0    0 -0.34236222535E+02  0.10472357587E+03  0.23305861495E+03  0.25778957364E+03  0.00000000000E+00 0.  1.
          1    1    6    6  503    0  0.40723619208E+03  0.21535132887E+03  0.28668107376E+03  0.54258966913E+03  0.00000000000E+00 0. -1.
         -1    1    6    6    0  503  0.10159350436E+03  0.86997924913E+01  0.46799438568E+02  0.11219230797E+03  0.00000000000E+00 0.  1.
<mgrwt>
<rscale>  0 0.17447029E+04</rscale>
<asrwt>0</asrwt>
<pdfrwt beam="1">  1        2 0.30195190E+00 0.17447029E+04</pdfrwt>
<pdfrwt beam="2">  1       -1 0.59651106E-01 0.17447029E+04</pdfrwt>
<totfact> 0.21565472E+01</totfact>
</mgrwt>
</event>
<event>
12    6  0.1395358E-007  0.1905707E+04  0.7818608E-02  0.8652021E-01
         -3   -1    0    0    0  501 -0.00000000000E+00  0.00000000000E+00  0.29090603711E+03  0.29090603711E+03  0.00000000000E+00 0.  1.
          2   -1    0    0  501    0  0.00000000000E+00 -0.00000000000E+00 -0.31210426490E+04  0.31210426490E+04  0.00000000000E+00 0. -1.
         24    2    1    2    0    0 -0.44195556829E+03 -0.38833340120E+03 -0.19000012440E+04  0.19903553199E+04  0.73362233791E+02 0.  0.
        254    2    1    2    0    0  0.44195556829E+03  0.38833340120E+03 -0.93013536789E+03  0.14215933662E+04  0.89980461294E+03 0.  0.
         23    2    4    4    0    0  0.62419249637E+03  0.41700553296E+03 -0.40601221349E+03  0.85808524372E+03  0.89187896851E+02 0.  0.
         23    2    4    4    0    0 -0.18223692808E+03 -0.28672131767E+02 -0.52412315440E+03  0.56350812250E+03  0.93829281427E+02 0.  0.
          2    1    3    3  502    0 -0.26610221980E+03 -0.22771797019E+03 -0.12481622134E+04  0.12963698455E+04  0.00000000000E+00 0. -1.
         -1    1    3    3    0  502 -0.17585334849E+03 -0.16061543100E+03 -0.65183903053E+03  0.69398547433E+03  0.00000000000E+00 0.  1.
         11    1    5    5    0    0  0.61119654046E+03  0.41842430538E+03 -0.38902039574E+03  0.83664626857E+03  0.00000000000E+00 0.  1.
        -11    1    5    5    0    0  0.12995955907E+02 -0.14187724217E+01 -0.16991817751E+02  0.21438975152E+02  0.00000000000E+00 0. -1.
          4    1    6    6  503    0  0.56872949472E+01  0.36776861983E+01 -0.11693992778E+01  0.68730047476E+01  0.00000000000E+00 0. -1.
         -4    1    6    6    0  503 -0.18792422303E+03 -0.32349817965E+02 -0.52295375512E+03  0.55663511776E+03  0.00000000000E+00 0.  1.
<mgrwt>
<rscale>  0 0.19057074E+04</rscale>
<asrwt>0</asrwt>
<pdfrwt beam="1">  1        2 0.48016042E+00 0.19057074E+04</pdfrwt>
<pdfrwt beam="2">  1       -3 0.44754774E-01 0.19057074E+04</pdfrwt>
<totfact> 0.44032228E+00</totfact>
</mgrwt>
</event>
<event>
12    6  0.1395358E-007  0.1503040E+04  0.7818608E-02  0.8882434E-01
          2   -1    0    0  501    0  0.00000000000E+00  0.00000000000E+00  0.60193378267E+03  0.60193378267E+03  0.00000000000E+00 0. -1.
         -1   -1    0    0    0  501 -0.00000000000E+00 -0.00000000000E+00 -0.93827943236E+03  0.93827943236E+03  0.00000000000E+00 0.  1.
         24    2    1    2    0    0 -0.35211296811E+03 -0.31901730848E+03 -0.71557859217E+02  0.48713553748E+03  0.80155593886E+02 0.  0.
        254    2    1    2    0    0  0.35211296811E+03  0.31901730848E+03 -0.26478779048E+03  0.10530776776E+04  0.90172303705E+03 0.  0.
         23    2    4    4    0    0  0.48012262375E+03 -0.14176271730E+03 -0.23655826239E+02  0.50955098545E+03  0.92022860191E+02 0.  0.
         23    2    4    4    0    0 -0.12800965564E+03  0.46078002579E+03 -0.24113196424E+03  0.54352669210E+03  0.92584754394E+02 0.  0.
          4    1    3    3  502    0 -0.48744185883E+02 -0.58000372828E+02  0.16076649136E+02  0.77449968063E+02  0.00000000000E+00 0. -1.
         -3    1    3    3    0  502 -0.30336878223E+03 -0.26101693566E+03 -0.87634508354E+02  0.40968556941E+03  0.00000000000E+00 0.  1.
         11    1    5    5    0    0  0.30421573942E+03 -0.47968211700E+02  0.58429992710E+01  0.30802971624E+03  0.00000000000E+00 0. -1.
        -11    1    5    5    0    0  0.17590688433E+03 -0.93794505605E+02 -0.29498825510E+02  0.20152126921E+03  0.00000000000E+00 0.  1.
          4    1    6    6  503    0 -0.84597777832E+02  0.36154738305E+03 -0.22460696274E+03  0.43396034602E+03  0.00000000000E+00 0. -1.
         -4    1    6    6    0  503 -0.43411877810E+02  0.99232642742E+02 -0.16525001502E+02  0.10956634609E+03  0.00000000000E+00 0.  1.
<mgrwt>
<rscale>  0 0.15030397E+04</rscale>
<asrwt>0</asrwt>
<pdfrwt beam="1">  1        2 0.92605198E-01 0.15030397E+04</pdfrwt>
<pdfrwt beam="2">  1       -1 0.14435068E+00 0.15030397E+04</pdfrwt>
<totfact> 0.21087436E+01</totfact>
</mgrwt>
</event>
<event>
12    6  0.1395358E-007  0.1466567E+04  0.7818608E-02  0.8906995E-01
         -3   -1    0    0    0  501 -0.00000000000E+00  0.00000000000E+00  0.10320273992E+04  0.10320273992E+04  0.00000000000E+00 0.  1.
          2   -1    0    0  501    0  0.00000000000E+00 -0.00000000000E+00 -0.52101766144E+03  0.52101766144E+03  0.00000000000E+00 0. -1.
         24    2    1    2    0    0  0.22406138026E+03 -0.90934149845E+02 -0.24438146168E+03  0.35352627907E+03  0.82377238645E+02 0.  0.
        254    2    1    2    0    0 -0.22406138026E+03  0.90934149845E+02  0.75539119945E+03  0.11995187816E+04  0.89986494621E+03 0.  0.
         23    2    4    4    0    0  0.94720165910E+02  0.59593456588E+02  0.84245734197E+03  0.85486665835E+03  0.92408552750E+02 0.  0.
         23    2    4    4    0    0 -0.31878154617E+03  0.31340693256E+02 -0.87066142518E+02  0.34465212323E+03  0.92739741408E+02 0.  0.
          2    1    3    3  502    0  0.10095885742E+03 -0.67960427876E+02 -0.16584718592E+03  0.20570998937E+03  0.00000000000E+00 0. -1.
         -1    1    3    3    0  502  0.12310252285E+03 -0.22973721968E+02 -0.78534275762E+02  0.14781628970E+03  0.00000000000E+00 0.  1.
         11    1    5    5    0    0  0.20609261746E+02  0.66727647421E+02  0.36205499899E+03  0.36872909147E+03  0.00000000000E+00 0. -1.
        -11    1    5    5    0    0  0.74110904165E+02 -0.71341908325E+01  0.48040234298E+03  0.48613756689E+03  0.00000000000E+00 0.  1.
          1    1    6    6  503    0 -0.18600116554E+03 -0.10019443368E+02 -0.86982503771E+02  0.20557913024E+03  0.00000000000E+00 0. -1.
         -1    1    6    6    0  503 -0.13278038064E+03  0.41360136624E+02 -0.83638747263E-01  0.13907299299E+03  0.00000000000E+00 0.  1.
<mgrwt>
<rscale>  0 0.14665667E+04</rscale>
<asrwt>0</asrwt>
<pdfrwt beam="1">  1        2 0.80156563E-01 0.14665667E+04</pdfrwt>
<pdfrwt beam="2">  1       -3 0.15877345E+00 0.14665667E+04</pdfrwt>
<totfact> 0.99067401E+00</totfact>
</mgrwt>
</event>
<event>
12    6  0.1395358E-007  0.1839891E+04  0.7818608E-02  0.8685369E-01
         -1   -1    0    0    0  501 -0.00000000000E+00  0.00000000000E+00  0.84714389950E+03  0.84714389950E+03  0.00000000000E+00 0.  1.
          2   -1    0    0  501    0  0.00000000000E+00 -0.00000000000E+00 -0.99900349413E+03  0.99900349413E+03  0.00000000000E+00 0. -1.
         24    2    1    2    0    0 -0.39213163410E+03 -0.57492923233E+03 -0.21441552738E+02  0.70013298570E+03  0.73590874663E+02 0.  0.
        254    2    1    2    0    0  0.39213163410E+03  0.57492923233E+03 -0.13041804190E+03  0.11460144079E+04  0.90112669303E+03 0.  0.
         23    2    4    4    0    0  0.16063224161E+03  0.85276847367E+02 -0.46129152688E+03  0.50463733573E+03  0.93776916688E+02 0.  0.
         23    2    4    4    0    0  0.23149939249E+03  0.48965238496E+03  0.33087348498E+03  0.64137707221E+03  0.92389711929E+02 0.  0.
          4    1    3    3  502    0 -0.17772523402E+03 -0.29950302674E+03 -0.40265190325E+02  0.35058466508E+03  0.00000000000E+00 0. -1.
         -3    1    3    3    0  502 -0.21440640007E+03 -0.27542620559E+03  0.18823637587E+02  0.34954832062E+03  0.00000000000E+00 0.  1.
         11    1    5    5    0    0  0.10991930287E+03  0.52360227719E+02 -0.40170176246E+03  0.41974772490E+03  0.00000000000E+00 0.  1.
        -11    1    5    5    0    0  0.50712938736E+02  0.32916619648E+02 -0.59589764411E+02  0.84889610830E+02  0.00000000000E+00 0. -1.
          4    1    6    6  503    0  0.33997206304E+02  0.12759517926E+03  0.11880272764E+03  0.17762440120E+03  0.00000000000E+00 0. -1.
         -4    1    6    6    0  503  0.19750218619E+03  0.36205720570E+03  0.21207075734E+03  0.46375267101E+03  0.00000000000E+00 0.  1.
<mgrwt>
<rscale>  0 0.18398910E+04</rscale>
<asrwt>0</asrwt>
<pdfrwt beam="1">  1        2 0.15369285E+00 0.18398910E+04</pdfrwt>
<pdfrwt beam="2">  1       -1 0.13032983E+00 0.18398910E+04</pdfrwt>
<totfact> 0.13648362E+01</totfact>
</mgrwt>
</event>
<event>
12    6  0.1395358E-007  0.2860463E+04  0.7818608E-02  0.8284739E-01
          2   -1    0    0  501    0  0.00000000000E+00  0.00000000000E+00  0.18090557268E+04  0.18090557268E+04  0.00000000000E+00 0. -1.
         -1   -1    0    0    0  501 -0.00000000000E+00 -0.00000000000E+00 -0.11307348148E+04  0.11307348148E+04  0.00000000000E+00 0.  1.
         24    2    1    2    0    0 -0.25466743377E+03 -0.70790539811E+03  0.13791318836E+04  0.15730548354E+04  0.80692058126E+02 0.  0.
        254    2    1    2    0    0  0.25466743377E+03  0.70790539811E+03 -0.70081097165E+03  0.13667357062E+04  0.90046927668E+03 0.  0.
         23    2    4    4    0    0 -0.26618640834E+03  0.67387729670E+02 -0.14752539698E+02  0.28959595436E+03  0.90839799980E+02 0.  0.
         23    2    4    4    0    0  0.52085384211E+03  0.64051766844E+03 -0.68605843195E+03  0.10771397519E+04  0.89455377777E+02 0.  0.
          4    1    3    3  502    0 -0.12614777060E+03 -0.38246772222E+03  0.81809020188E+03  0.91184779266E+03  0.00000000000E+00 0. -1.
         -3    1    3    3    0  502 -0.12851966317E+03 -0.32543767589E+03  0.56104168170E+03  0.66120704270E+03  0.00000000000E+00 0.  1.
         11    1    5    5    0    0 -0.25940949991E+03  0.42230299060E+02 -0.17446264783E+02  0.26340284539E+03  0.00000000000E+00 0.  1.
        -11    1    5    5    0    0 -0.67769084227E+01  0.25157430610E+02  0.26937250849E+01  0.26193108970E+02  0.00000000000E+00 0. -1.
          2    1    6    6  503    0  0.35423534332E+03  0.39750877999E+03 -0.39486787578E+03  0.66288501865E+03  0.00000000000E+00 0.  1.
         -2    1    6    6    0  503  0.16661849879E+03  0.24300888845E+03 -0.29119055617E+03  0.41425473323E+03  0.00000000000E+00 0. -1.
<mgrwt>
<rscale>  0 0.28604631E+04</rscale>
<asrwt>0</asrwt>
<pdfrwt beam="1">  1        2 0.27831627E+00 0.28604631E+04</pdfrwt>
<pdfrwt beam="2">  1       -1 0.17395920E+00 0.28604631E+04</pdfrwt>
<totfact> 0.19346197E+00</totfact>
</mgrwt>
</event>
<event>
12    6  0.1395358E-007  0.2428438E+04  0.7818608E-02  0.8428933E-01
          2   -1    0    0  501    0  0.00000000000E+00  0.00000000000E+00  0.12502934710E+04  0.12502934710E+04  0.00000000000E+00 0. -1.
         -1   -1    0    0    0  501 -0.00000000000E+00 -0.00000000000E+00 -0.11791852255E+04  0.11791852255E+04  0.00000000000E+00 0.  1.
         24    2    1    2    0    0 -0.28954082059E+03 -0.71516778629E+03 -0.67546208379E+03  0.10286631305E+04  0.81240138654E+02 0.  0.
        254    2    1    2    0    0  0.28954082059E+03  0.71516778629E+03  0.74657032928E+03  0.14008155659E+04  0.89978783262E+03 0.  0.
         23    2    4    4    0    0  0.39225543808E+03  0.84260242070E+03  0.77326612213E+03  0.12125983084E+04  0.92795440291E+02 0.  0.
         23    2    4    4    0    0 -0.10271461749E+03 -0.12743463440E+03 -0.26695792845E+02  0.18821725753E+03  0.89012313688E+02 0.  0.
          4    1    3    3  502    0 -0.76664968715E+02 -0.14171465300E+03 -0.10551204740E+03  0.19259634589E+03  0.00000000000E+00 0. -1.
         -3    1    3    3    0  502 -0.21287585188E+03 -0.57345313330E+03 -0.56995003639E+03  0.83606678464E+03  0.00000000000E+00 0.  1.
         11    1    5    5    0    0  0.31139410460E+03  0.72386714273E+03  0.62125750201E+03  0.10034494569E+04  0.00000000000E+00 0. -1.
        -11    1    5    5    0    0  0.80861333483E+02  0.11873527797E+03  0.15200862012E+03  0.20914885149E+03  0.00000000000E+00 0.  1.
          3    1    6    6  503    0 -0.76276275563E+02 -0.13727889935E+03 -0.29754797242E+02  0.15984027771E+03  0.00000000000E+00 0. -1.
         -3    1    6    6    0  503 -0.26438341922E+02  0.98442649473E+01  0.30590043974E+01  0.28376979823E+02  0.00000000000E+00 0.  1.
<mgrwt>
<rscale>  0 0.24284378E+04</rscale>
<asrwt>0</asrwt>
<pdfrwt beam="1">  1        2 0.19235284E+00 0.24284378E+04</pdfrwt>
<pdfrwt beam="2">  1       -1 0.18141311E+00 0.24284378E+04</pdfrwt>
<totfact> 0.36752876E+00</totfact>
</mgrwt>
</event>
<event>
12    6  0.1395358E-007  0.1286898E+04  0.7818608E-02  0.9040020E-01
         -1   -1    0    0    0  501 -0.00000000000E+00  0.00000000000E+00  0.59700184050E+03  0.59700184050E+03  0.00000000000E+00 0.  1.
          2   -1    0    0  501    0  0.00000000000E+00 -0.00000000000E+00 -0.69350976571E+03  0.69350976571E+03  0.00000000000E+00 0. -1.
         24    2    1    2    0    0 -0.14985687080E+03 -0.12932862830E+03  0.21788509470E+03  0.30479543270E+03  0.79014969960E+02 0.  0.
        254    2    1    2    0    0  0.14985687080E+03  0.12932862830E+03 -0.31439301992E+03  0.98571617351E+03  0.91302268752E+03 0.  0.
         23    2    4    4    0    0  0.17129060867E+03  0.20236787706E+03 -0.60803651734E+03  0.66943713035E+03  0.90246522295E+02 0.  0.
         23    2    4    4    0    0 -0.21433737864E+02 -0.73039248760E+02  0.29364349743E+03  0.31627904316E+03  0.89508617364E+02 0.  0.
          2    1    3    3  502    0 -0.45244162723E+01 -0.38806126616E+02  0.22819776843E+02  0.45245198869E+02  0.00000000000E+00 0. -1.
         -1    1    3    3    0  502 -0.14533245453E+03 -0.90522501682E+02  0.19506531786E+03  0.25955023383E+03  0.00000000000E+00 0.  1.
         11    1    5    5    0    0  0.57022331991E+02  0.39709740483E+02 -0.84310000042E+02  0.10925468385E+03  0.00000000000E+00 0. -1.
        -11    1    5    5    0    0  0.11426827668E+03  0.16265813657E+03 -0.52372651730E+03  0.56018244651E+03  0.00000000000E+00 0.  1.
          4    1    6    6  503    0 -0.15033277607E+02 -0.82567773240E+02  0.29299977517E+03  0.30478238936E+03  0.00000000000E+00 0.  1.
         -4    1    6    6    0  503 -0.64004602569E+01  0.95285244805E+01  0.64372225739E+00  0.11496653801E+02  0.00000000000E+00 0. -1.
<mgrwt>
<rscale>  0 0.12868980E+04</rscale>
<asrwt>0</asrwt>
<pdfrwt beam="1">  1        2 0.10669381E+00 0.12868980E+04</pdfrwt>
<pdfrwt beam="2">  1       -1 0.91846437E-01 0.12868980E+04</pdfrwt>
<totfact> 0.53676997E+01</totfact>
</mgrwt>
</event>
<event>
12    6  0.1395358E-007  0.3493232E+04  0.7818608E-02  0.8115396E-01
         -1   -1    0    0    0  501 -0.00000000000E+00  0.00000000000E+00  0.11000921629E+04  0.11000921629E+04  0.00000000000E+00 0.  1.
          2   -1    0    0  501    0  0.00000000000E+00 -0.00000000000E+00 -0.27731010507E+04  0.27731010507E+04  0.00000000000E+00 0. -1.
         24    2    1    2    0    0  0.54794178857E+03  0.12791910629E+04 -0.17215245750E+04  0.22154647985E+04  0.89818883759E+02 0.  0.
        254    2    1    2    0    0 -0.54794178857E+03 -0.12791910629E+04  0.48515687257E+02  0.16577284151E+04  0.89952195478E+03 0.  0.
         23    2    4    4    0    0 -0.78119442756E+03 -0.10862983944E+04  0.19909703595E+02  0.13412557336E+04  0.90893405589E+02 0.  0.
         23    2    4    4    0    0  0.23325263898E+03 -0.19289266850E+03  0.28605983662E+02  0.31647268151E+03  0.87876508166E+02 0.  0.
          2    1    3    3  502    0  0.29094724381E+03  0.77086370299E+03 -0.10580813401E+04  0.13410508079E+04  0.00000000000E+00 0. -1.
         -1    1    3    3    0  502  0.25699454476E+03  0.50832735991E+03 -0.66344323496E+03  0.87441399056E+03  0.00000000000E+00 0.  1.
         11    1    5    5    0    0 -0.85353755559E+02 -0.16730660420E+03 -0.10864937445E+02  0.18813508515E+03  0.00000000000E+00 0. -1.
        -11    1    5    5    0    0 -0.69584067200E+03 -0.91899179020E+03  0.30774641040E+02  0.11531206484E+04  0.00000000000E+00 0.  1.
          4    1    6    6  503    0  0.93502032249E+02 -0.42252206416E+02  0.41285436148E+02  0.11060002812E+03  0.00000000000E+00 0. -1.
         -4    1    6    6    0  503  0.13975060673E+03 -0.15064046209E+03 -0.12679452486E+02  0.20587265339E+03  0.00000000000E+00 0.  1.
<mgrwt>
<rscale>  0 0.34932316E+04</rscale>
<asrwt>0</asrwt>
<pdfrwt beam="1">  1        2 0.42663093E+00 0.34932316E+04</pdfrwt>
<pdfrwt beam="2">  1       -1 0.16924495E+00 0.34932316E+04</pdfrwt>
<totfact> 0.55856656E-01</totfact>
</mgrwt>
</event>
<event>
12    6  0.1395358E-007  0.3225833E+04  0.7818608E-02  0.8182028E-01
          2   -1    0    0  501    0  0.00000000000E+00  0.00000000000E+00  0.31222681989E+04  0.31222681989E+04  0.00000000000E+00 0. -1.
         -1   -1    0    0    0  501 -0.00000000000E+00 -0.00000000000E+00 -0.83320809275E+03  0.83320809275E+03  0.00000000000E+00 0.  1.
         24    2    1    2    0    0 -0.81305658229E+03 -0.11026760674E+04  0.17611353047E+04  0.22327058337E+04  0.80139020751E+02 0.  0.
        254    2    1    2    0    0  0.81305658229E+03  0.11026760674E+04  0.52792480146E+03  0.17227704580E+04  0.90126463339E+03 0.  0.
         23    2    4    4    0    0  0.16400430597E+03  0.78032590043E+02 -0.21635024701E+03  0.29687868510E+03  0.91340170822E+02 0.  0.
         23    2    4    4    0    0  0.64905227633E+03  0.10246434773E+04  0.74427504846E+03  0.14258917729E+04  0.89771305048E+02 0.  0.
          2    1    3    3  502    0 -0.11773209810E+03 -0.19401890557E+03  0.25723409784E+03  0.34303580532E+03  0.00000000000E+00 0. -1.
         -1    1    3    3    0  502 -0.69532448419E+03 -0.90865716180E+03  0.15039012069E+04  0.18896700283E+04  0.00000000000E+00 0.  1.
         11    1    5    5    0    0  0.11869607676E+03  0.92284002417E+02 -0.13198801324E+03  0.20006481794E+03  0.00000000000E+00 0.  1.
        -11    1    5    5    0    0  0.45308229209E+02 -0.14251412374E+02 -0.84362233767E+02  0.96813867163E+02  0.00000000000E+00 0. -1.
          4    1    6    6  503    0  0.29722975111E+03  0.44420053580E+03  0.27826692848E+03  0.60257126088E+03  0.00000000000E+00 0. -1.
         -4    1    6    6    0  503  0.35182252521E+03  0.58044294153E+03  0.46600811998E+03  0.82332051202E+03  0.00000000000E+00 0.  1.
<mgrwt>
<rscale>  0 0.32258327E+04</rscale>
<asrwt>0</asrwt>
<pdfrwt beam="1">  1        2 0.48034895E+00 0.32258327E+04</pdfrwt>
<pdfrwt beam="2">  1       -1 0.12818586E+00 0.32258327E+04</pdfrwt>
<totfact> 0.72956967E-01</totfact>
</mgrwt>
</event>
<event>
12    6  0.1395358E-007  0.2110756E+04  0.7818608E-02  0.8556520E-01
         -1   -1    0    0    0  501 -0.00000000000E+00  0.00000000000E+00  0.32924929827E+03  0.32924929827E+03  0.00000000000E+00 0.  1.
          2   -1    0    0  501    0  0.00000000000E+00 -0.00000000000E+00 -0.33829166318E+04  0.33829166318E+04  0.00000000000E+00 0. -1.
         24    2    1    2    0    0 -0.34933102081E+03 -0.77912617959E+03 -0.10393982136E+04  0.13476705317E+04  0.82446647647E+02 0.  0.
        254    2    1    2    0    0  0.34933102081E+03  0.77912617959E+03 -0.20142691200E+04  0.23644953984E+04  0.89693290480E+03 0.  0.
         23    2    4    4    0    0 -0.91042598631E+02 -0.14606550017E+03 -0.46946903703E+03  0.50822875533E+03  0.90947269911E+02 0.  0.
         23    2    4    4    0    0  0.44037361945E+03  0.92519167976E+03 -0.15448000829E+04  0.18562666431E+04  0.97005077466E+02 0.  0.
          4    1    3    3  502    0 -0.14237160647E+03 -0.23561670031E+03 -0.36406796586E+03  0.45643223764E+03  0.00000000000E+00 0. -1.
         -3    1    3    3    0  502 -0.20695941434E+03 -0.54350947928E+03 -0.67533024772E+03  0.89123829402E+03  0.00000000000E+00 0.  1.
         11    1    5    5    0    0 -0.64040388176E+02 -0.22123481550E+02 -0.15730477205E+03  0.17127583327E+03  0.00000000000E+00 0. -1.
        -11    1    5    5    0    0 -0.27002210456E+02 -0.12394201862E+03 -0.31216426498E+03  0.33695292206E+03  0.00000000000E+00 0.  1.
          3    1    6    6  503    0  0.29523159132E+03  0.50915528332E+03 -0.87468980397E+03  0.10542689639E+04  0.00000000000E+00 0. -1.
         -3    1    6    6    0  503  0.14514202813E+03  0.41603639644E+03 -0.67011027896E+03  0.80199767921E+03  0.00000000000E+00 0.  1.
<mgrwt>
<rscale>  0 0.21107562E+04</rscale>
<asrwt>0</asrwt>
<pdfrwt beam="1">  1        2 0.52044872E+00 0.21107562E+04</pdfrwt>
<pdfrwt beam="2">  1       -1 0.50653737E-01 0.21107562E+04</pdfrwt>
<totfact> 0.40327302E+00</totfact>
</mgrwt>
</event>
<event>
12    6  0.1395358E-007  0.4275849E+04  0.7818608E-02  0.7951099E-01
          2   -1    0    0  501    0  0.00000000000E+00  0.00000000000E+00  0.39336852318E+04  0.39336852318E+04  0.00000000000E+00 0. -1.
         -1   -1    0    0    0  501 -0.00000000000E+00 -0.00000000000E+00 -0.11619438280E+04  0.11619438280E+04  0.00000000000E+00 0.  1.
         24    2    1    2    0    0  0.10913955158E+04 -0.13264536343E+04  0.26378960524E+04  0.31488714367E+04  0.79198015815E+02 0.  0.
        254    2    1    2    0    0 -0.10913955158E+04  0.13264536343E+04  0.13384535135E+03  0.19467576231E+04  0.90627106813E+03 0.  0.
         23    2    4    4    0    0  0.12649133098E+03  0.54784157803E+02  0.78017946987E+02  0.18272456973E+03  0.91104926155E+02 0.  0.
         23    2    4    4    0    0 -0.12178868468E+04  0.12716694765E+04  0.55827404367E+02  0.17640330534E+04  0.91127850070E+02 0.  0.
          4    1    3    3  502    0  0.10153679308E+04 -0.12465654314E+04  0.24990512258E+04  0.29715575780E+04  0.00000000000E+00 0. -1.
         -3    1    3    3    0  502  0.76027584986E+02 -0.79888202911E+02  0.13884482657E+03  0.17731385876E+03  0.00000000000E+00 0.  1.
         11    1    5    5    0    0  0.99319829772E+02  0.54375706010E+02  0.15155897696E+02  0.11424030473E+03  0.00000000000E+00 0.  1.
        -11    1    5    5    0    0  0.27171501211E+02  0.40845179304E+00  0.62862049291E+02  0.68484264996E+02  0.00000000000E+00 0. -1.
          2    1    6    6  503    0 -0.26129392642E+03  0.31912916819E+03 -0.84420055157E+01  0.41253994889E+03  0.00000000000E+00 0. -1.
         -2    1    6    6    0  503 -0.95659292039E+03  0.95254030836E+03  0.64269409883E+02  0.13514931045E+04  0.00000000000E+00 0.  1.
<mgrwt>
<rscale>  0 0.42758491E+04</rscale>
<asrwt>0</asrwt>
<pdfrwt beam="1">  1        2 0.60518234E+00 0.42758491E+04</pdfrwt>
<pdfrwt beam="2">  1       -1 0.17876059E+00 0.42758491E+04</pdfrwt>
<totfact> 0.71629947E-02</totfact>
</mgrwt>
</event>
<event>
12    6  0.1395358E-007  0.3419933E+04  0.7818608E-02  0.8133031E-01
         -1   -1    0    0    0  501 -0.00000000000E+00  0.00000000000E+00  0.20907439470E+04  0.20907439470E+04  0.00000000000E+00 0.  1.
          2   -1    0    0  501    0  0.00000000000E+00 -0.00000000000E+00 -0.13985379512E+04  0.13985379512E+04  0.00000000000E+00 0. -1.
         24    2    1    2    0    0 -0.89999113530E+03 -0.97884480700E+03 -0.56886754648E+03  0.14486068319E+04  0.82038211719E+02 0.  0.
        254    2    1    2    0    0  0.89999113530E+03  0.97884480700E+03  0.12610735422E+04  0.20406750663E+04  0.89773439701E+03 0.  0.
         23    2    4    4    0    0  0.49828918222E+03  0.47010311410E+03  0.86537972989E+02  0.69609115063E+03  0.88119363450E+02 0.  0.
         23    2    4    4    0    0  0.40170195308E+03  0.50874169290E+03  0.11745355693E+04  0.13445839157E+04  0.90496042443E+02 0.  0.
          4    1    3    3  502    0 -0.67913909363E+03 -0.72415427256E+03 -0.46150795662E+03  0.10948145564E+04  0.00000000000E+00 0. -1.
         -3    1    3    3    0  502 -0.22085204167E+03 -0.25469053444E+03 -0.10735958986E+03  0.35379227546E+03  0.00000000000E+00 0.  1.
         11    1    5    5    0    0  0.26974473898E+03  0.19664978726E+03  0.28741708245E+02  0.33505141222E+03  0.00000000000E+00 0.  1.
        -11    1    5    5    0    0  0.22854444324E+03  0.27345332684E+03  0.57796264744E+02  0.36103973841E+03  0.00000000000E+00 0. -1.
          2    1    6    6  503    0  0.37623369612E+03  0.47101701023E+03  0.11308476683E+04  0.12814933737E+04  0.00000000000E+00 0. -1.
         -2    1    6    6    0  503  0.25468256965E+02  0.37724682670E+02  0.43687900955E+02  0.63090541963E+02  0.00000000000E+00 0.  1.
<mgrwt>
<rscale>  0 0.34199326E+04</rscale>
<asrwt>0</asrwt>
<pdfrwt beam="1">  1        2 0.21515969E+00 0.34199326E+04</pdfrwt>
<pdfrwt beam="2">  1       -1 0.32165291E+00 0.34199326E+04</pdfrwt>
<totfact> 0.32593931E-01</totfact>
</mgrwt>
</event>
<event>
12    6  0.1395358E-007  0.1860385E+04  0.7818608E-02  0.8674831E-01
         -1   -1    0    0    0  501 -0.00000000000E+00  0.00000000000E+00  0.91980895164E+03  0.91980895164E+03  0.00000000000E+00 0.  1.
          2   -1    0    0  501    0  0.00000000000E+00 -0.00000000000E+00 -0.94069292442E+03  0.94069292442E+03  0.00000000000E+00 0. -1.
         24    2    1    2    0    0  0.18559033800E+03  0.60323295458E+03 -0.32910003112E+03  0.71633587788E+03  0.80600796517E+02 0.  0.
        254    2    1    2    0    0 -0.18559033800E+03 -0.60323295458E+03  0.30821605835E+03  0.11441659982E+04  0.90320812757E+03 0.  0.
         23    2    4    4    0    0  0.28664543111E+03 -0.52615292735E+03  0.24002249659E+03  0.65233180963E+03  0.94464198786E+02 0.  0.
         23    2    4    4    0    0 -0.47223576911E+03 -0.77080027236E+02  0.68193561760E+02  0.49183418855E+03  0.91118356736E+02 0.  0.
          2    1    3    3  502    0  0.96570025397E+02  0.24570452970E+03 -0.17634572741E+03  0.31748118259E+03  0.00000000000E+00 0. -1.
         -1    1    3    3    0  502  0.89020312604E+02  0.35752842488E+03 -0.15275430371E+03  0.39885469529E+03  0.00000000000E+00 0.  1.
         11    1    5    5    0    0  0.25850353014E+03 -0.51083784757E+03  0.23863374921E+03  0.62026240243E+03  0.00000000000E+00 0.  1.
        -11    1    5    5    0    0  0.28141900970E+02 -0.15315079782E+02  0.13887473709E+01  0.32069407201E+02  0.00000000000E+00 0. -1.
          2    1    6    6  503    0 -0.48901963624E+02 -0.21268032686E+02 -0.17887501815E+02  0.56246724187E+02  0.00000000000E+00 0. -1.
         -2    1    6    6    0  503 -0.42333380549E+03 -0.55811994550E+02  0.86081063574E+02  0.43558746436E+03  0.00000000000E+00 0.  1.
<mgrwt>
<rscale>  0 0.18603847E+04</rscale>
<asrwt>0</asrwt>
<pdfrwt beam="1">  1        2 0.14472199E+00 0.18603847E+04</pdfrwt>
<pdfrwt beam="2">  1       -1 0.14150907E+00 0.18603847E+04</pdfrwt>
<totfact> 0.12031174E+01</totfact>
</mgrwt>
</event>
<event>
12    6  0.1395358E-007  0.3562733E+04  0.7818608E-02  0.8099082E-01
         -1   -1    0    0    0  501 -0.00000000000E+00  0.00000000000E+00  0.21857641657E+04  0.21857641657E+04  0.00000000000E+00 0.  1.
          2   -1    0    0  501    0  0.00000000000E+00 -0.00000000000E+00 -0.14517878182E+04  0.14517878182E+04  0.00000000000E+00 0. -1.
         24    2    1    2    0    0  0.11068315606E+03  0.96473844566E+03 -0.10398373128E+04  0.14248393736E+04  0.77036185614E+02 0.  0.
        254    2    1    2    0    0 -0.11068315606E+03 -0.96473844566E+03  0.17738136603E+04  0.22127126103E+04  0.89817101089E+03 0.  0.
         23    2    4    4    0    0  0.36370420926E+03 -0.24947925221E+03  0.72906904068E+03  0.85727327447E+03  0.94101816862E+02 0.  0.
         23    2    4    4    0    0 -0.47438736532E+03 -0.71525919345E+03  0.10447446196E+04  0.13554393358E+04  0.95317294941E+02 0.  0.
          2    1    3    3  502    0 -0.27384634739E+00  0.19093830848E+03 -0.23612522763E+03  0.30366533513E+03  0.00000000000E+00 0. -1.
         -1    1    3    3    0  502  0.11095700241E+03  0.77380013718E+03 -0.80371208519E+03  0.11211740385E+04  0.00000000000E+00 0.  1.
         11    1    5    5    0    0 -0.30465579562E+00  0.20167837537E+01 -0.19294372623E+01  0.28076609504E+01  0.00000000000E+00 0.  1.
        -11    1    5    5    0    0  0.36400886505E+03 -0.25149603596E+03  0.73099847794E+03  0.85446561352E+03  0.00000000000E+00 0. -1.
          1    1    6    6  503    0 -0.25983912595E+03 -0.30580517026E+03  0.48322881491E+03  0.62812678743E+03  0.00000000000E+00 0. -1.
         -1    1    6    6    0  503 -0.21454823937E+03 -0.40945402320E+03  0.56151580470E+03  0.72731254840E+03  0.00000000000E+00 0.  1.
<mgrwt>
<rscale>  0 0.35627325E+04</rscale>
<asrwt>0</asrwt>
<pdfrwt beam="1">  1        2 0.22335197E+00 0.35627325E+04</pdfrwt>
<pdfrwt beam="2">  1       -1 0.33627141E+00 0.35627325E+04</pdfrwt>
<totfact> 0.24086303E-01</totfact>
</mgrwt>
</event>
<event>
12    6  0.1395358E-007  0.1401366E+04  0.7818608E-02  0.8952830E-01
         -1   -1    0    0    0  501 -0.00000000000E+00  0.00000000000E+00  0.29432542567E+03  0.29432542567E+03  0.00000000000E+00 0.  1.
          2   -1    0    0  501    0  0.00000000000E+00 -0.00000000000E+00 -0.16680750872E+04  0.16680750872E+04  0.00000000000E+00 0. -1.
         24    2    1    2    0    0 -0.30271371018E+03  0.17071051046E+03 -0.68054120595E+03  0.76818983084E+03  0.78750330103E+02 0.  0.
        254    2    1    2    0    0  0.30271371018E+03 -0.17071051046E+03 -0.69320845555E+03  0.11942106820E+04  0.90819795279E+03 0.  0.
         23    2    4    4    0    0 -0.27941129456E+03  0.90629809103E+01 -0.43908971596E+03  0.52846691998E+03  0.91239781362E+02 0.  0.
         23    2    4    4    0    0  0.58212500475E+03 -0.17977349137E+03 -0.25411873959E+03  0.66574376203E+03  0.86315662031E+02 0.  0.
          4    1    3    3  502    0 -0.26834232084E+03  0.12300689998E+03 -0.59748850838E+03  0.66643140400E+03  0.00000000000E+00 0. -1.
         -3    1    3    3    0  502 -0.34371389348E+02  0.47703610476E+02 -0.83052697570E+02  0.10175842683E+03  0.00000000000E+00 0.  1.
         11    1    5    5    0    0 -0.30066129196E+02  0.16663103202E+02 -0.17431574409E+02  0.38542066882E+02  0.00000000000E+00 0.  1.
        -11    1    5    5    0    0 -0.24934516537E+03 -0.76001222917E+01 -0.42165814155E+03  0.48992485310E+03  0.00000000000E+00 0. -1.
          1    1    6    6  503    0  0.37745705993E+03 -0.14611206266E+03 -0.19955079430E+03  0.45126830872E+03  0.00000000000E+00 0. -1.
         -1    1    6    6    0  503  0.20466794482E+03 -0.33661428707E+02 -0.54567945295E+02  0.21447545331E+03  0.00000000000E+00 0.  1.
<mgrwt>
<rscale>  0 0.14013663E+04</rscale>
<asrwt>0</asrwt>
<pdfrwt beam="1">  1        2 0.25662694E+00 0.14013663E+04</pdfrwt>
<pdfrwt beam="2">  1       -1 0.45280835E-01 0.14013663E+04</pdfrwt>
<totfact> 0.54832664E+01</totfact>
</mgrwt>
</event>
<event>
12    6  0.1395358E-007  0.1451861E+04  0.7818608E-02  0.8917111E-01
         -1   -1    0    0    0  501 -0.00000000000E+00  0.00000000000E+00  0.54050692548E+03  0.54050692548E+03  0.00000000000E+00 0.  1.
          2   -1    0    0  501    0  0.00000000000E+00 -0.00000000000E+00 -0.97496449241E+03  0.97496449241E+03  0.00000000000E+00 0. -1.
         24    2    1    2    0    0  0.39643446568E+03  0.73781488575E+02 -0.32249404769E+03  0.52244276303E+03  0.79624344347E+02 0.  0.
        254    2    1    2    0    0 -0.39643446568E+03 -0.73781488575E+02 -0.11196351925E+03  0.99302865486E+03  0.90053655456E+03 0.  0.
         23    2    4    4    0    0 -0.60204437889E+03 -0.27095454693E+03 -0.17402305658E+03  0.68803582750E+03  0.85061595654E+02 0.  0.
         23    2    4    4    0    0  0.20560991321E+03  0.19717305835E+03  0.62059537330E+02  0.30499282736E+03  0.89535396453E+02 0.  0.
          2    1    3    3  502    0  0.31235471034E+03  0.81944283699E+02 -0.28217416590E+03  0.42883865335E+03  0.00000000000E+00 0. -1.
         -1    1    3    3    0  502  0.84079755333E+02 -0.81627951234E+01 -0.40319881783E+02  0.93604109675E+02  0.00000000000E+00 0.  1.
         11    1    5    5    0    0 -0.35611467485E+03 -0.12257928553E+03 -0.12386574280E+03  0.39646697861E+03  0.00000000000E+00 0. -1.
        -11    1    5    5    0    0 -0.24592970404E+03 -0.14837526139E+03 -0.50157313784E+02  0.29156884890E+03  0.00000000000E+00 0.  1.
          1    1    6    6  503    0  0.39660709048E+02  0.17941536420E+02  0.41046345368E+02  0.59830368872E+02  0.00000000000E+00 0. -1.
         -1    1    6    6    0  503  0.16594920416E+03  0.17923152193E+03  0.21013191962E+02  0.24516245849E+03  0.00000000000E+00 0.  1.
<mgrwt>
<rscale>  0 0.14518610E+04</rscale>
<asrwt>0</asrwt>
<pdfrwt beam="1">  1        2 0.14999454E+00 0.14518610E+04</pdfrwt>
<pdfrwt beam="2">  1       -1 0.83154912E-01 0.14518610E+04</pdfrwt>
<totfact> 0.41542049E+01</totfact>
</mgrwt>
</event>
<event>
12    6  0.1395358E-007  0.1727908E+04  0.7818608E-02  0.8745606E-01
          2   -1    0    0  501    0  0.00000000000E+00  0.00000000000E+00  0.43576119016E+03  0.43576119016E+03  0.00000000000E+00 0. -1.
         -1   -1    0    0    0  501 -0.00000000000E+00 -0.00000000000E+00 -0.17129026006E+04  0.17129026006E+04  0.00000000000E+00 0.  1.
         24    2    1    2    0    0  0.25648103780E+03 -0.48104276562E+03 -0.80118685579E+02  0.55678514016E+03  0.80037637512E+02 0.  0.
        254    2    1    2    0    0 -0.25648103780E+03  0.48104276562E+03 -0.11970227249E+04  0.15918786506E+04  0.89667695928E+03 0.  0.
         23    2    4    4    0    0 -0.52630728776E+03  0.23123658930E+03 -0.39162327948E+03  0.70172398406E+03  0.92617683998E+02 0.  0.
         23    2    4    4    0    0  0.26982624997E+03  0.24980617633E+03 -0.80539944539E+03  0.89015466655E+03  0.92183148418E+02 0.  0.
          2    1    3    3  502    0  0.93172629771E+02 -0.16231326093E+03  0.10227641168E+02  0.18743355691E+03  0.00000000000E+00 0. -1.
         -1    1    3    3    0  502  0.16330840803E+03 -0.31872950469E+03 -0.90346326746E+02  0.36935158325E+03  0.00000000000E+00 0.  1.
         11    1    5    5    0    0 -0.31002540070E+03  0.10130883299E+03 -0.26024387965E+03  0.41726023729E+03  0.00000000000E+00 0. -1.
        -11    1    5    5    0    0 -0.21628188706E+03  0.12992775630E+03 -0.13137939983E+03  0.28446374677E+03  0.00000000000E+00 0.  1.
          4    1    6    6  503    0  0.13971945115E+03  0.11346811426E+03 -0.28927477328E+03  0.34069991553E+03  0.00000000000E+00 0. -1.
         -4    1    6    6    0  503  0.13010679881E+03  0.13633806206E+03 -0.51612467210E+03  0.54945475102E+03  0.00000000000E+00 0.  1.
<mgrwt>
<rscale>  0 0.17279080E+04</rscale>
<asrwt>0</asrwt>
<pdfrwt beam="1">  1        2 0.67040183E-01 0.17279080E+04</pdfrwt>
<pdfrwt beam="2">  1       -1 0.26352348E+00 0.17279080E+04</pdfrwt>
<totfact> 0.44602555E+00</totfact>
</mgrwt>
</event>
<event>
12    6  0.1395358E-007  0.2139913E+04  0.7818608E-02  0.8543862E-01
         -3   -1    0    0    0  501 -0.00000000000E+00  0.00000000000E+00  0.11434132155E+04  0.11434132155E+04  0.00000000000E+00 0.  1.
          2   -1    0    0  501    0  0.00000000000E+00 -0.00000000000E+00 -0.10012188701E+04  0.10012188701E+04  0.00000000000E+00 0. -1.
         24    2    1    2    0    0 -0.24619219453E+03 -0.73741199752E+03  0.47701915317E+03  0.91562627293E+03  0.80231841880E+02 0.  0.
        254    2    1    2    0    0  0.24619219453E+03  0.73741199752E+03 -0.33482480777E+03  0.12290058127E+04  0.89104465936E+03 0.  0.
         23    2    4    4    0    0  0.43266420329E+03  0.77350581107E+03 -0.43912916755E+03  0.99334512158E+03  0.91599957454E+02 0.  0.
         23    2    4    4    0    0 -0.18647200877E+03 -0.36093813542E+02  0.10430435977E+03  0.23566069111E+03  0.92639022206E+02 0.  0.
          2    1    3    3  502    0 -0.59303720004E+02 -0.29302214221E+03  0.19858634063E+03  0.35890868159E+03  0.00000000000E+00 0. -1.
         -1    1    3    3    0  502 -0.18688847452E+03 -0.44438985531E+03  0.27843281253E+03  0.55671759134E+03  0.00000000000E+00 0.  1.
         11    1    5    5    0    0  0.29100783321E+03  0.44997832117E+03 -0.23233224092E+03  0.58407561041E+03  0.00000000000E+00 0. -1.
        -11    1    5    5    0    0  0.14165637009E+03  0.32352748990E+03 -0.20679692662E+03  0.40926951116E+03  0.00000000000E+00 0.  1.
          4    1    6    6  503    0 -0.16602425487E+03 -0.29756059801E+02  0.47913338901E+02  0.17534299058E+03  0.00000000000E+00 0. -1.
         -4    1    6    6    0  503 -0.20447753896E+02 -0.63377537409E+01  0.56391020873E+02  0.60317700528E+02  0.00000000000E+00 0.  1.
<mgrwt>
<rscale>  0 0.21399130E+04</rscale>
<asrwt>0</asrwt>
<pdfrwt beam="1">  1        2 0.15403367E+00 0.21399130E+04</pdfrwt>
<pdfrwt beam="2">  1       -3 0.17590973E+00 0.21399130E+04</pdfrwt>
<totfact> 0.30669307E+00</totfact>
</mgrwt>
</event>
<event>
12    6  0.1395358E-007  0.1360262E+04  0.7818608E-02  0.8983096E-01
          2   -1    0    0  501    0  0.00000000000E+00  0.00000000000E+00  0.48623438582E+03  0.48623438582E+03  0.00000000000E+00 0. -1.
         -1   -1    0    0    0  501 -0.00000000000E+00 -0.00000000000E+00 -0.95134811325E+03  0.95134811325E+03  0.00000000000E+00 0.  1.
         24    2    1    2    0    0  0.30569597318E+03  0.24240158217E+02  0.10483029095E+03  0.33431687576E+03  0.82102193827E+02 0.  0.
        254    2    1    2    0    0 -0.30569597318E+03 -0.24240158217E+02 -0.56994401838E+03  0.11032656233E+04  0.89348824178E+03 0.  0.
         23    2    4    4    0    0  0.47236679335E+02 -0.28301892488E+03 -0.58263304571E+03  0.65594684947E+03  0.92054264729E+02 0.  0.
         23    2    4    4    0    0 -0.35293265251E+03  0.25877876666E+03  0.12689027334E+02  0.44731877384E+03  0.91679696405E+02 0.  0.
          2    1    3    3  502    0  0.22724624811E+03  0.39210456594E+02  0.10744964393E+03  0.25440861457E+03  0.00000000000E+00 0. -1.
         -3    1    3    3    0  502  0.78449725063E+02 -0.14970298377E+02 -0.26193529829E+01  0.79908261188E+02  0.00000000000E+00 0.  1.
         11    1    5    5    0    0  0.57089012828E+02 -0.28357567633E+03 -0.57428149780E+03  0.64301909638E+03  0.00000000000E+00 0. -1.
        -11    1    5    5    0    0 -0.98523334924E+01  0.55675144533E+00 -0.83515479076E+01  0.12927753087E+02  0.00000000000E+00 0.  1.
          3    1    6    6  503    0 -0.31019337991E+03  0.19824273898E+03 -0.14419736092E+02  0.36841287340E+03  0.00000000000E+00 0. -1.
         -3    1    6    6    0  503 -0.42739272603E+02  0.60536027685E+02  0.27108763425E+02  0.78905900444E+02  0.00000000000E+00 0.  1.
<mgrwt>
<rscale>  0 0.13602620E+04</rscale>
<asrwt>0</asrwt>
<pdfrwt beam="1">  1        2 0.74805290E-01 0.13602620E+04</pdfrwt>
<pdfrwt beam="2">  1       -1 0.14636125E+00 0.13602620E+04</pdfrwt>
<totfact> 0.26464552E+01</totfact>
</mgrwt>
</event>
<event>
12    6  0.1395358E-007  0.1437910E+04  0.7818608E-02  0.8926825E-01
          2   -1    0    0  501    0  0.00000000000E+00  0.00000000000E+00  0.76828366796E+03  0.76828366796E+03  0.00000000000E+00 0. -1.
         -1   -1    0    0    0  501 -0.00000000000E+00 -0.00000000000E+00 -0.67279353824E+03  0.67279353824E+03  0.00000000000E+00 0.  1.
         24    2    1    2    0    0  0.84818352551E+02 -0.37081476941E+03  0.22802398507E+03  0.45548637034E+03  0.10380341834E+03 0.  0.
        254    2    1    2    0    0 -0.84818352551E+02  0.37081476941E+03 -0.13253385535E+03  0.98559083586E+03  0.89951449503E+03 0.  0.
         23    2    4    4    0    0  0.94909238598E+02 -0.12265466653E+02  0.32801984988E+03  0.35364590160E+03  0.91160279503E+02 0.  0.
         23    2    4    4    0    0 -0.17972759115E+03  0.38308023606E+03 -0.46055370523E+03  0.63194493426E+03  0.90510829468E+02 0.  0.
          2    1    3    3  502    0  0.23572280898E+02 -0.27573339997E+03  0.19187537588E+03  0.33675023408E+03  0.00000000000E+00 0. -1.
         -1    1    3    3    0  502  0.61246071653E+02 -0.95081369445E+02  0.36148609185E+02  0.11873613626E+03  0.00000000000E+00 0.  1.
         11    1    5    5    0    0  0.38383925342E+02 -0.44583320634E+02  0.21803786535E+03  0.22583513662E+03  0.00000000000E+00 0.  1.
        -11    1    5    5    0    0  0.56525313256E+02  0.32317853981E+02  0.10998198453E+03  0.12781076498E+03  0.00000000000E+00 0. -1.
          1    1    6    6  503    0 -0.72582825563E+02  0.91871904761E+02 -0.17300494185E+03  0.20890051067E+03  0.00000000000E+00 0. -1.
         -1    1    6    6    0  503 -0.10714476559E+03  0.29120833130E+03 -0.28754876337E+03  0.42304442359E+03  0.00000000000E+00 0.  1.
<mgrwt>
<rscale>  0 0.14379100E+04</rscale>
<asrwt>0</asrwt>
<pdfrwt beam="1">  1        2 0.11819749E+00 0.14379100E+04</pdfrwt>
<pdfrwt beam="2">  1       -1 0.10350670E+00 0.14379100E+04</pdfrwt>
<totfact> 0.35465982E+01</totfact>
</mgrwt>
</event>
<event>
12    6  0.1395358E-007  0.2917464E+04  0.7818608E-02  0.8267700E-01
         -1   -1    0    0    0  501 -0.00000000000E+00  0.00000000000E+00  0.65323344415E+03  0.65323344415E+03  0.00000000000E+00 0.  1.
          2   -1    0    0  501    0  0.00000000000E+00 -0.00000000000E+00 -0.32574855360E+04  0.32574855360E+04  0.00000000000E+00 0. -1.
         24    2    1    2    0    0  0.12369731674E+04  0.40042776602E+03 -0.88495577610E+03  0.15746695837E+04  0.77411623445E+02 0.  0.
        254    2    1    2    0    0 -0.12369731674E+04 -0.40042776602E+03 -0.17192963158E+04  0.23360493965E+04  0.90038988721E+03 0.  0.
         23    2    4    4    0    0 -0.80566227971E+03 -0.68103972159E+03 -0.11541881926E+04  0.15662987696E+04  0.90744918439E+02 0.  0.
         23    2    4    4    0    0 -0.43131088766E+03  0.28061195557E+03 -0.56510812317E+03  0.76975062698E+03  0.91633429667E+02 0.  0.
          2    1    3    3  502    0  0.50327918605E+03  0.13830817414E+03 -0.39130207176E+03  0.65233151197E+03  0.00000000000E+00 0. -1.
         -1    1    3    3    0  502  0.73369398132E+03  0.26211959189E+03 -0.49365370435E+03  0.92233807169E+03  0.00000000000E+00 0.  1.
         11    1    5    5    0    0 -0.98340882373E+02 -0.78728346340E+02 -0.97542788356E+02  0.15932255717E+03  0.00000000000E+00 0. -1.
        -11    1    5    5    0    0 -0.70732139733E+03 -0.60231137525E+03 -0.10566454042E+04  0.14069762124E+04  0.00000000000E+00 0.  1.
          1    1    6    6  503    0 -0.42652032174E+03  0.28696476377E+03 -0.55112653095E+03  0.75366359447E+03  0.00000000000E+00 0.  1.
         -1    1    6    6    0  503 -0.47905659208E+01 -0.63528082060E+01 -0.13981592222E+02  0.16087032511E+02  0.00000000000E+00 0. -1.
<mgrwt>
<rscale>  0 0.29174636E+04</rscale>
<asrwt>0</asrwt>
<pdfrwt beam="1">  1        2 0.50115161E+00 0.29174636E+04</pdfrwt>
<pdfrwt beam="2">  1       -1 0.10049746E+00 0.29174636E+04</pdfrwt>
<totfact> 0.10962730E+00</totfact>
</mgrwt>
</event>
<event>
12    6  0.1395358E-007  0.2989233E+04  0.7818608E-02  0.8246812E-01
          2   -1    0    0  501    0  0.00000000000E+00  0.00000000000E+00  0.12310472202E+04  0.12310472202E+04  0.00000000000E+00 0. -1.
         -1   -1    0    0    0  501 -0.00000000000E+00 -0.00000000000E+00 -0.18146163588E+04  0.18146163588E+04  0.00000000000E+00 0.  1.
         24    2    1    2    0    0  0.12571876183E+04  0.97708249505E+01 -0.78624136551E+03  0.14855116184E+04  0.89180193822E+02 0.  0.
        254    2    1    2    0    0 -0.12571876183E+04 -0.97708249505E+01  0.20267222693E+03  0.15601519606E+04  0.90132232420E+03 0.  0.
         23    2    4    4    0    0 -0.41716062278E+03  0.41114643981E+03 -0.71600317979E+01  0.59301683108E+03  0.92484137677E+02 0.  0.
         23    2    4    4    0    0 -0.84002699553E+03 -0.42091726476E+03  0.20983225873E+03  0.96713512957E+03  0.92217596237E+02 0.  0.
          4    1    3    3  502    0  0.82651473111E+03 -0.27953069073E+02 -0.48698056587E+03  0.95971769097E+03  0.00000000000E+00 0. -1.
         -3    1    3    3    0  502  0.43067288719E+03  0.37723894024E+02 -0.29926079964E+03  0.52579392745E+03  0.00000000000E+00 0.  1.
         11    1    5    5    0    0 -0.38190320147E+03  0.40583854281E+03 -0.84523005006E+01  0.55733869371E+03  0.00000000000E+00 0. -1.
        -11    1    5    5    0    0 -0.35257421303E+02  0.53078970024E+01  0.12922687027E+01  0.35678137366E+02  0.00000000000E+00 0.  1.
          3    1    6    6  503    0 -0.60158392268E+03 -0.28795163796E+03  0.18960775909E+03  0.69337613467E+03  0.00000000000E+00 0. -1.
         -3    1    6    6    0  503 -0.23844307285E+03 -0.13296562680E+03  0.20224499639E+02  0.27375899489E+03  0.00000000000E+00 0.  1.
<mgrwt>
<rscale>  0 0.29892330E+04</rscale>
<asrwt>0</asrwt>
<pdfrwt beam="1">  1        2 0.18939188E+00 0.29892330E+04</pdfrwt>
<pdfrwt beam="2">  1       -1 0.27917175E+00 0.29892330E+04</pdfrwt>
<totfact> 0.79822110E-01</totfact>
</mgrwt>
</event>
<event>
12    6  0.1395358E-007  0.2368455E+04  0.7818608E-02  0.8451409E-01
          2   -1    0    0  501    0  0.00000000000E+00  0.00000000000E+00  0.10233120766E+04  0.10233120766E+04  0.00000000000E+00 0. -1.
         -1   -1    0    0    0  501 -0.00000000000E+00 -0.00000000000E+00 -0.13704466897E+04  0.13704466897E+04  0.00000000000E+00 0.  1.
         24    2    1    2    0    0  0.84547730018E+03  0.18794980601E+03  0.38213142990E+03  0.94987622398E+03  0.77996259421E+02 0.  0.
        254    2    1    2    0    0 -0.84547730018E+03 -0.18794980601E+03 -0.72926604304E+03  0.14438825424E+04  0.89599712047E+03 0.  0.
         23    2    4    4    0    0 -0.71378442615E+03 -0.49990682453E+03 -0.63375978573E+03  0.10813662835E+04  0.91140182528E+02 0.  0.
         23    2    4    4    0    0 -0.13169287402E+03  0.31195701852E+03 -0.95506257310E+02  0.36251625884E+03  0.87386487910E+02 0.  0.
          4    1    3    3  502    0  0.84328116126E+03  0.18324235799E+03  0.38374490599E+03  0.94443688597E+03  0.00000000000E+00 0. -1.
         -3    1    3    3    0  502  0.21961389136E+01  0.47074480174E+01 -0.16134760924E+01  0.54393380171E+01  0.00000000000E+00 0.  1.
         11    1    5    5    0    0 -0.81245157713E+02 -0.90844305760E+02 -0.10692992839E+03  0.16213412080E+03  0.00000000000E+00 0.  1.
        -11    1    5    5    0    0 -0.63253926844E+03 -0.40906251877E+03 -0.52682985734E+03  0.91923216271E+03  0.00000000000E+00 0. -1.
          4    1    6    6  503    0 -0.10528476079E+03  0.28150314978E+03 -0.55318330955E+02  0.30559617460E+03  0.00000000000E+00 0. -1.
         -4    1    6    6    0  503 -0.26408113234E+02  0.30453868742E+02 -0.40187926355E+02  0.56920084246E+02  0.00000000000E+00 0.  1.
<mgrwt>
<rscale>  0 0.23684549E+04</rscale>
<asrwt>0</asrwt>
<pdfrwt beam="1">  1        2 0.15743263E+00 0.23684549E+04</pdfrwt>
<pdfrwt beam="2">  1       -1 0.21083795E+00 0.23684549E+04</pdfrwt>
<totfact> 0.31743180E+00</totfact>
</mgrwt>
</event>
<event>
12    6  0.1395358E-007  0.2797263E+04  0.7818608E-02  0.8304118E-01
          2   -1    0    0  501    0  0.00000000000E+00  0.00000000000E+00  0.21230498564E+04  0.21230498564E+04  0.00000000000E+00 0. -1.
         -1   -1    0    0    0  501 -0.00000000000E+00 -0.00000000000E+00 -0.92139645458E+03  0.92139645458E+03  0.00000000000E+00 0.  1.
         24    2    1    2    0    0 -0.82945711868E+03 -0.63327174102E+03 -0.21541960305E+03  0.10684620440E+04  0.78570505588E+02 0.  0.
        254    2    1    2    0    0  0.82945711868E+03  0.63327174102E+03  0.14170730048E+04  0.19759842670E+04  0.89854644428E+03 0.  0.
         23    2    4    4    0    0  0.41002608678E+03  0.79404056789E+03  0.76767280480E+03  0.11810779120E+04  0.83676063416E+02 0.  0.
         23    2    4    4    0    0  0.41943103190E+03 -0.16076882686E+03  0.64940020003E+03  0.79490635500E+03  0.91577765922E+02 0.  0.
          4    1    3    3  502    0 -0.47254329717E+03 -0.31508818507E+03 -0.10204200599E+03  0.57705311979E+03  0.00000000000E+00 0. -1.
         -3    1    3    3    0  502 -0.35691382151E+03 -0.31818355595E+03 -0.11337759706E+03  0.49140892420E+03  0.00000000000E+00 0.  1.
         11    1    5    5    0    0  0.11955974905E+03  0.15624559179E+03  0.16885316718E+03  0.25926552145E+03  0.00000000000E+00 0. -1.
        -11    1    5    5    0    0  0.29046633773E+03  0.63779497609E+03  0.59881963763E+03  0.92181239051E+03  0.00000000000E+00 0.  1.
          4    1    6    6  503    0  0.33086625765E+03 -0.15884956211E+03  0.55566328674E+03  0.66593344417E+03  0.00000000000E+00 0. -1.
         -4    1    6    6    0  503  0.88564774250E+02 -0.19192647546E+01  0.93736913285E+02  0.12897291083E+03  0.00000000000E+00 0.  1.
<mgrwt>
<rscale>  0 0.27972634E+04</rscale>
<asrwt>0</asrwt>
<pdfrwt beam="1">  1        2 0.32662305E+00 0.27972634E+04</pdfrwt>
<pdfrwt beam="2">  1       -1 0.14175330E+00 0.27972634E+04</pdfrwt>
<totfact> 0.22905192E+00</totfact>
</mgrwt>
</event>
<event>
12    6  0.1395358E-007  0.1279204E+04  0.7818608E-02  0.9046221E-01
         -3   -1    0    0    0  501 -0.00000000000E+00  0.00000000000E+00  0.34634596230E+03  0.34634596230E+03  0.00000000000E+00 0.  1.
          4   -1    0    0  501    0  0.00000000000E+00 -0.00000000000E+00 -0.11811612019E+04  0.11811612019E+04  0.00000000000E+00 0. -1.
         24    2    1    2    0    0  0.10194479636E+03  0.18987723213E+03  0.63050640310E+02  0.23872279402E+03  0.81037549039E+02 0.  0.
        254    2    1    2    0    0 -0.10194479636E+03 -0.18987723213E+03 -0.89786587993E+03  0.12887843702E+04  0.89908615258E+03 0.  0.
         23    2    4    4    0    0  0.13780630558E+03 -0.26566791190E+03 -0.96003116913E+03  0.10100464443E+04  0.94678174640E+02 0.  0.
         23    2    4    4    0    0 -0.23975110194E+03  0.75790679766E+02  0.62165289209E+02  0.27873792586E+03  0.10298296029E+03 0.  0.
          4    1    3    3  502    0  0.62152980499E+02  0.17774705241E+03  0.56622869478E+02  0.19662949162E+03  0.00000000000E+00 0. -1.
         -3    1    3    3    0  502  0.39791815856E+02  0.12130179723E+02  0.64277708312E+01  0.42093302402E+02  0.00000000000E+00 0.  1.
         11    1    5    5    0    0  0.64541127077E+02 -0.41979214411E+02 -0.28194866492E+03  0.29227189598E+03  0.00000000000E+00 0. -1.
        -11    1    5    5    0    0  0.73265178506E+02 -0.22368869749E+03 -0.67808250421E+03  0.71777454837E+03  0.00000000000E+00 0.  1.
          1    1    6    6  503    0 -0.75974182539E+02 -0.17818801915E+02 -0.57401246256E+01  0.78246630246E+02  0.00000000000E+00 0. -1.
         -1    1    6    6    0  503 -0.16377691940E+03  0.93609481681E+02  0.67905413835E+02  0.20049129561E+03  0.00000000000E+00 0.  1.
<mgrwt>
<rscale>  0 0.12792035E+04</rscale>
<asrwt>0</asrwt>
<pdfrwt beam="1">  1        4 0.18171711E+00 0.12792035E+04</pdfrwt>
<pdfrwt beam="2">  1       -3 0.53283993E-01 0.12792035E+04</pdfrwt>
<totfact> 0.13657431E+00</totfact>
</mgrwt>
</event>
<event>
12    6  0.1395358E-007  0.3327824E+04  0.7818608E-02  0.8155851E-01
          2   -1    0    0  501    0  0.00000000000E+00  0.00000000000E+00  0.26488883851E+04  0.26488883851E+04  0.00000000000E+00 0. -1.
         -1   -1    0    0    0  501 -0.00000000000E+00 -0.00000000000E+00 -0.10451944489E+04  0.10451944489E+04  0.00000000000E+00 0.  1.
         24    2    1    2    0    0 -0.15298970692E+04  0.10199746051E+03  0.89626019138E+03  0.17778844059E+04  0.81253344473E+02 0.  0.
        254    2    1    2    0    0  0.15298970692E+04 -0.10199746051E+03  0.70743374483E+03  0.19161984280E+04  0.90574024311E+03 0.  0.
         23    2    4    4    0    0  0.94436286185E+03 -0.30513902260E+01  0.87620351909E+03  0.12919979124E+04  0.98465592924E+02 0.  0.
         23    2    4    4    0    0  0.58553420733E+03 -0.98946070283E+02 -0.16876977426E+03  0.62420051561E+03  0.92208536497E+02 0.  0.
          2    1    3    3  502    0 -0.96849469217E+03  0.25339349379E+02  0.56805333011E+03  0.11230799781E+04  0.00000000000E+00 0. -1.
         -1    1    3    3    0  502 -0.56140237701E+03  0.76658111131E+02  0.32820686127E+03  0.65480442782E+03  0.00000000000E+00 0.  1.
         11    1    5    5    0    0  0.73614804047E+03 -0.41921601546E+02  0.69478089556E+03  0.10131099896E+04  0.00000000000E+00 0.  1.
        -11    1    5    5    0    0  0.20821482137E+03  0.38870211320E+02  0.18142262353E+03  0.27888792282E+03  0.00000000000E+00 0. -1.
          4    1    6    6  503    0  0.47992458342E+03 -0.66683787976E+02 -0.17079027394E+03  0.51375446569E+03  0.00000000000E+00 0.  1.
         -4    1    6    6    0  503  0.10560962391E+03 -0.32262282307E+02  0.20204996816E+01  0.11044604991E+03  0.00000000000E+00 0. -1.
<mgrwt>
<rscale>  0 0.33278242E+04</rscale>
<asrwt>0</asrwt>
<pdfrwt beam="1">  1        2 0.40752129E+00 0.33278242E+04</pdfrwt>
<pdfrwt beam="2">  1       -1 0.16079915E+00 0.33278242E+04</pdfrwt>
<totfact> 0.77681559E-01</totfact>
</mgrwt>
</event>
<event>
12    6  0.1395358E-007  0.1559698E+04  0.7818608E-02  0.8845697E-01
          2   -1    0    0  501    0  0.00000000000E+00  0.00000000000E+00  0.28482804413E+04  0.28482804413E+04  0.00000000000E+00 0. -1.
         -1   -1    0    0    0  501 -0.00000000000E+00 -0.00000000000E+00 -0.21351975408E+03  0.21351975408E+03  0.00000000000E+00 0.  1.
         24    2    1    2    0    0 -0.21049499366E+02 -0.15001525667E+03 -0.89753339770E+02  0.19135031294E+03  0.74910757619E+02 0.  0.
        254    2    1    2    0    0  0.21049499366E+02  0.15001525667E+03  0.27245140270E+04  0.28704498825E+04  0.89081882873E+03 0.  0.
         23    2    4    4    0    0  0.11532486695E+02  0.43333739317E+03  0.23539119123E+04  0.23952226181E+04  0.90971448598E+02 0.  0.
         23    2    4    4    0    0  0.95170126711E+01 -0.28332213650E+03  0.37060211470E+03  0.47522726442E+03  0.90183251566E+02 0.  0.
          2    1    3    3  502    0 -0.34275996881E+02 -0.74479919356E+02 -0.13290580691E+02  0.83058665319E+02  0.00000000000E+00 0. -1.
         -1    1    3    3    0  502  0.13226497515E+02 -0.75535337312E+02 -0.76462759079E+02  0.10829164763E+03  0.00000000000E+00 0.  1.
         11    1    5    5    0    0  0.32321820424E+02  0.58740638745E+02  0.40836783095E+03  0.41383504935E+03  0.00000000000E+00 0.  1.
        -11    1    5    5    0    0 -0.20789333729E+02  0.37459675442E+03  0.19455440814E+04  0.19813875687E+04  0.00000000000E+00 0. -1.
          2    1    6    6  503    0  0.40637454164E+02 -0.22413104266E+03  0.31204619262E+03  0.38634046293E+03  0.00000000000E+00 0. -1.
         -2    1    6    6    0  503 -0.31120441493E+02 -0.59191093836E+02  0.58555922083E+02  0.88886801491E+02  0.00000000000E+00 0.  1.
<mgrwt>
<rscale>  0 0.15596976E+04</rscale>
<asrwt>0</asrwt>
<pdfrwt beam="1">  1        2 0.43819696E+00 0.15596976E+04</pdfrwt>
<pdfrwt beam="2">  1       -1 0.32849195E-01 0.15596976E+04</pdfrwt>
<totfact> 0.20677898E+01</totfact>
</mgrwt>
</event>
<event>
12    6  0.1395358E-007  0.2963645E+04  0.7818608E-02  0.8254189E-01
         -1   -1    0    0    0  501 -0.00000000000E+00  0.00000000000E+00  0.14987075583E+04  0.14987075583E+04  0.00000000000E+00 0.  1.
          2   -1    0    0  501    0  0.00000000000E+00 -0.00000000000E+00 -0.14651281552E+04  0.14651281552E+04  0.00000000000E+00 0. -1.
         24    2    1    2    0    0 -0.51251998246E+03  0.12393057398E+04 -0.65516986227E+02  0.13451594933E+04  0.81278151120E+02 0.  0.
        254    2    1    2    0    0  0.51251998246E+03 -0.12393057398E+04  0.99096389246E+02  0.16186762201E+04  0.90096457317E+03 0.  0.
         23    2    4    4    0    0 -0.10303578902E+03 -0.38773635953E+03  0.34368496218E+03  0.53595148389E+03  0.90381311891E+02 0.  0.
         23    2    4    4    0    0  0.61555577148E+03 -0.85156938031E+03 -0.24458857293E+03  0.10827247363E+04  0.91596764191E+02 0.  0.
          4    1    3    3  502    0 -0.45617188531E+03  0.11430724023E+04 -0.76459920598E+02  0.12331072238E+04  0.00000000000E+00 0. -1.
         -3    1    3    3    0  502 -0.56348097146E+02  0.96233337526E+02  0.10942934371E+02  0.11205226957E+03  0.00000000000E+00 0.  1.
         11    1    5    5    0    0 -0.88445800178E+02 -0.38374991347E+03  0.31812196250E+03  0.50624918636E+03  0.00000000000E+00 0. -1.
        -11    1    5    5    0    0 -0.14589988845E+02 -0.39864460581E+01  0.25562999674E+02  0.29702297537E+02  0.00000000000E+00 0.  1.
          3    1    6    6  503    0  0.35219771440E+03 -0.43168421879E+03 -0.16237585840E+03  0.58031061870E+03  0.00000000000E+00 0. -1.
         -3    1    6    6    0  503  0.26335805708E+03 -0.41988516151E+03 -0.82212714527E+02  0.50241411755E+03  0.00000000000E+00 0.  1.
<mgrwt>
<rscale>  0 0.29636455E+04</rscale>
<asrwt>0</asrwt>
<pdfrwt beam="1">  1        2 0.22540433E+00 0.29636455E+04</pdfrwt>
<pdfrwt beam="2">  1       -1 0.23057039E+00 0.29636455E+04</pdfrwt>
<totfact> 0.12153558E+00</totfact>
</mgrwt>
</event>
<event>
12    6  0.1395358E-007  0.1567628E+04  0.7818608E-02  0.8840686E-01
          2   -1    0    0  501    0  0.00000000000E+00  0.00000000000E+00  0.18501043354E+04  0.18501043354E+04  0.00000000000E+00 0. -1.
         -1   -1    0    0    0  501 -0.00000000000E+00 -0.00000000000E+00 -0.33206999667E+03  0.33206999667E+03  0.00000000000E+00 0.  1.
         24    2    1    2    0    0  0.21805593248E+03 -0.47125935534E+03  0.45518488641E+03  0.69576912901E+03  0.85250398133E+02 0.  0.
        254    2    1    2    0    0 -0.21805593248E+03  0.47125935534E+03  0.10628494523E+04  0.14864052031E+04  0.90006538634E+03 0.  0.
         23    2    4    4    0    0 -0.22940360172E+03  0.71612753828E+03  0.65186009116E+03  0.99945859020E+03  0.92364665936E+02 0.  0.
         23    2    4    4    0    0  0.11347669242E+02 -0.24486818294E+03  0.41098936118E+03  0.48694661287E+03  0.90086359467E+02 0.  0.
          2    1    3    3  502    0  0.12504320141E+03 -0.17093273989E+03  0.18666464949E+03  0.28230744793E+03  0.00000000000E+00 0. -1.
         -1    1    3    3    0  502  0.93012731067E+02 -0.30032661545E+03  0.26852023691E+03  0.41346168108E+03  0.00000000000E+00 0.  1.
         11    1    5    5    0    0 -0.24929915754E+01  0.10765029772E+03  0.10618522538E+03  0.15122864707E+03  0.00000000000E+00 0. -1.
        -11    1    5    5    0    0 -0.22691061015E+03  0.60847724056E+03  0.54567486578E+03  0.84822994313E+03  0.00000000000E+00 0.  1.
          1    1    6    6  503    0 -0.39079096058E+02 -0.87499768522E+02  0.15669928224E+03  0.18367920485E+03  0.00000000000E+00 0. -1.
         -1    1    6    6    0  503  0.50426765300E+02 -0.15736841442E+03  0.25429007894E+03  0.30326740801E+03  0.00000000000E+00 0.  1.
<mgrwt>
<rscale>  0 0.15676277E+04</rscale>
<asrwt>0</asrwt>
<pdfrwt beam="1">  1        2 0.28463143E+00 0.15676277E+04</pdfrwt>
<pdfrwt beam="2">  1       -1 0.51087693E-01 0.15676277E+04</pdfrwt>
<totfact> 0.34141954E+01</totfact>
</mgrwt>
</event>
<event>
12    6  0.1395358E-007  0.1431070E+04  0.7818608E-02  0.8931630E-01
          2   -1    0    0  501    0  0.00000000000E+00  0.00000000000E+00  0.55248762753E+03  0.55248762753E+03  0.00000000000E+00 0. -1.
         -1   -1    0    0    0  501 -0.00000000000E+00 -0.00000000000E+00 -0.92670061696E+03  0.92670061696E+03  0.00000000000E+00 0.  1.
         24    2    1    2    0    0 -0.39725039969E+03 -0.75070245385E+01 -0.28392107088E+03  0.49494539971E+03  0.80594905133E+02 0.  0.
        254    2    1    2    0    0  0.39725039969E+03  0.75070245385E+01 -0.90291918558E+02  0.98424284478E+03  0.89594481496E+03 0.  0.
         23    2    4    4    0    0  0.63928704925E+03  0.16094091767E+03  0.14087396838E+02  0.66567610607E+03  0.91303412437E+02 0.  0.
         23    2    4    4    0    0 -0.24203664956E+03 -0.15343389313E+03 -0.10437931540E+03  0.31856673871E+03  0.92011011516E+02 0.  0.
          4    1    3    3  502    0 -0.23799454691E+03  0.33612113497E+02 -0.18147024950E+03  0.30116877326E+03  0.00000000000E+00 0. -1.
         -3    1    3    3    0  502 -0.15925585278E+03 -0.41119138035E+02 -0.10245082138E+03  0.19377662645E+03  0.00000000000E+00 0.  1.
         11    1    5    5    0    0  0.53713395929E+03  0.14891107028E+03 -0.18732195285E+02  0.55770807079E+03  0.00000000000E+00 0. -1.
        -11    1    5    5    0    0  0.10215308995E+03  0.12029847385E+02  0.32819592123E+02  0.10796803528E+03  0.00000000000E+00 0.  1.
          3    1    6    6  503    0 -0.20300811486E+03 -0.81971940574E+02 -0.66871187221E+02  0.22891799715E+03  0.00000000000E+00 0. -1.
         -3    1    6    6    0  503 -0.39028534699E+02 -0.71461952555E+02 -0.37508128175E+02  0.89648741558E+02  0.00000000000E+00 0.  1.
<mgrwt>
<rscale>  0 0.14310704E+04</rscale>
<asrwt>0</asrwt>
<pdfrwt beam="1">  1        2 0.84998096E-01 0.14310704E+04</pdfrwt>
<pdfrwt beam="2">  1       -1 0.14256933E+00 0.14310704E+04</pdfrwt>
<totfact> 0.24291182E+01</totfact>
</mgrwt>
</event>
<event>
12    6  0.1395358E-007  0.2865422E+04  0.7818608E-02  0.8283241E-01
         -1   -1    0    0    0  501 -0.00000000000E+00  0.00000000000E+00  0.13548002833E+04  0.13548002833E+04  0.00000000000E+00 0.  1.
          2   -1    0    0  501    0  0.00000000000E+00 -0.00000000000E+00 -0.15151017298E+04  0.15151017298E+04  0.00000000000E+00 0. -1.
         24    2    1    2    0    0  0.89631894808E+03  0.69843208054E+03 -0.68287725300E+03  0.13294778011E+04  0.99974261813E+02 0.  0.
        254    2    1    2    0    0 -0.89631894808E+03 -0.69843208054E+03  0.52257580648E+03  0.15404242121E+04  0.89923648276E+03 0.  0.
         23    2    4    4    0    0  0.68804894647E+02 -0.46806995282E+02 -0.14895443718E+03  0.19319828536E+03  0.90626402197E+02 0.  0.
         23    2    4    4    0    0 -0.96512384273E+03 -0.65162508525E+03  0.67153024367E+03  0.13472259268E+04  0.89361882322E+02 0.  0.
          4    1    3    3  502    0  0.29688454207E+03  0.23027520127E+03 -0.28151720404E+03  0.46948805715E+03  0.00000000000E+00 0. -1.
         -3    1    3    3    0  502  0.59943440602E+03  0.46815687926E+03 -0.40136004896E+03  0.85998974390E+03  0.00000000000E+00 0.  1.
         11    1    5    5    0    0 -0.17956354043E+02  0.77048792134E+01 -0.33928437738E+02  0.39152710016E+02  0.00000000000E+00 0. -1.
        -11    1    5    5    0    0  0.86761248690E+02 -0.54511874495E+02 -0.11502599945E+03  0.15404557535E+03  0.00000000000E+00 0.  1.
          3    1    6    6  503    0 -0.36618240662E+02 -0.34107352096E+02  0.49396348001E+02  0.70315049684E+02  0.00000000000E+00 0. -1.
         -3    1    6    6    0  503 -0.92850560207E+03 -0.61751773316E+03  0.62213389566E+03  0.12769108771E+04  0.00000000000E+00 0.  1.
<mgrwt>
<rscale>  0 0.28654216E+04</rscale>
<asrwt>0</asrwt>
<pdfrwt beam="1">  1        2 0.23309257E+00 0.28654216E+04</pdfrwt>
<pdfrwt beam="2">  1       -1 0.20843082E+00 0.28654216E+04</pdfrwt>
<totfact> 0.16163130E+00</totfact>
</mgrwt>
</event>
<event>
12    6  0.1395358E-007  0.2231439E+04  0.7818608E-02  0.8505455E-01
         -1   -1    0    0    0  501 -0.00000000000E+00  0.00000000000E+00  0.81413880992E+03  0.81413880992E+03  0.00000000000E+00 0.  1.
          2   -1    0    0  501    0  0.00000000000E+00 -0.00000000000E+00 -0.15290149881E+04  0.15290149881E+04  0.00000000000E+00 0. -1.
         24    2    1    2    0    0 -0.29066236581E+03  0.63264698314E+03  0.35085298512E+03  0.78422332090E+03  0.84744225165E+02 0.  0.
        254    2    1    2    0    0  0.29066236581E+03 -0.63264698314E+03 -0.10657291633E+04  0.15589304771E+04  0.89986597160E+03 0.  0.
         23    2    4    4    0    0 -0.18833650709E+03 -0.59616250998E+03 -0.46630682621E+03  0.78535920411E+03  0.92014374342E+02 0.  0.
         23    2    4    4    0    0  0.47899887290E+03 -0.36484473152E+02 -0.59942233711E+03  0.77357127304E+03  0.91292602293E+02 0.  0.
          4    1    3    3  502    0 -0.11646863463E+02  0.24031604450E+02 -0.31192650244E+01  0.26886748693E+02  0.00000000000E+00 0. -1.
         -3    1    3    3    0  502 -0.27901550235E+03  0.60861537869E+03  0.35397225015E+03  0.75733657221E+03  0.00000000000E+00 0.  1.
         11    1    5    5    0    0 -0.80829131879E+02 -0.16655719290E+03 -0.98626557944E+02  0.20976616743E+03  0.00000000000E+00 0. -1.
        -11    1    5    5    0    0 -0.10750737521E+03 -0.42960531708E+03 -0.36768026827E+03  0.57559303667E+03  0.00000000000E+00 0.  1.
          2    1    6    6  503    0  0.18554011922E+03 -0.54783478792E+02 -0.26784732550E+03  0.33040665121E+03  0.00000000000E+00 0. -1.
         -2    1    6    6    0  503  0.29345875368E+03  0.18299005639E+02 -0.33157501161E+03  0.44316462183E+03  0.00000000000E+00 0.  1.
<mgrwt>
<rscale>  0 0.22314394E+04</rscale>
<asrwt>0</asrwt>
<pdfrwt beam="1">  1        2 0.23523307E+00 0.22314394E+04</pdfrwt>
<pdfrwt beam="2">  1       -1 0.12525213E+00 0.22314394E+04</pdfrwt>
<totfact> 0.70691482E+00</totfact>
</mgrwt>
</event>
<event>
12    6  0.1395358E-007  0.1439330E+04  0.7818608E-02  0.8925831E-01
         -1   -1    0    0    0  501 -0.00000000000E+00  0.00000000000E+00  0.92358524383E+03  0.92358524383E+03  0.00000000000E+00 0.  1.
          2   -1    0    0  501    0  0.00000000000E+00 -0.00000000000E+00 -0.56076869718E+03  0.56076869718E+03  0.00000000000E+00 0. -1.
         24    2    1    2    0    0  0.75164937284E+02  0.30460582237E+03 -0.20011119268E+03  0.37793404473E+03  0.65993771796E+02 0.  0.
        254    2    1    2    0    0 -0.75164937284E+02 -0.30460582237E+03  0.56292773933E+03  0.11064198963E+04  0.89935692155E+03 0.  0.
         23    2    4    4    0    0 -0.25210177584E+02 -0.12363557324E+03  0.78571963393E+03  0.80103365334E+03  0.91532849974E+02 0.  0.
         23    2    4    4    0    0 -0.49954759699E+02 -0.18097024913E+03 -0.22279189460E+03  0.30538624293E+03  0.91535894526E+02 0.  0.
          4    1    3    3  502    0 -0.81907754624E+01  0.90094740269E+02 -0.57383863294E+02  0.10713103562E+03  0.00000000000E+00 0. -1.
         -3    1    3    3    0  502  0.83355712746E+02  0.21451108210E+03 -0.14272732938E+03  0.27080300911E+03  0.00000000000E+00 0.  1.
         11    1    5    5    0    0  0.16777820315E+02 -0.25838385460E+02  0.58972777000E+02  0.66534997143E+02  0.00000000000E+00 0.  1.
        -11    1    5    5    0    0 -0.41987997900E+02 -0.97797187779E+02  0.72674685693E+03  0.73449865620E+03  0.00000000000E+00 0. -1.
          2    1    6    6  503    0 -0.36392495799E+02 -0.86017561167E+02 -0.17467426664E+03  0.19807709107E+03  0.00000000000E+00 0.  1.
         -2    1    6    6    0  503 -0.13562263900E+02 -0.94952687962E+02 -0.48117627957E+02  0.10730915186E+03  0.00000000000E+00 0. -1.
<mgrwt>
<rscale>  0 0.14393300E+04</rscale>
<asrwt>0</asrwt>
<pdfrwt beam="1">  1        2 0.86272107E-01 0.14393300E+04</pdfrwt>
<pdfrwt beam="2">  1       -1 0.14209004E+00 0.14393300E+04</pdfrwt>
<totfact> 0.24062014E+01</totfact>
</mgrwt>
</event>
<event>
12    6  0.1395358E-007  0.2607049E+04  0.7818608E-02  0.8365811E-01
          2   -1    0    0  501    0  0.00000000000E+00  0.00000000000E+00  0.43609458373E+04  0.43609458373E+04  0.00000000000E+00 0. -1.
         -1   -1    0    0    0  501 -0.00000000000E+00 -0.00000000000E+00 -0.38963464639E+03  0.38963464639E+03  0.00000000000E+00 0.  1.
         24    2    1    2    0    0  0.11003299888E+04 -0.73634323904E+02  0.23243688348E+04  0.25740160649E+04  0.81976365698E+02 0.  0.
        254    2    1    2    0    0 -0.11003299888E+04  0.73634323904E+02  0.16469423561E+04  0.21765644188E+04  0.89936947177E+03 0.  0.
         23    2    4    4    0    0 -0.10012865794E+04 -0.43493084185E+02  0.73210420916E+03  0.12444859265E+04  0.91116330294E+02 0.  0.
         23    2    4    4    0    0 -0.99043409394E+02  0.11712740809E+03  0.91483814697E+03  0.93207849231E+03  0.91175950803E+02 0.  0.
          2    1    3    3  502    0  0.50762633224E+03  0.27173337307E+01  0.10254718494E+04  0.11442396563E+04  0.00000000000E+00 0. -1.
         -1    1    3    3    0  502  0.59270365655E+03 -0.76351657634E+02  0.12988969853E+04  0.14297764086E+04  0.00000000000E+00 0.  1.
         11    1    5    5    0    0 -0.86290867397E+03 -0.68929323257E+02  0.63171048239E+03  0.10716439543E+04  0.00000000000E+00 0.  1.
        -11    1    5    5    0    0 -0.13837790543E+03  0.25436239071E+02  0.10039372677E+03  0.17284197217E+03  0.00000000000E+00 0. -1.
          2    1    6    6  503    0 -0.56060321929E+02  0.73444640161E+02  0.29288096644E+03  0.30710932152E+03  0.00000000000E+00 0.  1.
         -2    1    6    6    0  503 -0.42983087465E+02  0.43682767928E+02  0.62195718053E+03  0.62496917078E+03  0.00000000000E+00 0. -1.
<mgrwt>
<rscale>  0 0.26070486E+04</rscale>
<asrwt>0</asrwt>
<pdfrwt beam="1">  1        2 0.67091471E+00 0.26070486E+04</pdfrwt>
<pdfrwt beam="2">  1       -1 0.59943795E-01 0.26070486E+04</pdfrwt>
<totfact> 0.47508517E-01</totfact>
</mgrwt>
</event>
<event>
12    6  0.1395358E-007  0.1325311E+04  0.7818608E-02  0.9009731E-01
         -1   -1    0    0    0  501 -0.00000000000E+00  0.00000000000E+00  0.33774002335E+03  0.33774002335E+03  0.00000000000E+00 0.  1.
          2   -1    0    0  501    0  0.00000000000E+00 -0.00000000000E+00 -0.13001480784E+04  0.13001480784E+04  0.00000000000E+00 0. -1.
         24    2    1    2    0    0 -0.21566007215E+03  0.20799626190E+03 -0.48695906133E+03  0.57708236891E+03  0.78251015407E+02 0.  0.
        254    2    1    2    0    0  0.21566007215E+03 -0.20799626190E+03 -0.47544899370E+03  0.10608057328E+04  0.89971403539E+03 0.  0.
         23    2    4    4    0    0  0.21998354732E+03 -0.53797949770E+03 -0.19959682178E+03  0.62122369616E+03  0.90913631326E+02 0.  0.
         23    2    4    4    0    0 -0.43234751666E+01  0.32998323581E+03 -0.27585217192E+03  0.43958203666E+03  0.90721099236E+02 0.  0.
          2    1    3    3  502    0 -0.15646199692E+03  0.12171823345E+03 -0.37279170836E+03  0.42221954320E+03  0.00000000000E+00 0. -1.
         -1    1    3    3    0  502 -0.59198075235E+02  0.86278028451E+02 -0.11416735297E+03  0.15486282572E+03  0.00000000000E+00 0.  1.
         11    1    5    5    0    0  0.21313630797E+03 -0.47645192699E+03 -0.20095878611E+03  0.55930131256E+03  0.00000000000E+00 0.  1.
        -11    1    5    5    0    0  0.68472393467E+01 -0.61527570710E+02  0.13619643248E+01  0.61922383602E+02  0.00000000000E+00 0. -1.
          3    1    6    6  503    0  0.38687478785E+02  0.20354235832E+03 -0.18761910609E+03  0.27951232820E+03  0.00000000000E+00 0. -1.
         -3    1    6    6    0  503 -0.43010953952E+02  0.12644087749E+03 -0.88233065825E+02  0.16006970846E+03  0.00000000000E+00 0.  1.
<mgrwt>
<rscale>  0 0.13253106E+04</rscale>
<asrwt>0</asrwt>
<pdfrwt beam="1">  1        2 0.20002278E+00 0.13253106E+04</pdfrwt>
<pdfrwt beam="2">  1       -1 0.51960004E-01 0.13253106E+04</pdfrwt>
<totfact> 0.68729859E+01</totfact>
</mgrwt>
</event>
<event>
12    6  0.1395358E-007  0.1877110E+04  0.7818608E-02  0.8666335E-01
         -1   -1    0    0    0  501 -0.00000000000E+00  0.00000000000E+00  0.48933966123E+03  0.48933966123E+03  0.00000000000E+00 0.  1.
          2   -1    0    0  501    0  0.00000000000E+00 -0.00000000000E+00 -0.18001517366E+04  0.18001517366E+04  0.00000000000E+00 0. -1.
         24    2    1    2    0    0 -0.69435563357E+03 -0.33781793044E+02 -0.73347637753E+03  0.10136901182E+04  0.79429867414E+02 0.  0.
        254    2    1    2    0    0  0.69435563357E+03  0.33781793044E+02 -0.57733569787E+03  0.12758012797E+04  0.90060060062E+03 0.  0.
         23    2    4    4    0    0  0.21269016132E+03  0.16919032784E+03  0.19711592032E+03  0.34811766643E+03  0.92025821817E+02 0.  0.
         23    2    4    4    0    0  0.48166547225E+03 -0.13540853480E+03 -0.77445161819E+03  0.92768361327E+03  0.10239374473E+03 0.  0.
          2    1    3    3  502    0 -0.62073467842E+03 -0.25793243243E+02 -0.68703317027E+03  0.92627825702E+03  0.00000000000E+00 0. -1.
         -1    1    3    3    0  502 -0.73620955154E+02 -0.79885498007E+01 -0.46443207264E+02  0.87411861133E+02  0.00000000000E+00 0.  1.
         11    1    5    5    0    0  0.17420267365E+03  0.11578948619E+03  0.10271357704E+03  0.23303187663E+03  0.00000000000E+00 0.  1.
        -11    1    5    5    0    0  0.38487487666E+02  0.53400841655E+02  0.94402343283E+02  0.11508578980E+03  0.00000000000E+00 0. -1.
          1    1    6    6  503    0  0.25351494502E+03 -0.26935736534E+02 -0.33760969295E+03  0.42305515720E+03  0.00000000000E+00 0. -1.
         -1    1    6    6    0  503  0.22815052723E+03 -0.10847279827E+03 -0.43684192524E+03  0.50462845608E+03  0.00000000000E+00 0.  1.
<mgrwt>
<rscale>  0 0.18771102E+04</rscale>
<asrwt>0</asrwt>
<pdfrwt beam="1">  1        2 0.27694642E+00 0.18771102E+04</pdfrwt>
<pdfrwt beam="2">  1       -1 0.75283025E-01 0.18771102E+04</pdfrwt>
<totfact> 0.16352198E+01</totfact>
</mgrwt>
</event>
<event>
12    6  0.1395358E-007  0.2374423E+04  0.7818608E-02  0.8449142E-01
          2   -1    0    0  501    0  0.00000000000E+00  0.00000000000E+00  0.24067077982E+04  0.24067077982E+04  0.00000000000E+00 0. -1.
         -1   -1    0    0    0  501 -0.00000000000E+00 -0.00000000000E+00 -0.58564263435E+03  0.58564263435E+03  0.00000000000E+00 0.  1.
         24    2    1    2    0    0  0.79292028519E+03 -0.63052431133E+03  0.71387494819E+03  0.12419000037E+04  0.80091770189E+02 0.  0.
        254    2    1    2    0    0 -0.79292028519E+03  0.63052431133E+03  0.11071902157E+04  0.17504504289E+04  0.90106772469E+03 0.  0.
         23    2    4    4    0    0 -0.79002229419E+03  0.62835337167E+03  0.48841509674E+03  0.11250974384E+04  0.91278442502E+02 0.  0.
         23    2    4    4    0    0 -0.28979910023E+01  0.21709396566E+01  0.61877511895E+03  0.62535299054E+03  0.90391391297E+02 0.  0.
          4    1    3    3  502    0  0.14039938332E+03 -0.74582700367E+02  0.11098511708E+03  0.19388724105E+03  0.00000000000E+00 0. -1.
         -3    1    3    3    0  502  0.65252090188E+03 -0.55594161096E+03  0.60288983111E+03  0.10480127626E+04  0.00000000000E+00 0.  1.
         11    1    5    5    0    0 -0.41139171474E+03  0.28212908537E+03  0.20865267052E+03  0.54071794929E+03  0.00000000000E+00 0. -1.
        -11    1    5    5    0    0 -0.37863057945E+03  0.34622428630E+03  0.27976242622E+03  0.58437948907E+03  0.00000000000E+00 0.  1.
          3    1    6    6  503    0 -0.44993145437E+02  0.11332847725E+02  0.36659054239E+03  0.36951514494E+03  0.00000000000E+00 0. -1.
         -3    1    6    6    0  503  0.42095154435E+02 -0.91619080684E+01  0.25218457656E+03  0.25583784560E+03  0.00000000000E+00 0.  1.
<mgrwt>
<rscale>  0 0.23744226E+04</rscale>
<asrwt>0</asrwt>
<pdfrwt beam="1">  1        2 0.37026273E+00 0.23744226E+04</pdfrwt>
<pdfrwt beam="2">  1       -1 0.90098868E-01 0.23744226E+04</pdfrwt>
<totfact> 0.48671456E+00</totfact>
</mgrwt>
</event>
<event>
12    6  0.1395358E-007  0.2789335E+04  0.7818608E-02  0.8306587E-01
          2   -1    0    0  501    0  0.00000000000E+00  0.00000000000E+00  0.14700075657E+04  0.14700075657E+04  0.00000000000E+00 0. -1.
         -1   -1    0    0    0  501 -0.00000000000E+00 -0.00000000000E+00 -0.13231885436E+04  0.13231885436E+04  0.00000000000E+00 0.  1.
         24    2    1    2    0    0  0.70394713986E+03 -0.21419794678E+03  0.10755509207E+04  0.13072977249E+04  0.10390006003E+03 0.  0.
        254    2    1    2    0    0 -0.70394713986E+03  0.21419794678E+03 -0.92873189860E+03  0.14858983843E+04  0.89662072964E+03 0.  0.
         23    2    4    4    0    0 -0.84720600310E+03  0.36550004452E+03 -0.79875220035E+03  0.12237773687E+04  0.90981735868E+02 0.  0.
         23    2    4    4    0    0  0.14325886324E+03 -0.15130209774E+03 -0.12997969825E+03  0.26212101562E+03  0.91636664027E+02 0.  0.
          2    1    3    3  502    0  0.49256290714E+03 -0.13613790337E+03  0.82377359894E+03  0.96940945350E+03  0.00000000000E+00 0. -1.
         -1    1    3    3    0  502  0.21138423272E+03 -0.78060043413E+02  0.25177732177E+03  0.33788827144E+03  0.00000000000E+00 0.  1.
         11    1    5    5    0    0 -0.79984014878E+03  0.34986534467E+03 -0.72531819426E+03  0.11350050687E+04  0.00000000000E+00 0. -1.
        -11    1    5    5    0    0 -0.47365854321E+02  0.15634699853E+02 -0.73434006084E+02  0.88772299985E+02  0.00000000000E+00 0.  1.
          2    1    6    6  503    0  0.14676205662E+03 -0.15218298374E+03 -0.13858145059E+03  0.25279157473E+03  0.00000000000E+00 0. -1.
         -2    1    6    6    0  503 -0.35031933820E+01  0.88088599711E+00  0.86017523433E+01  0.93294408936E+01  0.00000000000E+00 0.  1.
<mgrwt>
<rscale>  0 0.27893348E+04</rscale>
<asrwt>0</asrwt>
<pdfrwt beam="1">  1        2 0.22615501E+00 0.27893348E+04</pdfrwt>
<pdfrwt beam="2">  1       -1 0.20356747E+00 0.27893348E+04</pdfrwt>
<totfact> 0.18622003E+00</totfact>
</mgrwt>
</event>
<event>
12    6  0.1395358E-007  0.1869054E+04  0.7818608E-02  0.8670415E-01
          2   -1    0    0  501    0  0.00000000000E+00  0.00000000000E+00  0.25229975487E+04  0.25229975487E+04  0.00000000000E+00 0. -1.
         -1   -1    0    0    0  501 -0.00000000000E+00 -0.00000000000E+00 -0.34615199267E+03  0.34615199267E+03  0.00000000000E+00 0.  1.
         24    2    1    2    0    0  0.90256245536E+02  0.41009197911E+03 -0.49688019679E+02  0.43042655535E+03  0.80476698849E+02 0.  0.
        254    2    1    2    0    0 -0.90256245536E+02 -0.41009197911E+03  0.22265335757E+04  0.24387229860E+04  0.90199579689E+03 0.  0.
         23    2    4    4    0    0  0.24632560606E+03 -0.53341697368E+02  0.16685490346E+04  0.16899377691E+04  0.91170947838E+02 0.  0.
         23    2    4    4    0    0 -0.33658185159E+03 -0.35675028174E+03  0.55798454114E+03  0.74878521694E+03  0.93672016141E+02 0.  0.
          4    1    3    3  502    0  0.41337899029E+02  0.25640244088E+03  0.60394106583E+01  0.25978357928E+03  0.00000000000E+00 0. -1.
         -3    1    3    3    0  502  0.48918346507E+02  0.15368953823E+03 -0.55727430338E+02  0.17064297606E+03  0.00000000000E+00 0.  1.
         11    1    5    5    0    0  0.25121893436E+03 -0.54293699755E+02  0.16617401339E+04  0.16814990430E+04  0.00000000000E+00 0. -1.
        -11    1    5    5    0    0 -0.48933283042E+01  0.95200238759E+00  0.68089006594E+01  0.84387261259E+01  0.00000000000E+00 0.  1.
          1    1    6    6  503    0 -0.28002995191E+03 -0.33622423753E+03  0.46954246623E+03  0.64182056641E+03  0.00000000000E+00 0. -1.
         -1    1    6    6    0  503 -0.56551899684E+02 -0.20526044212E+02  0.88442074909E+02  0.10696465053E+03  0.00000000000E+00 0.  1.
<mgrwt>
<rscale>  0 0.18690539E+04</rscale>
<asrwt>0</asrwt>
<pdfrwt beam="1">  1        2 0.38815346E+00 0.18690539E+04</pdfrwt>
<pdfrwt beam="2">  1       -1 0.53254154E-01 0.18690539E+04</pdfrwt>
<totfact> 0.12845847E+01</totfact>
</mgrwt>
</event>
<event>
12    6  0.1395358E-007  0.1733502E+04  0.7818608E-02  0.8742485E-01
         -1   -1    0    0    0  501 -0.00000000000E+00  0.00000000000E+00  0.29351264609E+03  0.29351264609E+03  0.00000000000E+00 0.  1.
          2   -1    0    0  501    0  0.00000000000E+00 -0.00000000000E+00 -0.25595383144E+04  0.25595383144E+04  0.00000000000E+00 0. -1.
         24    2    1    2    0    0  0.13682377452E+03  0.59970754210E+03 -0.59627594291E+03  0.86017424149E+03  0.77361775488E+02 0.  0.
        254    2    1    2    0    0 -0.13682377452E+03 -0.59970754210E+03 -0.16697497254E+04  0.19928767190E+04  0.89728679378E+03 0.  0.
         23    2    4    4    0    0 -0.50729085873E+03 -0.36561040775E+03 -0.85374673655E+03  0.10621903229E+04  0.91377274984E+02 0.  0.
         23    2    4    4    0    0  0.37046708421E+03 -0.23409713435E+03 -0.81600298883E+03  0.93068639602E+03  0.90933828566E+02 0.  0.
          2    1    3    3  502    0  0.13958384846E+02  0.18461710202E+03 -0.21042671424E+03  0.28028148875E+03  0.00000000000E+00 0. -1.
         -1    1    3    3    0  502  0.12286538968E+03  0.41509044008E+03 -0.38584922866E+03  0.57989275274E+03  0.00000000000E+00 0.  1.
         11    1    5    5    0    0 -0.25091032778E+03 -0.23283478114E+03 -0.49175585742E+03  0.59915928701E+03  0.00000000000E+00 0.  1.
        -11    1    5    5    0    0 -0.25638053095E+03 -0.13277562661E+03 -0.36199087912E+03  0.46303103594E+03  0.00000000000E+00 0. -1.
          1    1    6    6  503    0  0.34781809467E+03 -0.20394329338E+03 -0.78236985513E+03  0.88015503413E+03  0.00000000000E+00 0. -1.
         -1    1    6    6    0  503  0.22648989546E+02 -0.30153840965E+02 -0.33633133694E+02  0.50531361890E+02  0.00000000000E+00 0.  1.
<mgrwt>
<rscale>  0 0.17335015E+04</rscale>
<asrwt>0</asrwt>
<pdfrwt beam="1">  1        2 0.39377512E+00 0.17335015E+04</pdfrwt>
<pdfrwt beam="2">  1       -1 0.45155793E-01 0.17335015E+04</pdfrwt>
<totfact> 0.16929811E+01</totfact>
</mgrwt>
</event>
<event>
12    6  0.1395358E-007  0.1905871E+04  0.7818608E-02  0.8651940E-01
         -1   -1    0    0    0  501 -0.00000000000E+00  0.00000000000E+00  0.42432444541E+03  0.42432444541E+03  0.00000000000E+00 0.  1.
          2   -1    0    0  501    0  0.00000000000E+00 -0.00000000000E+00 -0.21400743866E+04  0.21400743866E+04  0.00000000000E+00 0. -1.
         24    2    1    2    0    0 -0.53870912199E+03 -0.30080238009E+03 -0.12387268417E+03  0.63443984629E+03  0.80497743365E+02 0.  0.
        254    2    1    2    0    0  0.53870912199E+03  0.30080238009E+03 -0.15918772570E+04  0.19299589857E+04  0.89998827502E+03 0.  0.
         23    2    4    4    0    0  0.16312398861E+03 -0.20924830528E+03 -0.89104369502E+02  0.29627610942E+03  0.97188761833E+02 0.  0.
         23    2    4    4    0    0  0.37558513338E+03  0.51005068537E+03 -0.15027728875E+04  0.16336828763E+04  0.96837465900E+02 0.  0.
          2    1    3    3  502    0 -0.11420219760E+03 -0.10196342288E+03 -0.21172717755E+02  0.15455408606E+03  0.00000000000E+00 0. -1.
         -1    1    3    3    0  502 -0.42450692439E+03 -0.19883895721E+03 -0.10269996642E+03  0.47988576022E+03  0.00000000000E+00 0.  1.
         11    1    5    5    0    0  0.17163848318E+03 -0.16901312655E+03 -0.82516612581E+02  0.25462560202E+03  0.00000000000E+00 0. -1.
        -11    1    5    5    0    0 -0.85144945691E+01 -0.40235178730E+02 -0.65877569208E+01  0.41650507397E+02  0.00000000000E+00 0.  1.
          1    1    6    6  503    0  0.13444448707E+03  0.25812690165E+03 -0.72932219479E+03  0.78524880214E+03  0.00000000000E+00 0. -1.
         -1    1    6    6    0  503  0.24114064632E+03  0.25192378372E+03 -0.77345069272E+03  0.84843407415E+03  0.00000000000E+00 0.  1.
<mgrwt>
<rscale>  0 0.19058708E+04</rscale>
<asrwt>0</asrwt>
<pdfrwt beam="1">  1        2 0.32924222E+00 0.19058708E+04</pdfrwt>
<pdfrwt beam="2">  1       -1 0.65280682E-01 0.19058708E+04</pdfrwt>
<totfact> 0.14149664E+01</totfact>
</mgrwt>
</event>
<event>
12    6  0.1395358E-007  0.1963288E+04  0.7818608E-02  0.8623980E-01
         -1   -1    0    0    0  501 -0.00000000000E+00  0.00000000000E+00  0.24122677470E+03  0.24122677470E+03  0.00000000000E+00 0.  1.
          2   -1    0    0  501    0  0.00000000000E+00 -0.00000000000E+00 -0.39946852601E+04  0.39946852601E+04  0.00000000000E+00 0. -1.
         24    2    1    2    0    0 -0.14849950142E+03  0.57659224273E+03 -0.41965841816E+03  0.73225645915E+03  0.74670059111E+02 0.  0.
        254    2    1    2    0    0  0.14849950142E+03 -0.57659224273E+03 -0.33338000672E+04  0.35036555757E+04  0.89825875347E+03 0.  0.
         23    2    4    4    0    0  0.33955344884E+03 -0.57876122205E+02 -0.49226866870E+03  0.60748585062E+03  0.89802151330E+02 0.  0.
         23    2    4    4    0    0 -0.19105394742E+03 -0.51871612053E+03 -0.28415313985E+04  0.28961697250E+04  0.89052584469E+02 0.  0.
          4    1    3    3  502    0 -0.92479585055E+02  0.28797304073E+03 -0.25285328797E+03  0.39422801914E+03  0.00000000000E+00 0. -1.
         -1    1    3    3    0  502 -0.56019916365E+02  0.28861920201E+03 -0.16680513019E+03  0.33802844001E+03  0.00000000000E+00 0.  1.
         11    1    5    5    0    0  0.14749916948E+03 -0.40082106161E+02 -0.14738306920E+03  0.21233075453E+03  0.00000000000E+00 0. -1.
        -11    1    5    5    0    0  0.19205427936E+03 -0.17794016045E+02 -0.34488559950E+03  0.39515509610E+03  0.00000000000E+00 0.  1.
          3    1    6    6  503    0 -0.11432918269E+03 -0.38493267830E+03 -0.22013066215E+04  0.22376315986E+04  0.00000000000E+00 0. -1.
         -3    1    6    6    0  503 -0.76724764723E+02 -0.13378344223E+03 -0.64022477699E+03  0.65853812646E+03  0.00000000000E+00 0.  1.
<mgrwt>
<rscale>  0 0.19632881E+04</rscale>
<asrwt>0</asrwt>
<pdfrwt beam="1">  1        2 0.61456699E+00 0.19632881E+04</pdfrwt>
<pdfrwt beam="2">  1       -1 0.37111810E-01 0.19632881E+04</pdfrwt>
<totfact> 0.25874439E+00</totfact>
</mgrwt>
</event>
<event>
12    6  0.1395358E-007  0.1667383E+04  0.7818608E-02  0.8780189E-01
          2   -1    0    0  501    0  0.00000000000E+00  0.00000000000E+00  0.10987763155E+04  0.10987763155E+04  0.00000000000E+00 0. -1.
         -1   -1    0    0    0  501 -0.00000000000E+00 -0.00000000000E+00 -0.63255924504E+03  0.63255924504E+03  0.00000000000E+00 0.  1.
         24    2    1    2    0    0 -0.42392602626E+03  0.13176454862E+03  0.56508056033E+03  0.72306153727E+03  0.80167169078E+02 0.  0.
        254    2    1    2    0    0  0.42392602626E+03 -0.13176454862E+03 -0.98863489889E+02  0.10082740233E+04  0.89987073757E+03 0.  0.
         23    2    4    4    0    0  0.53485563436E+03 -0.25667543537E+03  0.21793864228E+03  0.63839737731E+03  0.90006282205E+02 0.  0.
         23    2    4    4    0    0 -0.11092960809E+03  0.12491088675E+03 -0.31680213217E+03  0.36987664595E+03  0.92396075066E+02 0.  0.
          4    1    3    3  502    0 -0.35570022349E+02 -0.90178921011E+01  0.62788895028E+02  0.72725471513E+02  0.00000000000E+00 0. -1.
         -3    1    3    3    0  502 -0.38835600391E+03  0.14078244072E+03  0.50229166530E+03  0.65033606576E+03  0.00000000000E+00 0.  1.
         11    1    5    5    0    0  0.83288464114E+01  0.19006237212E+01 -0.60772558334E+01  0.10484039848E+02  0.00000000000E+00 0. -1.
        -11    1    5    5    0    0  0.52652678795E+03 -0.25857605909E+03  0.22401589812E+03  0.62791333746E+03  0.00000000000E+00 0.  1.
          1    1    6    6  503    0 -0.16969459899E+02 -0.10925265066E+02 -0.70423282896E+02  0.73258192442E+02  0.00000000000E+00 0. -1.
         -1    1    6    6    0  503 -0.93960148196E+02  0.13583615182E+03 -0.24637884928E+03  0.29661845350E+03  0.00000000000E+00 0.  1.
<mgrwt>
<rscale>  0 0.16673825E+04</rscale>
<asrwt>0</asrwt>
<pdfrwt beam="1">  1        2 0.16904251E+00 0.16673825E+04</pdfrwt>
<pdfrwt beam="2">  1       -1 0.97316807E-01 0.16673825E+04</pdfrwt>
<totfact> 0.24084330E+01</totfact>
</mgrwt>
</event>
<event>
12    6  0.1395358E-007  0.3838200E+04  0.7818608E-02  0.8038007E-01
          2   -1    0    0  501    0  0.00000000000E+00  0.00000000000E+00  0.23655533363E+04  0.23655533363E+04  0.00000000000E+00 0. -1.
         -1   -1    0    0    0  501 -0.00000000000E+00 -0.00000000000E+00 -0.15569064247E+04  0.15569064247E+04  0.00000000000E+00 0.  1.
         24    2    1    2    0    0  0.22964756991E+02  0.14985787948E+04 -0.66009486822E+03  0.16396307877E+04  0.79988129119E+02 0.  0.
        254    2    1    2    0    0 -0.22964756991E+02 -0.14985787948E+04  0.14687417798E+04  0.22828289732E+04  0.89879915481E+03 0.  0.
         23    2    4    4    0    0 -0.16318865749E+03 -0.38650993225E+03 -0.41685137501E+01  0.42951805242E+03  0.91912540945E+02 0.  0.
         23    2    4    4    0    0  0.14022390050E+03 -0.11120688625E+04  0.14729102936E+04  0.18533109208E+04  0.94534325834E+02 0.  0.
          2    1    3    3  502    0 -0.27967340832E+02  0.57686359158E+03 -0.26788549710E+03  0.63664465364E+03  0.00000000000E+00 0. -1.
         -1    1    3    3    0  502  0.50932097823E+02  0.92171520321E+03 -0.39220937112E+03  0.10029861341E+04  0.00000000000E+00 0.  1.
         11    1    5    5    0    0 -0.10407631228E+03 -0.13372270946E+03  0.78559226592E+01  0.16963300777E+03  0.00000000000E+00 0. -1.
        -11    1    5    5    0    0 -0.59112345214E+02 -0.25278722279E+03 -0.12024436409E+02  0.25988504465E+03  0.00000000000E+00 0.  1.
          2    1    6    6  503    0  0.39340174438E+01 -0.10614573638E+03  0.18642027319E+03  0.21455747971E+03  0.00000000000E+00 0.  1.
         -2    1    6    6    0  503  0.13628988306E+03 -0.10059231262E+04  0.12864900204E+04  0.16387534410E+04  0.00000000000E+00 0. -1.
<mgrwt>
<rscale>  0 0.38382002E+04</rscale>
<asrwt>0</asrwt>
<pdfrwt beam="1">  1        2 0.36393128E+00 0.38382002E+04</pdfrwt>
<pdfrwt beam="2">  1       -1 0.23952407E+00 0.38382002E+04</pdfrwt>
<totfact> 0.30869445E-01</totfact>
</mgrwt>
</event>
<event>
12    6  0.1395358E-007  0.2027858E+04  0.7818608E-02  0.8593706E-01
          2   -1    0    0  501    0  0.00000000000E+00  0.00000000000E+00  0.19266664497E+04  0.19266664497E+04  0.00000000000E+00 0. -1.
         -1   -1    0    0    0  501 -0.00000000000E+00 -0.00000000000E+00 -0.53359122373E+03  0.53359122373E+03  0.00000000000E+00 0.  1.
         24    2    1    2    0    0  0.23709410267E+03  0.75604717761E+03  0.77353589156E+03  0.11101209344E+04  0.78675061229E+02 0.  0.
        254    2    1    2    0    0 -0.23709410267E+03 -0.75604717761E+03  0.61953933443E+03  0.13501367390E+04  0.90067712240E+03 0.  0.
         23    2    4    4    0    0 -0.30912912864E+03 -0.27724766143E+03  0.73018290809E+03  0.84492308014E+03  0.91108990499E+02 0.  0.
         23    2    4    4    0    0  0.72035025968E+02 -0.47879951617E+03 -0.11064357367E+03  0.50521365886E+03  0.92524694260E+02 0.  0.
          4    1    3    3  502    0  0.17642132980E+03  0.46389692259E+03  0.44916138514E+03  0.66938090076E+03  0.00000000000E+00 0. -1.
         -3    1    3    3    0  502  0.60672772865E+02  0.29215025502E+03  0.32437450642E+03  0.44074003368E+03  0.00000000000E+00 0.  1.
         11    1    5    5    0    0 -0.25210452681E+03 -0.26386999488E+03  0.60178668955E+03  0.70379775955E+03  0.00000000000E+00 0. -1.
        -11    1    5    5    0    0 -0.57024601832E+02 -0.13377666559E+02  0.12839621854E+03  0.14112532059E+03  0.00000000000E+00 0.  1.
          2    1    6    6  503    0  0.94452760878E+02 -0.38274710548E+03 -0.92268647536E+02  0.40488291407E+03  0.00000000000E+00 0. -1.
         -2    1    6    6    0  503 -0.22417734909E+02 -0.96052410696E+02 -0.18374926130E+02  0.10033074479E+03  0.00000000000E+00 0.  1.
<mgrwt>
<rscale>  0 0.20278583E+04</rscale>
<asrwt>0</asrwt>
<pdfrwt beam="1">  1        2 0.29641022E+00 0.20278583E+04</pdfrwt>
<pdfrwt beam="2">  1       -1 0.82090958E-01 0.20278583E+04</pdfrwt>
<totfact> 0.11432534E+01</totfact>
</mgrwt>
</event>
<event>
12    6  0.1395358E-007  0.2425275E+04  0.7818608E-02  0.8430101E-01
          2   -1    0    0  501    0  0.00000000000E+00  0.00000000000E+00  0.24054352654E+04  0.24054352654E+04  0.00000000000E+00 0. -1.
         -1   -1    0    0    0  501 -0.00000000000E+00 -0.00000000000E+00 -0.61131960754E+03  0.61131960754E+03  0.00000000000E+00 0.  1.
         24    2    1    2    0    0  0.96296263393E+03  0.36042953516E+03  0.55428349467E+03  0.11707610026E+04  0.79023089118E+02 0.  0.
        254    2    1    2    0    0 -0.96296263393E+03 -0.36042953516E+03  0.12398321632E+04  0.18459938704E+04  0.90183318429E+03 0.  0.
         23    2    4    4    0    0 -0.19385204322E+02 -0.27586311696E+03  0.11509103549E+02  0.29210762261E+03  0.93371078385E+02 0.  0.
         23    2    4    4    0    0 -0.94357742961E+03 -0.84566418199E+02  0.12283230597E+04  0.15538862478E+04  0.91077369663E+02 0.  0.
          4    1    3    3  502    0  0.44425431702E+03  0.17064753443E+03  0.30115229079E+03  0.56318307987E+03  0.00000000000E+00 0. -1.
         -3    1    3    3    0  502  0.51870831691E+03  0.18978200073E+03  0.25313120388E+03  0.60757792274E+03  0.00000000000E+00 0.  1.
         11    1    5    5    0    0  0.35932103667E+02 -0.73163493836E+02  0.87305191514E+01  0.81977038669E+02  0.00000000000E+00 0.  1.
        -11    1    5    5    0    0 -0.55317307989E+02 -0.20269962312E+03  0.27785843979E+01  0.21013058394E+03  0.00000000000E+00 0. -1.
          1    1    6    6  503    0 -0.46703584290E+03 -0.20902329321E+02  0.67170208732E+03  0.81837832329E+03  0.00000000000E+00 0. -1.
         -1    1    6    6    0  503 -0.47654158671E+03 -0.63664088878E+02  0.55662097236E+03  0.73550792446E+03  0.00000000000E+00 0.  1.
<mgrwt>
<rscale>  0 0.24252750E+04</rscale>
<asrwt>0</asrwt>
<pdfrwt beam="1">  1        2 0.37006696E+00 0.24252750E+04</pdfrwt>
<pdfrwt beam="2">  1       -1 0.94049172E-01 0.24252750E+04</pdfrwt>
<totfact> 0.44122273E+00</totfact>
</mgrwt>
</event>
<event>
12    6  0.1395358E-007  0.2969151E+04  0.7818608E-02  0.8252595E-01
          2   -1    0    0  501    0  0.00000000000E+00  0.00000000000E+00  0.15496891480E+04  0.15496891480E+04  0.00000000000E+00 0. -1.
         -1   -1    0    0    0  501 -0.00000000000E+00 -0.00000000000E+00 -0.14221981142E+04  0.14221981142E+04  0.00000000000E+00 0.  1.
         24    2    1    2    0    0  0.73326480467E+03  0.10261679800E+03  0.11837583225E+04  0.13985915494E+04  0.81037490840E+02 0.  0.
        254    2    1    2    0    0 -0.73326480467E+03 -0.10261679800E+03 -0.10562672886E+04  0.15732957128E+04  0.90075042830E+03 0.  0.
         23    2    4    4    0    0  0.73843920352E+02 -0.25152465636E+03 -0.51627275667E+03  0.58680196233E+03  0.95296413315E+02 0.  0.
         23    2    4    4    0    0 -0.80710872502E+03  0.14890785835E+03 -0.53999453192E+03  0.98649375050E+03  0.89318424683E+02 0.  0.
          2    1    3    3  502    0  0.69485971107E+03  0.87787484110E+02  0.11439311813E+04  0.13413110035E+04  0.00000000000E+00 0. -1.
         -1    1    3    3    0  502  0.38405093601E+02  0.14829313894E+02  0.39827141143E+02  0.57280545883E+02  0.00000000000E+00 0.  1.
         11    1    5    5    0    0  0.58866839904E+02 -0.51133428983E+02 -0.14488783447E+03  0.16453697754E+03  0.00000000000E+00 0.  1.
        -11    1    5    5    0    0  0.14977080447E+02 -0.20039122738E+03 -0.37138492220E+03  0.42226498479E+03  0.00000000000E+00 0. -1.
          4    1    6    6  503    0 -0.69424199211E+03  0.11939076611E+03 -0.42514271350E+03  0.82278334055E+03  0.00000000000E+00 0. -1.
         -4    1    6    6    0  503 -0.11286673291E+03  0.29517092247E+02 -0.11485181842E+03  0.16371040995E+03  0.00000000000E+00 0.  1.
<mgrwt>
<rscale>  0 0.29691514E+04</rscale>
<asrwt>0</asrwt>
<pdfrwt beam="1">  1        2 0.23841372E+00 0.29691514E+04</pdfrwt>
<pdfrwt beam="2">  1       -1 0.21879971E+00 0.29691514E+04</pdfrwt>
<totfact> 0.13036815E+00</totfact>
</mgrwt>
</event>
<event>
12    6  0.1395358E-007  0.1753142E+04  0.7818608E-02  0.8731622E-01
         -1   -1    0    0    0  501 -0.00000000000E+00  0.00000000000E+00  0.41862317007E+03  0.41862317007E+03  0.00000000000E+00 0.  1.
          2   -1    0    0  501    0  0.00000000000E+00 -0.00000000000E+00 -0.18354863259E+04  0.18354863259E+04  0.00000000000E+00 0. -1.
         24    2    1    2    0    0 -0.31735970686E+03 -0.20284330344E+03  0.14598014559E+03  0.41167052126E+03  0.79371442478E+02 0.  0.
        254    2    1    2    0    0  0.31735970686E+03  0.20284330344E+03 -0.15628433014E+04  0.18424389747E+04  0.90013310207E+03 0.  0.
         23    2    4    4    0    0  0.23090769279E+03 -0.97737301466E+02 -0.14827044116E+04  0.15065128064E+04  0.91090729230E+02 0.  0.
         23    2    4    4    0    0  0.86452014072E+02  0.30058060490E+03 -0.80138889772E+02  0.33592616828E+03  0.92744261801E+02 0.  0.
          4    1    3    3  502    0 -0.12849836553E+03 -0.68672732080E+02  0.17457895460E+02  0.14673974305E+03  0.00000000000E+00 0. -1.
         -3    1    3    3    0  502 -0.18886134133E+03 -0.13417057136E+03  0.12852225013E+03  0.26493077821E+03  0.00000000000E+00 0.  1.
         11    1    5    5    0    0  0.33257568707E+02  0.43973117278E+01 -0.88042949960E+02  0.94217637756E+02  0.00000000000E+00 0. -1.
        -11    1    5    5    0    0  0.19765012408E+03 -0.10213461319E+03 -0.13946614616E+04  0.14122951686E+04  0.00000000000E+00 0.  1.
          3    1    6    6  503    0 -0.16405115750E+02  0.13701376112E+02 -0.72470191803E+01  0.22569333556E+02  0.00000000000E+00 0. -1.
         -3    1    6    6    0  503  0.10285712982E+03  0.28687922879E+03 -0.72891870592E+02  0.31335683472E+03  0.00000000000E+00 0.  1.
<mgrwt>
<rscale>  0 0.17531424E+04</rscale>
<asrwt>0</asrwt>
<pdfrwt beam="1">  1        2 0.28238251E+00 0.17531424E+04</pdfrwt>
<pdfrwt beam="2">  1       -1 0.64403565E-01 0.17531424E+04</pdfrwt>
<totfact> 0.21757380E+01</totfact>
</mgrwt>
</event>
<event>
12    6  0.1395358E-007  0.2109510E+04  0.7818608E-02  0.8557066E-01
          2   -1    0    0  501    0  0.00000000000E+00  0.00000000000E+00  0.82192823221E+03  0.82192823221E+03  0.00000000000E+00 0. -1.
         -1   -1    0    0    0  501 -0.00000000000E+00 -0.00000000000E+00 -0.13535342274E+04  0.13535342274E+04  0.00000000000E+00 0.  1.
         24    2    1    2    0    0 -0.62100268954E+02  0.33942109377E+03  0.59592352305E+03  0.69322738053E+03  0.79851321184E+02 0.  0.
        254    2    1    2    0    0  0.62100268954E+02 -0.33942109377E+03 -0.11275295182E+04  0.14822350791E+04  0.89812855028E+03 0.  0.
         23    2    4    4    0    0  0.32751237729E+03 -0.52413912009E+03 -0.76361051031E+03  0.98655032328E+03  0.90522673480E+02 0.  0.
         23    2    4    4    0    0 -0.26541210833E+03  0.18471802633E+03 -0.36391900793E+03  0.49568475580E+03  0.93284491189E+02 0.  0.
          2    1    3    3  502    0 -0.57690126807E+02  0.13051634858E+03  0.28320731982E+03  0.31712624296E+03  0.00000000000E+00 0. -1.
         -1    1    3    3    0  502 -0.44101421475E+01  0.20890474519E+03  0.31271620323E+03  0.37610113757E+03  0.00000000000E+00 0.  1.
         11    1    5    5    0    0  0.17602833207E+03 -0.31026540853E+03 -0.50560243988E+03  0.61877655469E+03  0.00000000000E+00 0. -1.
        -11    1    5    5    0    0  0.15148404522E+03 -0.21387371156E+03 -0.25800807043E+03  0.36777376859E+03  0.00000000000E+00 0.  1.
          1    1    6    6  503    0 -0.15702530637E+02 -0.67946817634E+01 -0.39619239839E+01  0.17562289438E+02  0.00000000000E+00 0. -1.
         -1    1    6    6    0  503 -0.24970957770E+03  0.19151270809E+03 -0.35995708395E+03  0.47812246636E+03  0.00000000000E+00 0.  1.
<mgrwt>
<rscale>  0 0.21095099E+04</rscale>
<asrwt>0</asrwt>
<pdfrwt beam="1">  1        2 0.12645050E+00 0.21095099E+04</pdfrwt>
<pdfrwt beam="2">  1       -1 0.20823603E+00 0.21095099E+04</pdfrwt>
<totfact> 0.46124663E+00</totfact>
</mgrwt>
</event>
<event>
12    6  0.1395358E-007  0.1426043E+04  0.7818608E-02  0.8935180E-01
          2   -1    0    0  501    0  0.00000000000E+00  0.00000000000E+00  0.14403111204E+04  0.14403111204E+04  0.00000000000E+00 0. -1.
         -1   -1    0    0    0  501 -0.00000000000E+00 -0.00000000000E+00 -0.35297912540E+03  0.35297912540E+03  0.00000000000E+00 0.  1.
         24    2    1    2    0    0 -0.35675605692E+03  0.90422384334E+02  0.59309783783E+03  0.70253010583E+03  0.79576457714E+02 0.  0.
        254    2    1    2    0    0  0.35675605692E+03 -0.90422384334E+02  0.49423415721E+03  0.10907601400E+04  0.90002177148E+03 0.  0.
         23    2    4    4    0    0 -0.90320819882E+02 -0.35521331926E+03  0.15288261574E+02  0.37799646308E+03  0.91176984344E+02 0.  0.
         23    2    4    4    0    0  0.44707687680E+03  0.26479093492E+03  0.47894589563E+03  0.71276367693E+03  0.93010296294E+02 0.  0.
          4    1    3    3  502    0 -0.25410738631E+03  0.97917854505E+02  0.45553584435E+03  0.53072721383E+03  0.00000000000E+00 0. -1.
         -3    1    3    3    0  502 -0.10264867061E+03 -0.74954701709E+01  0.13756199348E+03  0.17180289200E+03  0.00000000000E+00 0.  1.
         11    1    5    5    0    0 -0.74748935064E+02 -0.23498012210E+03  0.50600732004E+02  0.25172106617E+03  0.00000000000E+00 0. -1.
        -11    1    5    5    0    0 -0.15571884818E+02 -0.12023319716E+03 -0.35312470430E+02  0.12627539691E+03  0.00000000000E+00 0.  1.
          1    1    6    6  503    0  0.13600424586E+03  0.11100384625E+03  0.11481849562E+03  0.20976724175E+03  0.00000000000E+00 0. -1.
         -1    1    6    6    0  503  0.31107263094E+03  0.15378708867E+03  0.36412740001E+03  0.50299643518E+03  0.00000000000E+00 0.  1.
<mgrwt>
<rscale>  0 0.14260431E+04</rscale>
<asrwt>0</asrwt>
<pdfrwt beam="1">  1        2 0.22158632E+00 0.14260431E+04</pdfrwt>
<pdfrwt beam="2">  1       -1 0.54304481E-01 0.14260431E+04</pdfrwt>
<totfact> 0.52025482E+01</totfact>
</mgrwt>
</event>
<event>
12    6  0.1395358E-007  0.2497499E+04  0.7818608E-02  0.8403877E-01
          2   -1    0    0  501    0  0.00000000000E+00  0.00000000000E+00  0.14328359664E+04  0.14328359664E+04  0.00000000000E+00 0. -1.
         -1   -1    0    0    0  501 -0.00000000000E+00 -0.00000000000E+00 -0.10883140537E+04  0.10883140537E+04  0.00000000000E+00 0.  1.
         24    2    1    2    0    0  0.93094749180E+03 -0.53832945624E+03 -0.40508685562E+00  0.10783447795E+04  0.79783854975E+02 0.  0.
        254    2    1    2    0    0 -0.93094749180E+03  0.53832945624E+03  0.34492699955E+03  0.14428052406E+04  0.89791452333E+03 0.  0.
         23    2    4    4    0    0 -0.18021751428E+03  0.38979420246E+03 -0.21622089415E+03  0.48955935209E+03  0.92190083134E+02 0.  0.
         23    2    4    4    0    0 -0.75072997752E+03  0.14853525378E+03  0.56114789370E+03  0.95324588847E+03  0.90180621586E+02 0.  0.
          2    1    3    3  502    0  0.37879724107E+03 -0.23663047298E+03 -0.36416271190E+02  0.44811547105E+03  0.00000000000E+00 0. -1.
         -1    1    3    3    0  502  0.55215025073E+03 -0.30169898326E+03  0.36011184334E+02  0.63022930849E+03  0.00000000000E+00 0.  1.
         11    1    5    5    0    0 -0.18927137103E+03  0.37822244111E+03 -0.20054749920E+03  0.46807602618E+03  0.00000000000E+00 0. -1.
        -11    1    5    5    0    0  0.90538567532E+01  0.11571761352E+02 -0.15673394949E+02  0.21483325909E+02  0.00000000000E+00 0.  1.
          1    1    6    6  503    0 -0.69549143342E+03  0.11852257458E+03  0.53373715437E+03  0.88466450398E+03  0.00000000000E+00 0. -1.
         -1    1    6    6    0  503 -0.55238544102E+02  0.30012679209E+02  0.27410739329E+02  0.68581384488E+02  0.00000000000E+00 0.  1.
<mgrwt>
<rscale>  0 0.24974992E+04</rscale>
<asrwt>0</asrwt>
<pdfrwt beam="1">  1        2 0.22043630E+00 0.24974992E+04</pdfrwt>
<pdfrwt beam="2">  1       -1 0.16743293E+00 0.24974992E+04</pdfrwt>
<totfact> 0.36201460E+00</totfact>
</mgrwt>
</event>
<event>
12    6  0.1395358E-007  0.3555166E+04  0.7818608E-02  0.8100839E-01
         -3   -1    0    0    0  501 -0.00000000000E+00  0.00000000000E+00  0.13146763280E+04  0.13146763280E+04  0.00000000000E+00 0.  1.
          2   -1    0    0  501    0  0.00000000000E+00 -0.00000000000E+00 -0.24034828433E+04  0.24034828433E+04  0.00000000000E+00 0. -1.
         24    2    1    2    0    0  0.86530744626E+03  0.54217417582E+03  0.86257150007E+03  0.13389902189E+04  0.78456357611E+02 0.  0.
        254    2    1    2    0    0 -0.86530744626E+03 -0.54217417582E+03 -0.19513780154E+04  0.23791689524E+04  0.89992162532E+03 0.  0.
         23    2    4    4    0    0 -0.78656596750E+03 -0.71472886226E+03 -0.12317814974E+04  0.16294681145E+04  0.91418330961E+02 0.  0.
         23    2    4    4    0    0 -0.78741478759E+02  0.17255468644E+03 -0.71959651802E+03  0.74970083788E+03  0.90867250929E+02 0.  0.
          2    1    3    3  502    0  0.53339700021E+03  0.31206145047E+03  0.56498604188E+03  0.83731949472E+03  0.00000000000E+00 0. -1.
         -1    1    3    3    0  502  0.33191044604E+03  0.23011272535E+03  0.29758545819E+03  0.50167072417E+03  0.00000000000E+00 0.  1.
         11    1    5    5    0    0 -0.67774382135E+03 -0.57282938327E+03 -0.10062288980E+04  0.13416284079E+04  0.00000000000E+00 0.  1.
        -11    1    5    5    0    0 -0.10882214615E+03 -0.14189947899E+03 -0.22555259939E+03  0.28783970665E+03  0.00000000000E+00 0. -1.
          1    1    6    6  503    0 -0.47634949916E+02  0.13275835697E+03 -0.36119178439E+03  0.38775427130E+03  0.00000000000E+00 0. -1.
         -1    1    6    6    0  503 -0.31106528843E+02  0.39796329462E+02 -0.35840473363E+03  0.36194656658E+03  0.00000000000E+00 0.  1.
<mgrwt>
<rscale>  0 0.35551664E+04</rscale>
<asrwt>0</asrwt>
<pdfrwt beam="1">  1        2 0.36976659E+00 0.35551664E+04</pdfrwt>
<pdfrwt beam="2">  1       -3 0.20225790E+00 0.35551664E+04</pdfrwt>
<totfact> 0.29040544E-01</totfact>
</mgrwt>
</event>
<event>
12    6  0.1395358E-007  0.1920441E+04  0.7818608E-02  0.8644748E-01
         -1   -1    0    0    0  501 -0.00000000000E+00  0.00000000000E+00  0.28594589284E+03  0.28594589284E+03  0.00000000000E+00 0.  1.
          2   -1    0    0  501    0  0.00000000000E+00 -0.00000000000E+00 -0.32244683999E+04  0.32244683999E+04  0.00000000000E+00 0. -1.
         24    2    1    2    0    0  0.71250490118E+03  0.15729660800E+03 -0.13993635342E+04  0.15801891019E+04  0.79836331295E+02 0.  0.
        254    2    1    2    0    0 -0.71250490118E+03 -0.15729660800E+03 -0.15391589728E+04  0.19302251908E+04  0.90793914252E+03 0.  0.
         23    2    4    4    0    0 -0.58848398867E+03 -0.50633677838E+03 -0.98118767221E+03  0.12542528656E+04  0.87924198088E+02 0.  0.
         23    2    4    4    0    0 -0.12402091250E+03  0.34904017038E+03 -0.55797130060E+03  0.67597232523E+03  0.91631789848E+02 0.  0.
          4    1    3    3  502    0  0.18393293171E+03  0.51632641749E+02 -0.29774031069E+03  0.35376057676E+03  0.00000000000E+00 0. -1.
         -3    1    3    3    0  502  0.52857196947E+03  0.10566396625E+03 -0.11016232235E+04  0.12264285252E+04  0.00000000000E+00 0.  1.
         11    1    5    5    0    0 -0.38390554679E+03 -0.36746415686E+03 -0.71612183176E+03  0.89176446069E+03  0.00000000000E+00 0.  1.
        -11    1    5    5    0    0 -0.20457844188E+03 -0.13887262152E+03 -0.26506584046E+03  0.36248840487E+03  0.00000000000E+00 0. -1.
          1    1    6    6  503    0 -0.29338715475E+02  0.12344716550E+03 -0.12187826633E+03  0.17593826956E+03  0.00000000000E+00 0.  1.
         -1    1    6    6    0  503 -0.94682197029E+02  0.22559300489E+03 -0.43609303427E+03  0.50003405567E+03  0.00000000000E+00 0. -1.
<mgrwt>
<rscale>  0 0.19204411E+04</rscale>
<asrwt>0</asrwt>
<pdfrwt beam="1">  1        2 0.49607203E+00 0.19204411E+04</pdfrwt>
<pdfrwt beam="2">  1       -1 0.43991679E-01 0.19204411E+04</pdfrwt>
<totfact> 0.68259186E+00</totfact>
</mgrwt>
</event>
<event>
12    6  0.1395358E-007  0.1620951E+04  0.7818608E-02  0.8807779E-01
         -1   -1    0    0    0  501 -0.00000000000E+00  0.00000000000E+00  0.62926824051E+03  0.62926824051E+03  0.00000000000E+00 0.  1.
          2   -1    0    0  501    0  0.00000000000E+00 -0.00000000000E+00 -0.10438642253E+04  0.10438642253E+04  0.00000000000E+00 0. -1.
         24    2    1    2    0    0 -0.41523002520E+03 -0.30684232178E+03 -0.35876455351E+03  0.63357333755E+03  0.78326144659E+02 0.  0.
        254    2    1    2    0    0  0.41523002520E+03  0.30684232178E+03 -0.55831431234E+02  0.10395591282E+04  0.90055418942E+03 0.  0.
         23    2    4    4    0    0  0.21316314900E+03  0.13373255192E+02 -0.44642112743E+03  0.50322679536E+03  0.91257944888E+02 0.  0.
         23    2    4    4    0    0  0.20206687620E+03  0.29346906659E+03  0.39058969620E+03  0.53633233285E+03  0.90205016378E+02 0.  0.
          4    1    3    3  502    0 -0.25409773634E+03 -0.15645507822E+03 -0.24168028308E+03  0.38399636762E+03  0.00000000000E+00 0. -1.
         -3    1    3    3    0  502 -0.16113228886E+03 -0.15038724356E+03 -0.11708427043E+03  0.24957696993E+03  0.00000000000E+00 0.  1.
         11    1    5    5    0    0  0.17135468411E+03 -0.11139635537E+02 -0.40338161007E+03  0.43840990247E+03  0.00000000000E+00 0. -1.
        -11    1    5    5    0    0  0.41808464896E+02  0.24512890729E+02 -0.43039517364E+02  0.64816892889E+02  0.00000000000E+00 0.  1.
          1    1    6    6  503    0  0.17459312901E+03  0.22047829086E+03  0.34812266009E+03  0.44752969053E+03  0.00000000000E+00 0. -1.
         -1    1    6    6    0  503  0.27473747184E+02  0.72990775738E+02  0.42467036109E+02  0.88802642320E+02  0.00000000000E+00 0.  1.
<mgrwt>
<rscale>  0 0.16209511E+04</rscale>
<asrwt>0</asrwt>
<pdfrwt beam="1">  1        2 0.16059450E+00 0.16209511E+04</pdfrwt>
<pdfrwt beam="2">  1       -1 0.96810499E-01 0.16209511E+04</pdfrwt>
<totfact> 0.26473496E+01</totfact>
</mgrwt>
</event>
<event>
12    6  0.1395358E-007  0.1727538E+04  0.7818608E-02  0.8745813E-01
         -1   -1    0    0    0  501 -0.00000000000E+00  0.00000000000E+00  0.20573701419E+03  0.20573701419E+03  0.00000000000E+00 0.  1.
          2   -1    0    0  501    0  0.00000000000E+00 -0.00000000000E+00 -0.36264571440E+04  0.36264571440E+04  0.00000000000E+00 0. -1.
         24    2    1    2    0    0  0.20043311327E+03 -0.10844526126E+03  0.43860619441E+02  0.24483442687E+03  0.78014966889E+02 0.  0.
        254    2    1    2    0    0 -0.20043311327E+03  0.10844526126E+03 -0.34645807492E+04  0.35873597313E+04  0.90216199555E+03 0.  0.
         23    2    4    4    0    0 -0.10276934885E+03 -0.80501216977E+02 -0.60539348234E+02  0.17545405260E+03  0.10038489374E+03 0.  0.
         23    2    4    4    0    0 -0.97663764421E+02  0.18894647823E+03 -0.34040414010E+04  0.34119056787E+04  0.91452272210E+02 0.  0.
          4    1    3    3  502    0  0.33302425505E+00 -0.23254036973E+02  0.18138998483E+01  0.23327052393E+02  0.00000000000E+00 0. -1.
         -3    1    3    3    0  502  0.20010008902E+03 -0.85191224285E+02  0.42046719592E+02  0.22150737448E+03  0.00000000000E+00 0.  1.
         11    1    5    5    0    0  0.12392089738E+02 -0.10388476673E+02 -0.34549245515E+02  0.38146227878E+02  0.00000000000E+00 0.  1.
        -11    1    5    5    0    0 -0.11516143859E+03 -0.70112740304E+02 -0.25990102718E+02  0.13730782472E+03  0.00000000000E+00 0. -1.
          1    1    6    6  503    0 -0.21957019952E+02  0.75881327796E+01 -0.13675653211E+03  0.13871567885E+03  0.00000000000E+00 0.  1.
         -1    1    6    6    0  503 -0.75706744469E+02  0.18135834546E+03 -0.32672848689E+04  0.32731899999E+04  0.00000000000E+00 0. -1.
<mgrwt>
<rscale>  0 0.17275375E+04</rscale>
<asrwt>0</asrwt>
<pdfrwt beam="1">  1        2 0.55791650E+00 0.17275375E+04</pdfrwt>
<pdfrwt beam="2">  1       -1 0.31651847E-01 0.17275375E+04</pdfrwt>
<totfact> 0.67038316E+00</totfact>
</mgrwt>
</event>
<event>
12    6  0.1395358E-007  0.1678552E+04  0.7818608E-02  0.8773692E-01
         -3   -1    0    0    0  501 -0.00000000000E+00  0.00000000000E+00  0.26203199481E+04  0.26203199481E+04  0.00000000000E+00 0.  1.
          4   -1    0    0  501    0  0.00000000000E+00 -0.00000000000E+00 -0.26881609262E+03  0.26881609262E+03  0.00000000000E+00 0. -1.
         24    2    1    2    0    0  0.29223085733E+03  0.36107466829E+03  0.14767993365E+04  0.15502438895E+04  0.80907643632E+02 0.  0.
        254    2    1    2    0    0 -0.29223085733E+03 -0.36107466829E+03  0.87470451904E+03  0.13388921512E+04  0.90097192349E+03 0.  0.
         23    2    4    4    0    0 -0.20844379462E+03 -0.28642574454E+03  0.10495091114E+04  0.11115267233E+04  0.92378346773E+02 0.  0.
         23    2    4    4    0    0 -0.83787062709E+02 -0.74648923745E+02 -0.17480459240E+03  0.22736542792E+03  0.92442731438E+02 0.  0.
          2    1    3    3  502    0  0.60600344888E+02  0.10796901867E+03  0.30274220836E+03  0.32708187892E+03  0.00000000000E+00 0. -1.
         -1    1    3    3    0  502  0.23163051244E+03  0.25310564962E+03  0.11740571281E+04  0.12231620106E+04  0.00000000000E+00 0.  1.
         11    1    5    5    0    0 -0.18017254132E+03 -0.27300695652E+03  0.87306743613E+03  0.93233132039E+03  0.00000000000E+00 0. -1.
        -11    1    5    5    0    0 -0.28271253296E+02 -0.13418788021E+02  0.17644167532E+03  0.17919540291E+03  0.00000000000E+00 0.  1.
          1    1    6    6  503    0 -0.69126100578E+02 -0.83277865487E+02 -0.17960080519E+03  0.20969041439E+03  0.00000000000E+00 0. -1.
         -1    1    6    6    0  503 -0.14660962131E+02  0.86289417424E+01  0.47962127912E+01  0.17675013532E+02  0.00000000000E+00 0.  1.
<mgrwt>
<rscale>  0 0.16785520E+04</rscale>
<asrwt>0</asrwt>
<pdfrwt beam="1">  1        4 0.41356324E-01 0.16785520E+04</pdfrwt>
<pdfrwt beam="2">  1       -3 0.40312613E+00 0.16785520E+04</pdfrwt>
<totfact> 0.12765434E-01</totfact>
</mgrwt>
</event>
<event>
12    6  0.1395358E-007  0.1736376E+04  0.7818608E-02  0.8740886E-01
          2   -1    0    0  501    0  0.00000000000E+00  0.00000000000E+00  0.79372590020E+03  0.79372590020E+03  0.00000000000E+00 0. -1.
         -1   -1    0    0    0  501 -0.00000000000E+00 -0.00000000000E+00 -0.94963560406E+03  0.94963560406E+03  0.00000000000E+00 0.  1.
         24    2    1    2    0    0 -0.42482978922E+03 -0.34474303806E+03  0.25912053011E+03  0.61059778321E+03  0.79737642509E+02 0.  0.
        254    2    1    2    0    0  0.42482978922E+03  0.34474303806E+03 -0.41503023396E+03  0.11327637211E+04  0.90087481957E+03 0.  0.
         23    2    4    4    0    0  0.40015911344E+03 -0.74825218870E+02 -0.54378493412E+03  0.68530581363E+03  0.90641459504E+02 0.  0.
         23    2    4    4    0    0  0.24670675781E+02  0.41956825693E+03  0.12875470016E+03  0.44745790742E+03  0.83633974146E+02 0.  0.
          2    1    3    3  502    0 -0.21034834492E+03 -0.18163913469E+03  0.17453730001E+03  0.32818054567E+03  0.00000000000E+00 0. -1.
         -1    1    3    3    0  502 -0.21448144429E+03 -0.16310390338E+03  0.84583230096E+02  0.28241723753E+03  0.00000000000E+00 0.  1.
         11    1    5    5    0    0  0.29101513542E+03 -0.13863571168E+02 -0.39838644303E+03  0.49355219140E+03  0.00000000000E+00 0. -1.
        -11    1    5    5    0    0  0.10914397802E+03 -0.60961647702E+02 -0.14539849109E+03  0.19175362223E+03  0.00000000000E+00 0.  1.
          2    1    6    6  503    0  0.16126359602E+02  0.21737373323E+02 -0.52633458663E+01  0.27573097082E+02  0.00000000000E+00 0.  1.
         -2    1    6    6    0  503  0.85443161791E+01  0.39783088361E+03  0.13401804603E+03  0.41988481034E+03  0.00000000000E+00 0. -1.
<mgrwt>
<rscale>  0 0.17363760E+04</rscale>
<asrwt>0</asrwt>
<pdfrwt beam="1">  1        2 0.12211168E+00 0.17363760E+04</pdfrwt>
<pdfrwt beam="2">  1       -1 0.14609778E+00 0.17363760E+04</pdfrwt>
<totfact> 0.14120779E+01</totfact>
</mgrwt>
</event>
<event>
12    6  0.1395358E-007  0.2460028E+04  0.7818608E-02  0.8417366E-01
          2   -1    0    0  501    0  0.00000000000E+00  0.00000000000E+00  0.15211465995E+04  0.15211465995E+04  0.00000000000E+00 0. -1.
         -1   -1    0    0    0  501 -0.00000000000E+00 -0.00000000000E+00 -0.99460167119E+03  0.99460167119E+03  0.00000000000E+00 0.  1.
         24    2    1    2    0    0  0.73387317473E+03  0.49055690609E+03 -0.37808789875E+03  0.96372612082E+03  0.81250612710E+02 0.  0.
        254    2    1    2    0    0 -0.73387317473E+03 -0.49055690609E+03  0.90463282709E+03  0.15520221499E+04  0.90066435881E+03 0.  0.
         23    2    4    4    0    0 -0.59333393303E+03 -0.17054135128E+03  0.99948928897E+03  0.11783009409E+04  0.91020657222E+02 0.  0.
         23    2    4    4    0    0 -0.14053924170E+03 -0.32001555481E+03 -0.94856461878E+02  0.37372120897E+03  0.92241855484E+02 0.  0.
          4    1    3    3  502    0  0.66351399730E+03  0.42939328865E+03 -0.31315914645E+03  0.85011650493E+03  0.00000000000E+00 0. -1.
         -1    1    3    3    0  502  0.70359177431E+02  0.61163617433E+02 -0.64928752301E+02  0.11360961589E+03  0.00000000000E+00 0.  1.
         11    1    5    5    0    0 -0.27101168861E+03 -0.94298923668E+02  0.54500834468E+03  0.61593320915E+03  0.00000000000E+00 0. -1.
        -11    1    5    5    0    0 -0.32232224442E+03 -0.76242427612E+02  0.45448094429E+03  0.56236773178E+03  0.00000000000E+00 0.  1.
          4    1    6    6  503    0 -0.24752217915E+02 -0.16715867151E+02 -0.30625554462E+02  0.42778699050E+02  0.00000000000E+00 0. -1.
         -4    1    6    6    0  503 -0.11578702378E+03 -0.30329968765E+03 -0.64230907416E+02  0.33094250992E+03  0.00000000000E+00 0.  1.
<mgrwt>
<rscale>  0 0.24600284E+04</rscale>
<asrwt>0</asrwt>
<pdfrwt beam="1">  1        2 0.23402255E+00 0.24600284E+04</pdfrwt>
<pdfrwt beam="2">  1       -1 0.15301564E+00 0.24600284E+04</pdfrwt>
<totfact> 0.41607716E+00</totfact>
</mgrwt>
</event>
<event>
12    6  0.1395358E-007  0.2091949E+04  0.7818608E-02  0.8564798E-01
          2   -1    0    0  501    0  0.00000000000E+00  0.00000000000E+00  0.27193675283E+04  0.27193675283E+04  0.00000000000E+00 0. -1.
         -1   -1    0    0    0  501 -0.00000000000E+00 -0.00000000000E+00 -0.40232242853E+03  0.40232242853E+03  0.00000000000E+00 0.  1.
         24    2    1    2    0    0 -0.31675011063E+03 -0.61416321867E+03  0.16826986713E+04  0.18208025960E+04  0.79499581382E+02 0.  0.
        254    2    1    2    0    0  0.31675011063E+03  0.61416321867E+03  0.63434642851E+03  0.13008873609E+04  0.90132427159E+03 0.  0.
         23    2    4    4    0    0  0.20660350177E+03  0.14950502448E+02 -0.17321686002E+03  0.28525301821E+03  0.91960205170E+02 0.  0.
         23    2    4    4    0    0  0.11014660886E+03  0.59921271623E+03  0.80756328853E+03  0.10156343427E+04  0.90368679755E+02 0.  0.
          2    1    3    3  502    0 -0.30975683485E+03 -0.59590017107E+03  0.15892487599E+04  0.17253283546E+04  0.00000000000E+00 0. -1.
         -1    1    3    3    0  502 -0.69932757812E+01 -0.18263047604E+02  0.93449911460E+02  0.95474241373E+02  0.00000000000E+00 0.  1.
         11    1    5    5    0    0  0.40531096548E+02 -0.21402579413E+02 -0.77811001687E+02  0.90307209992E+02  0.00000000000E+00 0.  1.
        -11    1    5    5    0    0  0.16607240522E+03  0.36353081861E+02 -0.95405858334E+02  0.19494580822E+03  0.00000000000E+00 0. -1.
          1    1    6    6  503    0 -0.12248393224E+02  0.13887727368E+03  0.19302992527E+03  0.23811231033E+03  0.00000000000E+00 0. -1.
         -1    1    6    6    0  503  0.12239500208E+03  0.46033544255E+03  0.61453336326E+03  0.77752203233E+03  0.00000000000E+00 0.  1.
<mgrwt>
<rscale>  0 0.20919489E+04</rscale>
<asrwt>0</asrwt>
<pdfrwt beam="1">  1        2 0.41836422E+00 0.20919489E+04</pdfrwt>
<pdfrwt beam="2">  1       -1 0.61895760E-01 0.20919489E+04</pdfrwt>
<totfact> 0.71907536E+00</totfact>
</mgrwt>
</event>
<event>
12    6  0.1395358E-007  0.1592859E+04  0.7818608E-02  0.8824947E-01
          2   -1    0    0  501    0  0.00000000000E+00  0.00000000000E+00  0.13904081153E+04  0.13904081153E+04  0.00000000000E+00 0. -1.
         -1   -1    0    0    0  501 -0.00000000000E+00 -0.00000000000E+00 -0.45619708201E+03  0.45619708201E+03  0.00000000000E+00 0.  1.
         24    2    1    2    0    0 -0.21850625834E+03 -0.41734840037E+03  0.15295842868E+02  0.47817455925E+03  0.80574649100E+02 0.  0.
        254    2    1    2    0    0  0.21850625834E+03  0.41734840037E+03  0.91891519045E+03  0.13684306381E+04  0.89792684102E+03 0.  0.
         23    2    4    4    0    0 -0.13341915932E+02  0.40798706862E+03  0.10180955931E+04  0.11007966365E+04  0.92753131282E+02 0.  0.
         23    2    4    4    0    0  0.23184817428E+03  0.93613317465E+01 -0.99180402622E+02  0.26763400162E+03  0.89162750708E+02 0.  0.
          4    1    3    3  502    0 -0.18395945451E+03 -0.35391454426E+03  0.42200649687E+02  0.40109535073E+03  0.00000000000E+00 0. -1.
         -3    1    3    3    0  502 -0.34546803832E+02 -0.63433856106E+02 -0.26904806819E+02  0.77079208516E+02  0.00000000000E+00 0.  1.
         11    1    5    5    0    0 -0.75926634862E+00  0.32976758588E+03  0.90068955188E+03  0.95916052152E+03  0.00000000000E+00 0. -1.
        -11    1    5    5    0    0 -0.12582649583E+02  0.78219482743E+02  0.11740604120E+03  0.14163611496E+03  0.00000000000E+00 0.  1.
          1    1    6    6  503    0  0.23276744918E+03  0.20556504603E+02 -0.10353950906E+03  0.25558498629E+03  0.00000000000E+00 0. -1.
         -1    1    6    6    0  503 -0.91927490431E+00 -0.11195172857E+02  0.43591064375E+01  0.12049015336E+02  0.00000000000E+00 0.  1.
<mgrwt>
<rscale>  0 0.15928592E+04</rscale>
<asrwt>0</asrwt>
<pdfrwt beam="1">  1        2 0.21390894E+00 0.15928592E+04</pdfrwt>
<pdfrwt beam="2">  1       -1 0.70184167E-01 0.15928592E+04</pdfrwt>
<totfact> 0.32887193E+01</totfact>
</mgrwt>
</event>
<event>
12    6  0.1395358E-007  0.3649495E+04  0.7818608E-02  0.8079247E-01
          2   -1    0    0  501    0  0.00000000000E+00  0.00000000000E+00  0.20743296913E+04  0.20743296913E+04  0.00000000000E+00 0. -1.
         -1   -1    0    0    0  501 -0.00000000000E+00 -0.00000000000E+00 -0.16051951055E+04  0.16051951055E+04  0.00000000000E+00 0.  1.
         24    2    1    2    0    0 -0.11211963915E+04  0.70127669981E+03  0.13181394715E+04  0.18688386184E+04  0.78713132387E+02 0.  0.
        254    2    1    2    0    0  0.11211963915E+04 -0.70127669981E+03 -0.84900488576E+03  0.18106861784E+04  0.89939134011E+03 0.  0.
         23    2    4    4    0    0  0.10682137918E+04 -0.39040788889E+03 -0.31436168466E+03  0.11834362009E+04  0.90548042950E+02 0.  0.
         23    2    4    4    0    0  0.52982599749E+02 -0.31086881092E+03 -0.53464320110E+03  0.62724997758E+03  0.90291795902E+02 0.  0.
          2    1    3    3  502    0 -0.86936632432E+03  0.56927404319E+03  0.10681293522E+04  0.14902251693E+04  0.00000000000E+00 0. -1.
         -1    1    3    3    0  502 -0.25183006719E+03  0.13200265663E+03  0.25001011934E+03  0.37861344914E+03  0.00000000000E+00 0.  1.
         11    1    5    5    0    0  0.62395217577E+03 -0.22173660840E+03 -0.22877756790E+03  0.70058733698E+03  0.00000000000E+00 0.  1.
        -11    1    5    5    0    0  0.44426161599E+03 -0.16867128049E+03 -0.85584116760E+02  0.48284886387E+03  0.00000000000E+00 0. -1.
          4    1    6    6  503    0  0.75129907751E+02 -0.18996415740E+03 -0.31192347278E+03  0.37286342943E+03  0.00000000000E+00 0. -1.
         -4    1    6    6    0  503 -0.22147308002E+02 -0.12090465352E+03 -0.22271972832E+03  0.25438654815E+03  0.00000000000E+00 0.  1.
<mgrwt>
<rscale>  0 0.36494952E+04</rscale>
<asrwt>0</asrwt>
<pdfrwt beam="1">  1        2 0.31912764E+00 0.36494952E+04</pdfrwt>
<pdfrwt beam="2">  1       -1 0.24695309E+00 0.36494952E+04</pdfrwt>
<totfact> 0.40929266E-01</totfact>
</mgrwt>
</event>
<event>
12    6  0.1395358E-007  0.2289082E+04  0.7818608E-02  0.8482238E-01
         -1   -1    0    0    0  501 -0.00000000000E+00  0.00000000000E+00  0.14006114250E+04  0.14006114250E+04  0.00000000000E+00 0.  1.
          2   -1    0    0  501    0  0.00000000000E+00 -0.00000000000E+00 -0.93528752079E+03  0.93528752079E+03  0.00000000000E+00 0. -1.
         24    2    1    2    0    0 -0.85949834654E+02  0.93504880432E+03 -0.34327521090E+02  0.94263422506E+03  0.75347614535E+02 0.  0.
        254    2    1    2    0    0  0.85949834654E+02 -0.93504880432E+03  0.49965142528E+03  0.13932647207E+04  0.89990632550E+03 0.  0.
         23    2    4    4    0    0  0.41409579848E+03 -0.50183972702E+03  0.52666807772E+03  0.84197105112E+03  0.90650675063E+02 0.  0.
         23    2    4    4    0    0 -0.32814596383E+03 -0.43320907730E+03 -0.27016652449E+02  0.55129366960E+03  0.88571622980E+02 0.  0.
          4    1    3    3  502    0 -0.31130039830E+02  0.69777742449E+03 -0.27826952204E+02  0.69902557377E+03  0.00000000000E+00 0. -1.
         -3    1    3    3    0  502 -0.54819794824E+02  0.23727137982E+03 -0.65005688867E+01  0.24360865129E+03  0.00000000000E+00 0.  1.
         11    1    5    5    0    0  0.91418942308E+02 -0.10830579371E+03  0.69421637067E+02  0.15781930065E+03  0.00000000000E+00 0. -1.
        -11    1    5    5    0    0  0.32267685618E+03 -0.39353393331E+03  0.45724644066E+03  0.68415175047E+03  0.00000000000E+00 0.  1.
          1    1    6    6  503    0 -0.33319778121E+03 -0.41776995525E+03 -0.26920112867E+02  0.53504877291E+03  0.00000000000E+00 0.  1.
         -1    1    6    6    0  503  0.50518173831E+01 -0.15439122054E+02 -0.96539581747E-01  0.16244896693E+02  0.00000000000E+00 0. -1.
<mgrwt>
<rscale>  0 0.22890823E+04</rscale>
<asrwt>0</asrwt>
<pdfrwt beam="1">  1        2 0.14389039E+00 0.22890823E+04</pdfrwt>
<pdfrwt beam="2">  1       -1 0.21547868E+00 0.22890823E+04</pdfrwt>
<totfact> 0.33914647E+00</totfact>
</mgrwt>
</event>
<event>
12    6  0.1395358E-007  0.4767529E+04  0.7818608E-02  0.7865404E-01
          2   -1    0    0  501    0  0.00000000000E+00  0.00000000000E+00  0.37086051422E+04  0.37086051422E+04  0.00000000000E+00 0. -1.
         -1   -1    0    0    0  501 -0.00000000000E+00 -0.00000000000E+00 -0.15322020062E+04  0.15322020062E+04  0.00000000000E+00 0.  1.
         24    2    1    2    0    0  0.52814270404E+03 -0.21328980227E+04  0.17908261293E+04  0.28357680439E+04  0.79583181373E+02 0.  0.
        254    2    1    2    0    0 -0.52814270404E+03  0.21328980227E+04  0.38557700671E+03  0.24050391044E+04  0.89852922876E+03 0.  0.
         23    2    4    4    0    0 -0.32166510516E+03  0.69251022992E+03 -0.25803735802E+03  0.81136388873E+03  0.93216003870E+02 0.  0.
         23    2    4    4    0    0 -0.20647759888E+03  0.14403877927E+04  0.64361436473E+03  0.15936752157E+04  0.90615950080E+02 0.  0.
          4    1    3    3  502    0  0.40057919178E+03 -0.14675111866E+04  0.12302231012E+04  0.19564001764E+04  0.00000000000E+00 0. -1.
         -3    1    3    3    0  502  0.12756351226E+03 -0.66538683609E+03  0.56060302815E+03  0.87936786755E+03  0.00000000000E+00 0.  1.
         11    1    5    5    0    0 -0.22130682518E+03  0.56426671281E+03 -0.21229939463E+03  0.64221855082E+03  0.00000000000E+00 0.  1.
        -11    1    5    5    0    0 -0.10035827998E+03  0.12824351711E+03 -0.45737963390E+02  0.16914533791E+03  0.00000000000E+00 0. -1.
          2    1    6    6  503    0 -0.94964645784E+01  0.26585152514E+03  0.95323627530E+02  0.28258416485E+03  0.00000000000E+00 0. -1.
         -2    1    6    6    0  503 -0.19698113430E+03  0.11745362676E+04  0.54829073720E+03  0.13110910509E+04  0.00000000000E+00 0.  1.
<mgrwt>
<rscale>  0 0.47675286E+04</rscale>
<asrwt>0</asrwt>
<pdfrwt beam="1">  1        2 0.57055463E+00 0.47675286E+04</pdfrwt>
<pdfrwt beam="2">  1       -1 0.23572339E+00 0.47675286E+04</pdfrwt>
<totfact> 0.41764402E-02</totfact>
</mgrwt>
</event>
<event>
12    6  0.1395358E-007  0.1821535E+04  0.7818608E-02  0.8694930E-01
          2   -1    0    0  501    0  0.00000000000E+00  0.00000000000E+00  0.10165022171E+04  0.10165022171E+04  0.00000000000E+00 0. -1.
         -1   -1    0    0    0  501 -0.00000000000E+00 -0.00000000000E+00 -0.81603119614E+03  0.81603119614E+03  0.00000000000E+00 0.  1.
         24    2    1    2    0    0 -0.55006299826E+03  0.24713470482E+03  0.40820472070E+03  0.73268544018E+03  0.80944399780E+02 0.  0.
        254    2    1    2    0    0  0.55006299826E+03 -0.24713470482E+03 -0.20773369973E+03  0.10998479731E+04  0.89602868787E+03 0.  0.
         23    2    4    4    0    0  0.32656402395E+03  0.16855255703E+03 -0.42693235624E+03  0.57162779400E+03  0.97124002473E+02 0.  0.
         23    2    4    4    0    0  0.22349897431E+03 -0.41568726185E+03  0.21919865651E+03  0.52822017907E+03  0.90668712242E+02 0.  0.
          2    1    3    3  502    0 -0.29253123608E+03  0.12858316335E+03  0.26463423039E+03  0.41489689065E+03  0.00000000000E+00 0. -1.
         -1    1    3    3    0  502 -0.25753176219E+03  0.11855154147E+03  0.14357049031E+03  0.31778854953E+03  0.00000000000E+00 0.  1.
         11    1    5    5    0    0  0.29445989797E+03  0.11528582517E+03 -0.37555916183E+03  0.49096042308E+03  0.00000000000E+00 0.  1.
        -11    1    5    5    0    0  0.32104125979E+02  0.53266731863E+02 -0.51373194412E+02  0.80667370927E+02  0.00000000000E+00 0. -1.
          1    1    6    6  503    0  0.66995748580E+02 -0.12616048704E+03  0.21957193935E+02  0.14452341396E+03  0.00000000000E+00 0. -1.
         -1    1    6    6    0  503  0.15650322573E+03 -0.28952677481E+03  0.19724146257E+03  0.38369676511E+03  0.00000000000E+00 0.  1.
<mgrwt>
<rscale>  0 0.18215351E+04</rscale>
<asrwt>0</asrwt>
<pdfrwt beam="1">  1        2 0.15638496E+00 0.18215351E+04</pdfrwt>
<pdfrwt beam="2">  1       -1 0.12554326E+00 0.18215351E+04</pdfrwt>
<totfact> 0.14633258E+01</totfact>
</mgrwt>
</event>
<event>
12    6  0.1395358E-007  0.1722257E+04  0.7818608E-02  0.8748771E-01
          2   -1    0    0  501    0  0.00000000000E+00  0.00000000000E+00  0.29660216900E+04  0.29660216900E+04  0.00000000000E+00 0. -1.
         -1   -1    0    0    0  501 -0.00000000000E+00 -0.00000000000E+00 -0.25001241598E+03  0.25001241598E+03  0.00000000000E+00 0.  1.
         24    2    1    2    0    0 -0.46121677260E+03  0.35693292560E+03  0.58116718730E+03  0.82725647557E+03  0.80473300441E+02 0.  0.
        254    2    1    2    0    0  0.46121677260E+03 -0.35693292560E+03  0.21348420867E+04  0.23887776304E+04  0.89921399436E+03 0.  0.
         23    2    4    4    0    0 -0.21023084895E+03  0.15284803302E+02  0.19750942983E+03  0.30287774631E+03  0.91073153432E+02 0.  0.
         23    2    4    4    0    0  0.67144762155E+03 -0.37221772890E+03  0.19373326569E+04  0.20858998841E+04  0.91282839957E+02 0.  0.
          2    1    3    3  502    0 -0.13326691260E+03  0.13675723009E+03  0.22793059372E+03  0.29734654115E+03  0.00000000000E+00 0. -1.
         -1    1    3    3    0  502 -0.32794986000E+03  0.22017569551E+03  0.35323659358E+03  0.52990993443E+03  0.00000000000E+00 0.  1.
         11    1    5    5    0    0 -0.21925810183E+03  0.10928391153E+02  0.19031319734E+03  0.29053856549E+03  0.00000000000E+00 0. -1.
        -11    1    5    5    0    0  0.90272528815E+01  0.43564121491E+01  0.71962324883E+01  0.12339180825E+02  0.00000000000E+00 0.  1.
          4    1    6    6  503    0  0.63200220218E+03 -0.32544124379E+03  0.17519020075E+04  0.18906346635E+04  0.00000000000E+00 0. -1.
         -4    1    6    6    0  503  0.39445419367E+02 -0.46776485112E+02  0.18543064938E+03  0.19526522065E+03  0.00000000000E+00 0.  1.
<mgrwt>
<rscale>  0 0.17222569E+04</rscale>
<asrwt>0</asrwt>
<pdfrwt beam="1">  1        2 0.45631101E+00 0.17222569E+04</pdfrwt>
<pdfrwt beam="2">  1       -1 0.38463451E-01 0.17222569E+04</pdfrwt>
<totfact> 0.12994956E+01</totfact>
</mgrwt>
</event>
<event>
12    6  0.1395358E-007  0.2885272E+04  0.7818608E-02  0.8277273E-01
          2   -1    0    0  501    0  0.00000000000E+00  0.00000000000E+00  0.38688940882E+04  0.38688940882E+04  0.00000000000E+00 0. -1.
         -1   -1    0    0    0  501 -0.00000000000E+00 -0.00000000000E+00 -0.53793096100E+03  0.53793096100E+03  0.00000000000E+00 0.  1.
         24    2    1    2    0    0  0.11358489536E+04 -0.68143451960E+02  0.24673413690E+04  0.27182243852E+04  0.78574816486E+02 0.  0.
        254    2    1    2    0    0 -0.11358489536E+04  0.68143451960E+02  0.86362175817E+03  0.16886006640E+04  0.90040728888E+03 0.  0.
         23    2    4    4    0    0 -0.45796579807E+03 -0.35584171601E+03  0.60571719432E+03  0.84353911418E+03  0.91153269865E+02 0.  0.
         23    2    4    4    0    0 -0.67788315548E+03  0.42398516797E+03  0.25790456385E+03  0.84506154980E+03  0.91242883279E+02 0.  0.
          4    1    3    3  502    0  0.58264287794E+03 -0.49202458729E+02  0.13545723842E+04  0.14753846783E+04  0.00000000000E+00 0. -1.
         -3    1    3    3    0  502  0.55320607562E+03 -0.18940993231E+02  0.11127689848E+04  0.12428397069E+04  0.00000000000E+00 0.  1.
         11    1    5    5    0    0 -0.38971307149E+03 -0.32074695426E+03  0.56132655957E+03  0.75487905868E+03  0.00000000000E+00 0.  1.
        -11    1    5    5    0    0 -0.68252726586E+02 -0.35094761743E+02  0.44390634753E+02  0.88660055504E+02  0.00000000000E+00 0. -1.
          3    1    6    6  503    0 -0.93367829258E+02  0.96592517840E+02  0.32687494580E+02  0.13826112377E+03  0.00000000000E+00 0. -1.
         -3    1    6    6    0  503 -0.58451532622E+03  0.32739265013E+03  0.22521706927E+03  0.70680042603E+03  0.00000000000E+00 0.  1.
<mgrwt>
<rscale>  0 0.28852715E+04</rscale>
<asrwt>0</asrwt>
<pdfrwt beam="1">  1        2 0.59521446E+00 0.28852715E+04</pdfrwt>
<pdfrwt beam="2">  1       -1 0.82758612E-01 0.28852715E+04</pdfrwt>
<totfact> 0.61913303E-01</totfact>
</mgrwt>
</event>
<event>
12    6  0.1395358E-007  0.3072394E+04  0.7818608E-02  0.8223355E-01
         -1   -1    0    0    0  501 -0.00000000000E+00  0.00000000000E+00  0.91310515809E+03  0.91310515809E+03  0.00000000000E+00 0.  1.
          2   -1    0    0  501    0  0.00000000000E+00 -0.00000000000E+00 -0.25844783246E+04  0.25844783246E+04  0.00000000000E+00 0. -1.
         24    2    1    2    0    0 -0.84032474858E+03 -0.94694755553E+03 -0.78053669200E+02  0.12709969731E+04  0.80533063261E+02 0.  0.
        254    2    1    2    0    0  0.84032474858E+03  0.94694755553E+03 -0.15933194973E+04  0.22265865097E+04  0.90341856764E+03 0.  0.
         23    2    4    4    0    0  0.27325395184E+03  0.55027902544E+03 -0.17585103209E+03  0.64646148394E+03  0.97540436211E+02 0.  0.
         23    2    4    4    0    0  0.56707079674E+03  0.39666853009E+03 -0.14174684652E+04  0.15801250257E+04  0.93075429769E+02 0.  0.
          2    1    3    3  502    0 -0.66798045517E+02 -0.10786757550E+03  0.28337130495E+01  0.12690714187E+03  0.00000000000E+00 0. -1.
         -1    1    3    3    0  502 -0.77352670306E+03 -0.83907998004E+03 -0.80887382249E+02  0.11440898312E+04  0.00000000000E+00 0.  1.
         11    1    5    5    0    0 -0.45826338795E+01  0.32975588341E+02  0.70239869846E+00  0.33299899754E+02  0.00000000000E+00 0.  1.
        -11    1    5    5    0    0  0.27783658572E+03  0.51730343710E+03 -0.17655343079E+03  0.61316158419E+03  0.00000000000E+00 0. -1.
          4    1    6    6  503    0  0.25572667385E+03  0.18645648246E+03 -0.75318035267E+03  0.81697172241E+03  0.00000000000E+00 0. -1.
         -4    1    6    6    0  503  0.31134412288E+03  0.21021204763E+03 -0.66428811257E+03  0.76315330329E+03  0.00000000000E+00 0.  1.
<mgrwt>
<rscale>  0 0.30723935E+04</rscale>
<asrwt>0</asrwt>
<pdfrwt beam="1">  1        2 0.39761205E+00 0.30723935E+04</pdfrwt>
<pdfrwt beam="2">  1       -1 0.14047772E+00 0.30723935E+04</pdfrwt>
<totfact> 0.12481757E+00</totfact>
</mgrwt>
</event>
<event>
12    6  0.1395358E-007  0.2892151E+04  0.7818608E-02  0.8275217E-01
          2   -1    0    0  501    0  0.00000000000E+00  0.00000000000E+00  0.11386348930E+04  0.11386348930E+04  0.00000000000E+00 0. -1.
         -1   -1    0    0    0  501 -0.00000000000E+00 -0.00000000000E+00 -0.18365279947E+04  0.18365279947E+04  0.00000000000E+00 0.  1.
         24    2    1    2    0    0 -0.10725068744E+04 -0.73933883924E+03 -0.39439032357E+03  0.13632348335E+04  0.77282397445E+02 0.  0.
        254    2    1    2    0    0  0.10725068744E+04  0.73933883924E+03 -0.30350277810E+03  0.16119280543E+04  0.89961391771E+03 0.  0.
         23    2    4    4    0    0  0.84503663408E+03  0.16696151904E+03  0.96312305814E+02  0.87213505546E+03  0.96852635152E+02 0.  0.
         23    2    4    4    0    0  0.22747024032E+03  0.57237732021E+03 -0.39981508391E+03  0.73979299880E+03  0.89905910962E+02 0.  0.
          2    1    3    3  502    0 -0.48280980836E+03 -0.35992069804E+03 -0.14943122917E+03  0.62046588317E+03  0.00000000000E+00 0. -1.
         -1    1    3    3    0  502 -0.58969706604E+03 -0.37941814120E+03 -0.24495909440E+03  0.74276895028E+03  0.00000000000E+00 0.  1.
         11    1    5    5    0    0  0.67417516885E+03  0.96270764585E+02  0.59590328910E+02  0.68361628543E+03  0.00000000000E+00 0.  1.
        -11    1    5    5    0    0  0.17086146523E+03  0.70690754452E+02  0.36721976903E+02  0.18851877003E+03  0.00000000000E+00 0. -1.
          3    1    6    6  503    0  0.10505230060E+03  0.33225310785E+03 -0.26889166587E+03  0.44014865842E+03  0.00000000000E+00 0. -1.
         -3    1    6    6    0  503  0.12241793973E+03  0.24012421236E+03 -0.13092341804E+03  0.29964434038E+03  0.00000000000E+00 0.  1.
<mgrwt>
<rscale>  0 0.28921513E+04</rscale>
<asrwt>0</asrwt>
<pdfrwt beam="1">  1        2 0.17517460E+00 0.28921513E+04</pdfrwt>
<pdfrwt beam="2">  1       -1 0.28254276E+00 0.28921513E+04</pdfrwt>
<totfact> 0.86980859E-01</totfact>
</mgrwt>
</event>
<event>
12    6  0.1395358E-007  0.3488854E+04  0.7818608E-02  0.8116436E-01
          2   -1    0    0  501    0  0.00000000000E+00  0.00000000000E+00  0.26090439834E+04  0.26090439834E+04  0.00000000000E+00 0. -1.
         -1   -1    0    0    0  501 -0.00000000000E+00 -0.00000000000E+00 -0.11663377172E+04  0.11663377172E+04  0.00000000000E+00 0.  1.
         24    2    1    2    0    0  0.99040888815E+03 -0.11395774243E+04  0.17049037048E+02  0.15118604749E+04  0.76713454321E+02 0.  0.
        254    2    1    2    0    0 -0.99040888815E+03  0.11395774243E+04  0.14256572291E+04  0.22635212257E+04  0.90082369662E+03 0.  0.
         23    2    4    4    0    0 -0.73305710020E+03  0.12127656769E+04  0.94477939980E+03  0.17055264381E+04  0.89660568350E+02 0.  0.
         23    2    4    4    0    0 -0.25735178795E+03 -0.73188252557E+02  0.48087782934E+03  0.55799478762E+03  0.92348433582E+02 0.  0.
          4    1    3    3  502    0  0.48698605122E+03 -0.54621689429E+03 -0.28942651759E+02  0.73235646155E+03  0.00000000000E+00 0. -1.
         -3    1    3    3    0  502  0.50342283693E+03 -0.59336053002E+03  0.45991688807E+02  0.77950401331E+03  0.00000000000E+00 0.  1.
         11    1    5    5    0    0 -0.67700548076E+03  0.11100549879E+04  0.89438264192E+03  0.15781250924E+04  0.00000000000E+00 0. -1.
        -11    1    5    5    0    0 -0.56051619440E+02  0.10271068893E+03  0.50396757879E+02  0.12740134563E+03  0.00000000000E+00 0.  1.
          3    1    6    6  503    0 -0.23299155170E+03 -0.67497508785E+02  0.35697992454E+03  0.43159662114E+03  0.00000000000E+00 0. -1.
         -3    1    6    6    0  503 -0.24360236250E+02 -0.56907437720E+01  0.12389790480E+03  0.12639816648E+03  0.00000000000E+00 0.  1.
<mgrwt>
<rscale>  0 0.34888545E+04</rscale>
<asrwt>0</asrwt>
<pdfrwt beam="1">  1        2 0.40139138E+00 0.34888545E+04</pdfrwt>
<pdfrwt beam="2">  1       -1 0.17943657E+00 0.34888545E+04</pdfrwt>
<totfact> 0.58998852E-01</totfact>
</mgrwt>
</event>
<event>
12    6  0.1395358E-007  0.2564499E+04  0.7818608E-02  0.8380361E-01
          2   -1    0    0  501    0  0.00000000000E+00  0.00000000000E+00  0.21586032905E+04  0.21586032905E+04  0.00000000000E+00 0. -1.
         -1   -1    0    0    0  501 -0.00000000000E+00 -0.00000000000E+00 -0.76167961103E+03  0.76167961103E+03  0.00000000000E+00 0.  1.
         24    2    1    2    0    0  0.11361026082E+03 -0.11041636856E+04  0.80856318144E+03  0.13755112366E+04  0.78562127315E+02 0.  0.
        254    2    1    2    0    0 -0.11361026082E+03  0.11041636856E+04  0.58836049801E+03  0.15447716649E+04  0.89892529454E+03 0.  0.
         23    2    4    4    0    0  0.18439745764E+03  0.10417079159E+04  0.61290358368E+03  0.12261877203E+04  0.93422256850E+02 0.  0.
         23    2    4    4    0    0 -0.29800771847E+03  0.62455769620E+02 -0.24543085670E+02  0.31858394457E+03  0.90465702106E+02 0.  0.
          2    1    3    3  502    0  0.10499497742E+03 -0.69207252306E+03  0.48703143523E+03  0.85275315382E+03  0.00000000000E+00 0. -1.
         -1    1    3    3    0  502  0.86152834037E+01 -0.41209116250E+03  0.32153174621E+03  0.52275808280E+03  0.00000000000E+00 0.  1.
         11    1    5    5    0    0  0.13205491030E+02  0.51144529482E+02  0.56019478016E+02  0.76995647971E+02  0.00000000000E+00 0. -1.
        -11    1    5    5    0    0  0.17119196661E+03  0.99056338645E+03  0.55688410566E+03  0.11491920723E+04  0.00000000000E+00 0.  1.
          2    1    6    6  503    0 -0.22037372350E+03  0.85906085674E+02 -0.19531946866E+02  0.23733084610E+03  0.00000000000E+00 0. -1.
         -2    1    6    6    0  503 -0.77633994970E+02 -0.23450316054E+02 -0.50111388041E+01  0.81253098464E+02  0.00000000000E+00 0.  1.
<mgrwt>
<rscale>  0 0.25644993E+04</rscale>
<asrwt>0</asrwt>
<pdfrwt beam="1">  1        2 0.33209281E+00 0.25644993E+04</pdfrwt>
<pdfrwt beam="2">  1       -1 0.11718148E+00 0.25644993E+04</pdfrwt>
<totfact> 0.36064154E+00</totfact>
</mgrwt>
</event>
<event>
12    6  0.1395358E-007  0.2399401E+04  0.7818608E-02  0.8439728E-01
          2   -1    0    0  501    0  0.00000000000E+00  0.00000000000E+00  0.18316132151E+04  0.18316132151E+04  0.00000000000E+00 0. -1.
         -1   -1    0    0    0  501 -0.00000000000E+00 -0.00000000000E+00 -0.78579961881E+03  0.78579961881E+03  0.00000000000E+00 0.  1.
         24    2    1    2    0    0  0.42759774103E+03  0.13887718064E+03  0.14655381428E+04  0.15343265815E+04  0.65033153551E+02 0.  0.
        254    2    1    2    0    0 -0.42759774103E+03 -0.13887718064E+03 -0.41972454648E+03  0.10830862525E+04  0.89150459112E+03 0.  0.
         23    2    4    4    0    0 -0.19410141480E+03 -0.21199140672E+03  0.23202383847E+03  0.38095682349E+03  0.93152155068E+02 0.  0.
         23    2    4    4    0    0 -0.23349632623E+03  0.73114226084E+02 -0.65174838495E+03  0.70212942901E+03  0.91343053201E+02 0.  0.
          2    1    3    3  502    0  0.17629805729E+03  0.87311746665E+02  0.68680746057E+03  0.71442902657E+03  0.00000000000E+00 0. -1.
         -1    1    3    3    0  502  0.25129968374E+03  0.51565433972E+02  0.77873068225E+03  0.81989755488E+03  0.00000000000E+00 0.  1.
         11    1    5    5    0    0 -0.20445245444E+03 -0.20287632975E+03  0.21746779217E+03  0.36090421434E+03  0.00000000000E+00 0.  1.
        -11    1    5    5    0    0  0.10351039637E+02 -0.91150769730E+01  0.14556046300E+02  0.20052609149E+02  0.00000000000E+00 0. -1.
          1    1    6    6  503    0 -0.66458601320E+01  0.40404534727E+01  0.81078339526E+00  0.78198523562E+01  0.00000000000E+00 0. -1.
         -1    1    6    6    0  503 -0.22685046610E+03  0.69073772611E+02 -0.65255916835E+03  0.69430957665E+03  0.00000000000E+00 0.  1.
<mgrwt>
<rscale>  0 0.23994007E+04</rscale>
<asrwt>0</asrwt>
<pdfrwt beam="1">  1        2 0.28178665E+00 0.23994007E+04</pdfrwt>
<pdfrwt beam="2">  1       -1 0.12089225E+00 0.23994007E+04</pdfrwt>
<totfact> 0.51568594E+00</totfact>
</mgrwt>
</event>
<event>
12    6  0.1395358E-007  0.3727930E+04  0.7818608E-02  0.8061800E-01
          2   -1    0    0  501    0  0.00000000000E+00  0.00000000000E+00  0.32322427435E+04  0.32322427435E+04  0.00000000000E+00 0. -1.
         -1   -1    0    0    0  501 -0.00000000000E+00 -0.00000000000E+00 -0.10749084769E+04  0.10749084769E+04  0.00000000000E+00 0.  1.
         24    2    1    2    0    0 -0.14277907770E+04 -0.94943805911E+03  0.14422875326E+04  0.22416264333E+04  0.68385734470E+02 0.  0.
        254    2    1    2    0    0  0.14277907770E+04  0.94943805911E+03  0.71504673407E+03  0.20655247871E+04  0.90281874339E+03 0.  0.
         23    2    4    4    0    0  0.81492909132E+02  0.70238887053E+01 -0.15925751855E+03  0.20160544163E+03  0.92689630643E+02 0.  0.
         23    2    4    4    0    0  0.13462978679E+04  0.94241417040E+03  0.87430425262E+03  0.18639193455E+04  0.95524776024E+02 0.  0.
          4    1    3    3  502    0 -0.13105890481E+04 -0.89299747051E+03  0.13361292768E+04  0.20737236025E+04  0.00000000000E+00 0. -1.
         -3    1    3    3    0  502 -0.11720172892E+03 -0.56440588596E+02  0.10615825578E+03  0.16790283074E+03  0.00000000000E+00 0.  1.
         11    1    5    5    0    0  0.10148234096E+03  0.56714184065E+01 -0.11799356008E+03  0.15573474478E+03  0.00000000000E+00 0.  1.
        -11    1    5    5    0    0 -0.19989431823E+02  0.13524702989E+01 -0.41263958470E+02  0.45870696846E+02  0.00000000000E+00 0. -1.
          4    1    6    6  503    0  0.64490747604E+03  0.40477507434E+03  0.37251358954E+03  0.84765257497E+03  0.00000000000E+00 0. -1.
         -4    1    6    6    0  503  0.70139039184E+03  0.53763909606E+03  0.50179066308E+03  0.10162667706E+04  0.00000000000E+00 0.  1.
<mgrwt>
<rscale>  0 0.37279298E+04</rscale>
<asrwt>0</asrwt>
<pdfrwt beam="1">  1        2 0.49726811E+00 0.37279298E+04</pdfrwt>
<pdfrwt beam="2">  1       -1 0.16537054E+00 0.37279298E+04</pdfrwt>
<totfact> 0.30082913E-01</totfact>
</mgrwt>
</event>
<event>
12    6  0.1395358E-007  0.1457992E+04  0.7818608E-02  0.8912878E-01
          2   -1    0    0  501    0  0.00000000000E+00  0.00000000000E+00  0.17398615466E+04  0.17398615466E+04  0.00000000000E+00 0. -1.
         -1   -1    0    0    0  501 -0.00000000000E+00 -0.00000000000E+00 -0.30544700568E+03  0.30544700568E+03  0.00000000000E+00 0.  1.
         24    2    1    2    0    0  0.77941925358E+02  0.93332295883E+02 -0.15341070304E+03  0.21615483389E+03  0.91663554492E+02 0.  0.
        254    2    1    2    0    0 -0.77941925358E+02 -0.93332295883E+02  0.15878252439E+04  0.18291537184E+04  0.89990469438E+03 0.  0.
         23    2    4    4    0    0  0.18678234011E+03 -0.39950788041E+03  0.54532551439E+03  0.70717859536E+03  0.90705347141E+02 0.  0.
         23    2    4    4    0    0 -0.26472426547E+03  0.30617558453E+03  0.10424997296E+04  0.11219751230E+04  0.90554211768E+02 0.  0.
          2    1    3    3  502    0  0.27855150976E+02  0.51958527410E+02 -0.11478578409E+02  0.60061266793E+02  0.00000000000E+00 0. -1.
         -1    1    3    3    0  502  0.50086774382E+02  0.41373768472E+02 -0.14193212463E+03  0.15609356709E+03  0.00000000000E+00 0.  1.
         11    1    5    5    0    0  0.54572482974E+02 -0.17571460397E+03  0.28553086502E+03  0.33967874945E+03  0.00000000000E+00 0.  1.
        -11    1    5    5    0    0  0.13220985713E+03 -0.22379327644E+03  0.25979464937E+03  0.36749984591E+03  0.00000000000E+00 0. -1.
          2    1    6    6  503    0 -0.19150667883E+03  0.15477569373E+03  0.64186309895E+03  0.68747258942E+03  0.00000000000E+00 0. -1.
         -2    1    6    6    0  503 -0.73217586639E+02  0.15139989080E+03  0.40063663060E+03  0.43450253360E+03  0.00000000000E+00 0.  1.
<mgrwt>
<rscale>  0 0.14579925E+04</rscale>
<asrwt>0</asrwt>
<pdfrwt beam="1">  1        2 0.26767100E+00 0.14579925E+04</pdfrwt>
<pdfrwt beam="2">  1       -1 0.46991848E-01 0.14579925E+04</pdfrwt>
<totfact> 0.46454965E+01</totfact>
</mgrwt>
</event>
<event>
12    6  0.1395358E-007  0.1164357E+04  0.7818608E-02  0.9144639E-01
         -1   -1    0    0    0  501 -0.00000000000E+00  0.00000000000E+00  0.21262418511E+03  0.21262418511E+03  0.00000000000E+00 0.  1.
          2   -1    0    0  501    0  0.00000000000E+00 -0.00000000000E+00 -0.15940427800E+04  0.15940427800E+04  0.00000000000E+00 0. -1.
         24    2    1    2    0    0 -0.11211349928E+03  0.12885871423E+03 -0.50366611810E+03  0.53776311478E+03  0.79596508412E+02 0.  0.
        254    2    1    2    0    0  0.11211349928E+03 -0.12885871423E+03 -0.87775247679E+03  0.12689038503E+04  0.90027416152E+03 0.  0.
         23    2    4    4    0    0 -0.22784587746E+03  0.27602672129E+03 -0.45125581093E+03  0.58344353872E+03  0.93113163602E+02 0.  0.
         23    2    4    4    0    0  0.33995937674E+03 -0.40488543552E+03 -0.42649666586E+03  0.68546031160E+03  0.91933884183E+02 0.  0.
          2    1    3    3  502    0  0.52535221553E+01  0.10888561027E+02 -0.10593669074E+03  0.10662430634E+03  0.00000000000E+00 0. -1.
         -1    1    3    3    0  502 -0.11736702143E+03  0.11797015320E+03 -0.39772942735E+03  0.43113880845E+03  0.00000000000E+00 0.  1.
         11    1    5    5    0    0 -0.23453117648E+03  0.26268339646E+03 -0.44443035543E+03  0.56703243323E+03  0.00000000000E+00 0. -1.
        -11    1    5    5    0    0  0.66852990163E+01  0.13343324830E+02 -0.68254555023E+01  0.16411105486E+02  0.00000000000E+00 0.  1.
          1    1    6    6  503    0  0.29977544770E+03 -0.37298338513E+03 -0.34799100333E+03  0.59167530203E+03  0.00000000000E+00 0. -1.
         -1    1    6    6    0  503  0.40183929038E+02 -0.31902050390E+02 -0.78505662527E+02  0.93785009575E+02  0.00000000000E+00 0.  1.
<mgrwt>
<rscale>  0 0.11643574E+04</rscale>
<asrwt>0</asrwt>
<pdfrwt beam="1">  1        2 0.24523735E+00 0.11643574E+04</pdfrwt>
<pdfrwt beam="2">  1       -1 0.32711413E-01 0.11643574E+04</pdfrwt>
<totfact> 0.11083468E+02</totfact>
</mgrwt>
</event>
<event>
12    6  0.1395358E-007  0.1630259E+04  0.7818608E-02  0.8802171E-01
          2   -1    0    0  501    0  0.00000000000E+00  0.00000000000E+00  0.10726081915E+04  0.10726081915E+04  0.00000000000E+00 0. -1.
         -1   -1    0    0    0  501 -0.00000000000E+00 -0.00000000000E+00 -0.61945839212E+03  0.61945839212E+03  0.00000000000E+00 0.  1.
         24    2    1    2    0    0 -0.44613154422E+02  0.52344478063E+03  0.36847938808E+03  0.64679802023E+03  0.81153235434E+02 0.  0.
        254    2    1    2    0    0  0.44613154422E+02 -0.52344478063E+03  0.84670411330E+02  0.10452685634E+04  0.89968467764E+03 0.  0.
         23    2    4    4    0    0  0.53233201356E+02 -0.21857825435E+03 -0.39844278889E+03  0.46657150294E+03  0.91225458849E+02 0.  0.
         23    2    4    4    0    0 -0.86200469346E+01 -0.30486652628E+03  0.48311320022E+03  0.57869706047E+03  0.92054437769E+02 0.  0.
          4    1    3    3  502    0 -0.29967652238E+00  0.17076760541E+03  0.16381351383E+03  0.23663586409E+03  0.00000000000E+00 0. -1.
         -3    1    3    3    0  502 -0.44313477899E+02  0.35267717522E+03  0.20466587426E+03  0.41016215614E+03  0.00000000000E+00 0.  1.
         11    1    5    5    0    0  0.26240071267E+02 -0.36493363528E+02 -0.15490451252E+03  0.16129387751E+03  0.00000000000E+00 0. -1.
        -11    1    5    5    0    0  0.26993130089E+02 -0.18208489082E+03 -0.24353827637E+03  0.30527762544E+03  0.00000000000E+00 0.  1.
          4    1    6    6  503    0 -0.52337898162E+01 -0.17249199503E+03  0.18776455513E+03  0.25502236974E+03  0.00000000000E+00 0. -1.
         -4    1    6    6    0  503 -0.33862571184E+01 -0.13237453125E+03  0.29534864509E+03  0.32367469073E+03  0.00000000000E+00 0.  1.
<mgrwt>
<rscale>  0 0.16302591E+04</rscale>
<asrwt>0</asrwt>
<pdfrwt beam="1">  1        2 0.16501664E+00 0.16302591E+04</pdfrwt>
<pdfrwt beam="2">  1       -1 0.95301292E-01 0.16302591E+04</pdfrwt>
<totfact> 0.26291519E+01</totfact>
</mgrwt>
</event>
<event>
12    6  0.1395358E-007  0.2126043E+04  0.7818608E-02  0.8549857E-01
         -1   -1    0    0    0  501 -0.00000000000E+00  0.00000000000E+00  0.11555837471E+04  0.11555837471E+04  0.00000000000E+00 0.  1.
          2   -1    0    0  501    0  0.00000000000E+00 -0.00000000000E+00 -0.97787383858E+03  0.97787383858E+03  0.00000000000E+00 0. -1.
         24    2    1    2    0    0 -0.23855705347E+03  0.46893268590E+03  0.76960983565E+03  0.93558925636E+03  0.78870944026E+02 0.  0.
        254    2    1    2    0    0  0.23855705347E+03 -0.46893268590E+03 -0.59189992715E+03  0.11978683293E+04  0.89874116347E+03 0.  0.
         23    2    4    4    0    0 -0.69770161881E+02 -0.64859388305E+03 -0.47241877225E+03  0.81077379266E+03  0.92912571073E+02 0.  0.
         23    2    4    4    0    0  0.30832721535E+03  0.17966119715E+03 -0.11948115490E+03  0.38709453664E+03  0.90678643763E+02 0.  0.
          2    1    3    3  502    0 -0.14922425037E+03  0.22301145746E+03  0.34882203510E+03  0.44008953547E+03  0.00000000000E+00 0. -1.
         -1    1    3    3    0  502 -0.89332803099E+02  0.24592122844E+03  0.42078780055E+03  0.49549972089E+03  0.00000000000E+00 0.  1.
         11    1    5    5    0    0 -0.68395446110E+02 -0.24661033086E+03 -0.16200295291E+03  0.30288537285E+03  0.00000000000E+00 0. -1.
        -11    1    5    5    0    0 -0.13747157703E+01 -0.40198355219E+03 -0.31041581934E+03  0.50788841981E+03  0.00000000000E+00 0.  1.
          2    1    6    6  503    0  0.26481548562E+03  0.11674134303E+03 -0.11164729166E+03  0.31019493924E+03  0.00000000000E+00 0. -1.
         -2    1    6    6    0  503  0.43511729734E+02  0.62919854124E+02 -0.78338632338E+01  0.76899597402E+02  0.00000000000E+00 0.  1.
<mgrwt>
<rscale>  0 0.21260434E+04</rscale>
<asrwt>0</asrwt>
<pdfrwt beam="1">  1        2 0.15044213E+00 0.21260434E+04</pdfrwt>
<pdfrwt beam="2">  1       -1 0.17778212E+00 0.21260434E+04</pdfrwt>
<totfact> 0.58956525E+00</totfact>
</mgrwt>
</event>
<event>
12    6  0.1395358E-007  0.3933758E+04  0.7818608E-02  0.8018045E-01
         -1   -1    0    0    0  501 -0.00000000000E+00  0.00000000000E+00  0.11972119939E+04  0.11972119939E+04  0.00000000000E+00 0.  1.
          2   -1    0    0  501    0  0.00000000000E+00 -0.00000000000E+00 -0.32313521764E+04  0.32313521764E+04  0.00000000000E+00 0. -1.
         24    2    1    2    0    0 -0.24396325424E+03 -0.10127498313E+04 -0.27030193059E+04  0.28978874328E+04  0.79106984562E+02 0.  0.
        254    2    1    2    0    0  0.24396325424E+03  0.10127498313E+04  0.66887912341E+03  0.15306767375E+04  0.90021758628E+03 0.  0.
         23    2    4    4    0    0 -0.26194248350E+03  0.12677611086E+03  0.33729577104E+03  0.45386941286E+03  0.86850214860E+02 0.  0.
         23    2    4    4    0    0  0.50590573774E+03  0.88597372044E+03  0.33158335237E+03  0.10768073246E+04  0.93147441993E+02 0.  0.
          2    1    3    3  502    0 -0.13185573205E+03 -0.44622253002E+03 -0.11195339978E+04  0.12123765309E+04  0.00000000000E+00 0. -1.
         -1    1    3    3    0  502 -0.11210752219E+03 -0.56652730128E+03 -0.15834853081E+04  0.16855109019E+04  0.00000000000E+00 0.  1.
         11    1    5    5    0    0 -0.28567533489E+02 -0.11876651135E+02  0.22855939182E+02  0.38464955059E+02  0.00000000000E+00 0. -1.
        -11    1    5    5    0    0 -0.23337495002E+03  0.13865276200E+03  0.31443983186E+03  0.41540445780E+03  0.00000000000E+00 0.  1.
          1    1    6    6  503    0  0.12711419091E+03  0.30234755202E+03  0.12524125217E+03  0.35108037682E+03  0.00000000000E+00 0. -1.
         -1    1    6    6    0  503  0.37879154684E+03  0.58362616842E+03  0.20634210020E+03  0.72572694778E+03  0.00000000000E+00 0.  1.
<mgrwt>
<rscale>  0 0.39337583E+04</rscale>
<asrwt>0</asrwt>
<pdfrwt beam="1">  1        2 0.49713109E+00 0.39337583E+04</pdfrwt>
<pdfrwt beam="2">  1       -1 0.18418647E+00 0.39337583E+04</pdfrwt>
<totfact> 0.21607434E-01</totfact>
</mgrwt>
</event>
<event>
12    6  0.1395358E-007  0.2874881E+04  0.7818608E-02  0.8280391E-01
         -1   -1    0    0    0  501 -0.00000000000E+00  0.00000000000E+00  0.92666062120E+03  0.92666062120E+03  0.00000000000E+00 0.  1.
          2   -1    0    0  501    0  0.00000000000E+00 -0.00000000000E+00 -0.22297640535E+04  0.22297640535E+04  0.00000000000E+00 0. -1.
         24    2    1    2    0    0 -0.11671581099E+04 -0.19937305685E+03 -0.12088522411E+02  0.11869960913E+04  0.82497994067E+02 0.  0.
        254    2    1    2    0    0  0.11671581099E+04  0.19937305685E+03 -0.12910149099E+04  0.19694285834E+04  0.89995654245E+03 0.  0.
         23    2    4    4    0    0  0.11463095915E+04  0.42846589335E+03 -0.11653346390E+04  0.16923346461E+04  0.91558899808E+02 0.  0.
         23    2    4    4    0    0  0.20848518420E+02 -0.22909283650E+03 -0.12568027090E+03  0.27709393736E+03  0.89818323138E+02 0.  0.
          4    1    3    3  502    0 -0.75911324069E+03 -0.10715945096E+03 -0.40410075737E+02  0.76770374126E+03  0.00000000000E+00 0. -1.
         -3    1    3    3    0  502 -0.40804486922E+03 -0.92213605889E+02  0.28321553327E+02  0.41929235003E+03  0.00000000000E+00 0.  1.
         11    1    5    5    0    0  0.33296177471E+03  0.14935677445E+03 -0.39607497148E+03  0.53855953481E+03  0.00000000000E+00 0. -1.
        -11    1    5    5    0    0  0.81334781677E+03  0.27910911890E+03 -0.76925966751E+03  0.11537751113E+04  0.00000000000E+00 0.  1.
          4    1    6    6  503    0  0.43691503129E+02 -0.14980483447E+03 -0.46726535364E+02  0.16289200405E+03  0.00000000000E+00 0. -1.
         -4    1    6    6    0  503 -0.22842984709E+02 -0.79288002031E+02 -0.78953735539E+02  0.11420193331E+03  0.00000000000E+00 0.  1.
<mgrwt>
<rscale>  0 0.28748805E+04</rscale>
<asrwt>0</asrwt>
<pdfrwt beam="1">  1        2 0.34304062E+00 0.28748805E+04</pdfrwt>
<pdfrwt beam="2">  1       -1 0.14256317E+00 0.28748805E+04</pdfrwt>
<totfact> 0.19523711E+00</totfact>
</mgrwt>
</event>
<event>
12    6  0.1395358E-007  0.1618579E+04  0.7818608E-02  0.8809215E-01
         -1   -1    0    0    0  501 -0.00000000000E+00  0.00000000000E+00  0.46613892216E+03  0.46613892216E+03  0.00000000000E+00 0.  1.
          2   -1    0    0  501    0  0.00000000000E+00 -0.00000000000E+00 -0.14050520668E+04  0.14050520668E+04  0.00000000000E+00 0. -1.
         24    2    1    2    0    0 -0.15580956985E+03  0.20958287856E+03  0.24063111487E+03  0.36375711966E+03  0.78830854490E+02 0.  0.
        254    2    1    2    0    0  0.15580956985E+03 -0.20958287856E+03 -0.11795442595E+04  0.15074338693E+04  0.90157118693E+03 0.  0.
         23    2    4    4    0    0 -0.27339797729E+03  0.60354419222E+02 -0.84075061947E+03  0.89082440811E+03  0.91199846711E+02 0.  0.
         23    2    4    4    0    0  0.42920754714E+03 -0.26993729778E+03 -0.33879364005E+03  0.61660946119E+03  0.91328165619E+02 0.  0.
          2    1    3    3  502    0 -0.59562803324E+02  0.44989313583E+02  0.32263363759E+02  0.81318451274E+02  0.00000000000E+00 0. -1.
         -1    1    3    3    0  502 -0.96246766527E+02  0.16459356498E+03  0.20836775111E+03  0.28243866839E+03  0.00000000000E+00 0.  1.
         11    1    5    5    0    0 -0.11449770987E+03  0.26304461740E+01 -0.22756018444E+03  0.25475533823E+03  0.00000000000E+00 0.  1.
        -11    1    5    5    0    0 -0.15890026742E+03  0.57723973048E+02 -0.61319043503E+03  0.63606906988E+03  0.00000000000E+00 0. -1.
          1    1    6    6  503    0  0.39340077545E+03 -0.24689814313E+03 -0.27455128798E+03  0.53953801807E+03  0.00000000000E+00 0. -1.
         -1    1    6    6    0  503  0.35806771682E+02 -0.23039154649E+02 -0.64242352063E+02  0.77071443115E+02  0.00000000000E+00 0.  1.
<mgrwt>
<rscale>  0 0.16185790E+04</rscale>
<asrwt>0</asrwt>
<pdfrwt beam="1">  1        2 0.21616185E+00 0.16185790E+04</pdfrwt>
<pdfrwt beam="2">  1       -1 0.71713681E-01 0.16185790E+04</pdfrwt>
<totfact> 0.30791866E+01</totfact>
</mgrwt>
</event>
<event>
12    6  0.1395358E-007  0.1580853E+04  0.7818608E-02  0.8832398E-01
          2   -1    0    0  501    0  0.00000000000E+00  0.00000000000E+00  0.75962206744E+03  0.75962206744E+03  0.00000000000E+00 0. -1.
         -1   -1    0    0    0  501 -0.00000000000E+00 -0.00000000000E+00 -0.82248031383E+03  0.82248031383E+03  0.00000000000E+00 0.  1.
         24    2    1    2    0    0  0.21632745070E+03  0.47802352352E+03 -0.51651391841E+02  0.53402115892E+03  0.84892148774E+02 0.  0.
        254    2    1    2    0    0 -0.21632745070E+03 -0.47802352352E+03 -0.11206854556E+02  0.10480812224E+04  0.90721805543E+03 0.  0.
         23    2    4    4    0    0  0.19846013470E+03 -0.56071669478E+03  0.77018949581E+02  0.60694406421E+03  0.93056658140E+02 0.  0.
         23    2    4    4    0    0 -0.41478758540E+03  0.82693171255E+02 -0.88225804137E+02  0.44113715814E+03  0.89057836274E+02 0.  0.
          4    1    3    3  502    0  0.81847480186E+02  0.27578708228E+03 -0.44100082206E+02  0.29103666782E+03  0.00000000000E+00 0. -1.
         -3    1    3    3    0  502  0.13447997052E+03  0.20223644125E+03 -0.75513096344E+01  0.24298449110E+03  0.00000000000E+00 0.  1.
         11    1    5    5    0    0  0.59838760625E+02 -0.10512536601E+03 -0.15102721836E+02  0.12190205928E+03  0.00000000000E+00 0. -1.
        -11    1    5    5    0    0  0.13862137407E+03 -0.45559132877E+03  0.92121671417E+02  0.48504200493E+03  0.00000000000E+00 0.  1.
          3    1    6    6  503    0 -0.27710097619E+03  0.95001405122E+02 -0.45479880280E+02  0.29644331244E+03  0.00000000000E+00 0.  1.
         -3    1    6    6    0  503 -0.13768660921E+03 -0.12308233867E+02 -0.42745923858E+02  0.14469384570E+03  0.00000000000E+00 0. -1.
<mgrwt>
<rscale>  0 0.15808532E+04</rscale>
<asrwt>0</asrwt>
<pdfrwt beam="1">  1        2 0.11686493E+00 0.15808532E+04</pdfrwt>
<pdfrwt beam="2">  1       -1 0.12653543E+00 0.15808532E+04</pdfrwt>
<totfact> 0.21958420E+01</totfact>
</mgrwt>
</event>
<event>
12    6  0.1395358E-007  0.3215525E+04  0.7818608E-02  0.8184729E-01
         -1   -1    0    0    0  501 -0.00000000000E+00  0.00000000000E+00  0.10527364169E+04  0.10527364169E+04  0.00000000000E+00 0.  1.
          2   -1    0    0  501    0  0.00000000000E+00 -0.00000000000E+00 -0.24554106634E+04  0.24554106634E+04  0.00000000000E+00 0. -1.
         24    2    1    2    0    0  0.12481709050E+04 -0.20454853385E+03  0.19379917062E+03  0.12819886235E+04  0.78523891570E+02 0.  0.
        254    2    1    2    0    0 -0.12481709050E+04  0.20454853385E+03 -0.15964734171E+04  0.22261584568E+04  0.89848950617E+03 0.  0.
         23    2    4    4    0    0 -0.45736309571E+03 -0.48286517176E+02 -0.12253349572E+04  0.13121062225E+04  0.93082720067E+02 0.  0.
         23    2    4    4    0    0 -0.79080780925E+03  0.25283505103E+03 -0.37113845990E+03  0.91405223430E+03  0.91897641017E+02 0.  0.
          4    1    3    3  502    0  0.85980736828E+03 -0.15799452537E+03  0.10126847834E+03  0.88004902438E+03  0.00000000000E+00 0. -1.
         -3    1    3    3    0  502  0.38836353667E+03 -0.46554008480E+02  0.92530692273E+02  0.40193959911E+03  0.00000000000E+00 0.  1.
         11    1    5    5    0    0 -0.98110696067E+02 -0.33078100932E+02 -0.19422364538E+03  0.22009701013E+03  0.00000000000E+00 0. -1.
        -11    1    5    5    0    0 -0.35925239964E+03 -0.15208416244E+02 -0.10311113118E+04  0.10920092124E+04  0.00000000000E+00 0.  1.
          3    1    6    6  503    0 -0.49146300603E+03  0.19311453448E+03 -0.20428340731E+03  0.56618090769E+03  0.00000000000E+00 0. -1.
         -3    1    6    6    0  503 -0.29934480321E+03  0.59720516546E+02 -0.16685505258E+03  0.34787132661E+03  0.00000000000E+00 0.  1.
<mgrwt>
<rscale>  0 0.32155250E+04</rscale>
<asrwt>0</asrwt>
<pdfrwt beam="1">  1        2 0.37775548E+00 0.32155250E+04</pdfrwt>
<pdfrwt beam="2">  1       -1 0.16195945E+00 0.32155250E+04</pdfrwt>
<totfact> 0.99709552E-01</totfact>
</mgrwt>
</event>
<event>
12    6  0.1395358E-007  0.1170475E+04  0.7818608E-02  0.9139100E-01
          4   -1    0    0  501    0  0.00000000000E+00  0.00000000000E+00  0.39539979313E+03  0.39539979313E+03  0.00000000000E+00 0. -1.
         -3   -1    0    0    0  501 -0.00000000000E+00 -0.00000000000E+00 -0.86621940690E+03  0.86621940690E+03  0.00000000000E+00 0.  1.
         24    2    1    2    0    0  0.27895942668E+02  0.22098090786E+03 -0.43506362961E+02  0.23936206487E+03  0.76096315465E+02 0.  0.
        254    2    1    2    0    0 -0.27895942668E+02 -0.22098090786E+03 -0.42731325081E+03  0.10222571352E+04  0.90155548404E+03 0.  0.
         23    2    4    4    0    0 -0.43089011613E+03  0.15787876269E+02 -0.28490396807E+03  0.52474190949E+03  0.90929925398E+02 0.  0.
         23    2    4    4    0    0  0.40299417346E+03 -0.23676878413E+03 -0.14240928274E+03  0.49751522567E+03  0.93686898650E+02 0.  0.
          2    1    3    3  502    0  0.43427549652E+02  0.10058974286E+03 -0.43742048203E+02  0.11797294274E+03  0.00000000000E+00 0. -1.
         -1    1    3    3    0  502 -0.15531606984E+02  0.12039116500E+03  0.23568524129E+00  0.12138912214E+03  0.00000000000E+00 0.  1.
         11    1    5    5    0    0 -0.21051278284E+03 -0.48352846510E+01 -0.87016215920E+02  0.22783949076E+03  0.00000000000E+00 0. -1.
        -11    1    5    5    0    0 -0.22037733329E+03  0.20623160920E+02 -0.19788775215E+03  0.29690241873E+03  0.00000000000E+00 0.  1.
          4    1    6    6  503    0  0.22830666873E+03 -0.15339907883E+03 -0.12810923057E+03  0.30342575258E+03  0.00000000000E+00 0. -1.
         -4    1    6    6    0  503  0.17468750473E+03 -0.83369705298E+02 -0.14300052170E+02  0.19408947308E+03  0.00000000000E+00 0.  1.
<mgrwt>
<rscale>  0 0.11704751E+04</rscale>
<asrwt>0</asrwt>
<pdfrwt beam="1">  1        4 0.60830738E-01 0.11704751E+04</pdfrwt>
<pdfrwt beam="2">  1       -3 0.13326452E+00 0.11704751E+04</pdfrwt>
<totfact> 0.25090957E+00</totfact>
</mgrwt>
</event>
<event>
12    6  0.1395358E-007  0.3623757E+04  0.7818608E-02  0.8085071E-01
          2   -1    0    0  501    0  0.00000000000E+00  0.00000000000E+00  0.27810874358E+04  0.27810874358E+04  0.00000000000E+00 0. -1.
         -1   -1    0    0    0  501 -0.00000000000E+00 -0.00000000000E+00 -0.11804388416E+04  0.11804388416E+04  0.00000000000E+00 0.  1.
         24    2    1    2    0    0  0.13159576452E+04  0.78165485748E+03  0.15581543324E+04  0.21857130869E+04  0.82267455222E+02 0.  0.
        254    2    1    2    0    0 -0.13159576452E+04 -0.78165485748E+03  0.42494261777E+02  0.17758131905E+04  0.89943197906E+03 0.  0.
         23    2    4    4    0    0 -0.13942256774E+04 -0.75041367107E+03  0.17622766885E+03  0.15957175451E+04  0.90952597929E+02 0.  0.
         23    2    4    4    0    0  0.78268032180E+02 -0.31241186406E+02 -0.13373340707E+03  0.18009564542E+03  0.86301336860E+02 0.  0.
          2    1    3    3  502    0  0.40641062676E+03  0.28525804545E+03  0.51583201549E+03  0.71597794536E+03  0.00000000000E+00 0. -1.
         -1    1    3    3    0  502  0.90954701848E+03  0.49639681203E+03  0.10423223169E+04  0.14697351415E+04  0.00000000000E+00 0.  1.
         11    1    5    5    0    0 -0.74094543779E+03 -0.35077308423E+03  0.74356094959E+02  0.82314684428E+03  0.00000000000E+00 0. -1.
        -11    1    5    5    0    0 -0.65328023963E+03 -0.39964058685E+03  0.10187157389E+03  0.77257070078E+03  0.00000000000E+00 0.  1.
          3    1    6    6  503    0  0.80165534463E+02 -0.25680647142E+02 -0.14484327566E+03  0.16752785755E+03  0.00000000000E+00 0. -1.
         -3    1    6    6    0  503 -0.18975022830E+01 -0.55605392637E+01  0.11109868588E+02  0.12567787867E+02  0.00000000000E+00 0.  1.
<mgrwt>
<rscale>  0 0.36237570E+04</rscale>
<asrwt>0</asrwt>
<pdfrwt beam="1">  1        2 0.42785960E+00 0.36237570E+04</pdfrwt>
<pdfrwt beam="2">  1       -1 0.18160598E+00 0.36237570E+04</pdfrwt>
<totfact> 0.44441845E-01</totfact>
</mgrwt>
</event>
<event>
12    6  0.1395358E-007  0.2184006E+04  0.7818608E-02  0.8525115E-01
          2   -1    0    0  501    0  0.00000000000E+00  0.00000000000E+00  0.25298459530E+04  0.25298459530E+04  0.00000000000E+00 0. -1.
         -1   -1    0    0    0  501 -0.00000000000E+00 -0.00000000000E+00 -0.47136113991E+03  0.47136113991E+03  0.00000000000E+00 0.  1.
         24    2    1    2    0    0  0.50932614700E+03  0.66818583602E+03  0.39579056928E+03  0.93210852740E+03  0.79313912097E+02 0.  0.
        254    2    1    2    0    0 -0.50932614700E+03 -0.66818583602E+03  0.16626942438E+04  0.20690985655E+04  0.90040618050E+03 0.  0.
         23    2    4    4    0    0 -0.64766563881E+03 -0.13911871220E+03  0.10302805539E+04  0.12282742770E+04  0.91405054293E+02 0.  0.
         23    2    4    4    0    0  0.13833949181E+03 -0.52906712382E+03  0.63241368991E+03  0.84082428853E+03  0.89378814527E+02 0.  0.
          2    1    3    3  502    0  0.13053255452E+03  0.22834844798E+03  0.10996084720E+03  0.28508446012E+03  0.00000000000E+00 0. -1.
         -1    1    3    3    0  502  0.37879359248E+03  0.43983738805E+03  0.28582972208E+03  0.64702406729E+03  0.00000000000E+00 0.  1.
         11    1    5    5    0    0 -0.13009901182E+03 -0.26910546383E+02  0.27993194068E+03  0.30985774445E+03  0.00000000000E+00 0. -1.
        -11    1    5    5    0    0 -0.51756662699E+03 -0.11220816582E+03  0.75034861320E+03  0.91841653250E+03  0.00000000000E+00 0.  1.
          3    1    6    6  503    0  0.49703647567E+02 -0.32706069175E+03  0.41940546359E+03  0.53417234256E+03  0.00000000000E+00 0. -1.
         -3    1    6    6    0  503  0.88635844246E+02 -0.20200643207E+03  0.21300822632E+03  0.30665194597E+03  0.00000000000E+00 0.  1.
<mgrwt>
<rscale>  0 0.21840065E+04</rscale>
<asrwt>0</asrwt>
<pdfrwt beam="1">  1        2 0.38920706E+00 0.21840065E+04</pdfrwt>
<pdfrwt beam="2">  1       -1 0.72517100E-01 0.21840065E+04</pdfrwt>
<totfact> 0.66828243E+00</totfact>
</mgrwt>
</event>
<event>
12    6  0.1395358E-007  0.1586259E+04  0.7818608E-02  0.8829034E-01
         -1   -1    0    0    0  501 -0.00000000000E+00  0.00000000000E+00  0.55755002954E+03  0.55755002954E+03  0.00000000000E+00 0.  1.
          2   -1    0    0  501    0  0.00000000000E+00 -0.00000000000E+00 -0.11282479045E+04  0.11282479045E+04  0.00000000000E+00 0. -1.
         24    2    1    2    0    0  0.35822720371E+03 -0.25084540573E+03 -0.51961552167E+03  0.68383902479E+03  0.79908537757E+02 0.  0.
        254    2    1    2    0    0 -0.35822720371E+03  0.25084540573E+03 -0.51082353287E+02  0.10019589092E+04  0.90003450042E+03 0.  0.
         23    2    4    4    0    0 -0.85261629918E+02  0.10606076797E+02  0.39757213164E+03  0.41688702813E+03  0.91373737827E+02 0.  0.
         23    2    4    4    0    0 -0.27296557380E+03  0.24023932893E+03 -0.44865448492E+03  0.58507188112E+03  0.93771635344E+02 0.  0.
          2    1    3    3  502    0  0.22636810227E+03 -0.20340103749E+03 -0.36251294132E+03  0.47331821474E+03  0.00000000000E+00 0. -1.
         -1    1    3    3    0  502  0.13185910145E+03 -0.47444368234E+02 -0.15710258035E+03  0.21052081005E+03  0.00000000000E+00 0.  1.
         11    1    5    5    0    0 -0.91275378527E+02  0.30650638641E+02  0.36970345737E+03  0.38203573493E+03  0.00000000000E+00 0. -1.
        -11    1    5    5    0    0  0.60137486082E+01 -0.20044561845E+02  0.27868674266E+02  0.34851293193E+02  0.00000000000E+00 0.  1.
          3    1    6    6  503    0 -0.23395519577E+03  0.16034757627E+03 -0.37120556593E+03  0.46716158984E+03  0.00000000000E+00 0. -1.
         -3    1    6    6    0  503 -0.39010378024E+02  0.79891752663E+02 -0.77448918992E+02  0.11791029128E+03  0.00000000000E+00 0.  1.
<mgrwt>
<rscale>  0 0.15862593E+04</rscale>
<asrwt>0</asrwt>
<pdfrwt beam="1">  1        2 0.17357660E+00 0.15862593E+04</pdfrwt>
<pdfrwt beam="2">  1       -1 0.85776929E-01 0.15862593E+04</pdfrwt>
<totfact> 0.30764775E+01</totfact>
</mgrwt>
</event>
<event>
12    6  0.1395358E-007  0.1736991E+04  0.7818608E-02  0.8740544E-01
         -1   -1    0    0    0  501 -0.00000000000E+00  0.00000000000E+00  0.35443583511E+03  0.35443583511E+03  0.00000000000E+00 0.  1.
          2   -1    0    0  501    0  0.00000000000E+00 -0.00000000000E+00 -0.21281278571E+04  0.21281278571E+04  0.00000000000E+00 0. -1.
         24    2    1    2    0    0  0.22108822064E+02  0.14877422587E+03  0.22687724361E+03  0.28396316707E+03  0.80865482676E+02 0.  0.
        254    2    1    2    0    0 -0.22108822064E+02 -0.14877422587E+03 -0.20005692656E+04  0.21986005252E+04  0.89941331568E+03 0.  0.
         23    2    4    4    0    0 -0.21938622868E+03  0.23319728229E+03 -0.14815188786E+04  0.15185157322E+04  0.92089910661E+02 0.  0.
         23    2    4    4    0    0  0.19727740661E+03 -0.38197150816E+03 -0.51905038703E+03  0.68008479292E+03  0.91002269670E+02 0.  0.
          2    1    3    3  502    0  0.19160172204E+00  0.10968125988E+03  0.96472261467E+02  0.14607160132E+03  0.00000000000E+00 0. -1.
         -1    1    3    3    0  502  0.21917220342E+02  0.39092965992E+02  0.13040498214E+03  0.13789156575E+03  0.00000000000E+00 0.  1.
         11    1    5    5    0    0 -0.76344298955E+02  0.40587295055E+02 -0.54172815315E+03  0.54858469941E+03  0.00000000000E+00 0. -1.
        -11    1    5    5    0    0 -0.14304192972E+03  0.19260998724E+03 -0.93979072543E+03  0.96993103283E+03  0.00000000000E+00 0.  1.
          2    1    6    6  503    0  0.14270966619E+02 -0.85050290666E+02 -0.14453620795E+03  0.16830902483E+03  0.00000000000E+00 0.  1.
         -2    1    6    6    0  503  0.18300643999E+03 -0.29692121750E+03 -0.37451417908E+03  0.51177576810E+03  0.00000000000E+00 0. -1.
<mgrwt>
<rscale>  0 0.17369914E+04</rscale>
<asrwt>0</asrwt>
<pdfrwt beam="1">  1        2 0.32740428E+00 0.17369914E+04</pdfrwt>
<pdfrwt beam="2">  1       -1 0.54528591E-01 0.17369914E+04</pdfrwt>
<totfact> 0.20807834E+01</totfact>
</mgrwt>
</event>
<event>
12    6  0.1395358E-007  0.1229658E+04  0.7818608E-02  0.9087286E-01
          2   -1    0    0  501    0  0.00000000000E+00  0.00000000000E+00  0.18357042850E+04  0.18357042850E+04  0.00000000000E+00 0. -1.
         -1   -1    0    0    0  501 -0.00000000000E+00 -0.00000000000E+00 -0.20592352116E+03  0.20592352116E+03  0.00000000000E+00 0.  1.
         24    2    1    2    0    0  0.20335605009E+03 -0.48954570680E+02  0.67737826118E+03  0.71326428969E+03  0.78450016785E+02 0.  0.
        254    2    1    2    0    0 -0.20335605009E+03  0.48954570680E+02  0.95240250265E+03  0.13283635165E+04  0.90206921670E+03 0.  0.
         23    2    4    4    0    0 -0.49483077741E+03 -0.52058285843E+02  0.26660264527E+03  0.57118536631E+03  0.87224932351E+02 0.  0.
         23    2    4    4    0    0  0.29147472732E+03  0.10101285652E+03  0.68579985738E+03  0.75717815015E+03  0.88522273151E+02 0.  0.
          2    1    3    3  502    0  0.58180961197E+01 -0.25064747856E+01  0.11878279372E+03  0.11895160672E+03  0.00000000000E+00 0. -1.
         -1    1    3    3    0  502  0.19753795397E+03 -0.46448095895E+02  0.55859546746E+03  0.59431268297E+03  0.00000000000E+00 0.  1.
         11    1    5    5    0    0 -0.28078167903E+03 -0.10627435376E+02  0.19377687382E+03  0.34132209200E+03  0.00000000000E+00 0.  1.
        -11    1    5    5    0    0 -0.21404909838E+03 -0.41430850467E+02  0.72825771454E+02  0.22986327431E+03  0.00000000000E+00 0. -1.
          1    1    6    6  503    0  0.40466873610E+02 -0.16444378697E+02  0.86424271832E+02  0.96835635033E+02  0.00000000000E+00 0.  1.
         -1    1    6    6    0  503  0.25100785371E+03  0.11745723522E+03  0.59937558554E+03  0.66034251512E+03  0.00000000000E+00 0. -1.
<mgrwt>
<rscale>  0 0.12296580E+04</rscale>
<asrwt>0</asrwt>
<pdfrwt beam="1">  1        2 0.28241603E+00 0.12296580E+04</pdfrwt>
<pdfrwt beam="2">  1       -1 0.31680543E-01 0.12296580E+04</pdfrwt>
<totfact> 0.85752006E+01</totfact>
</mgrwt>
</event>
<event>
12    6  0.1395358E-007  0.2744130E+04  0.7818608E-02  0.8320827E-01
         -1   -1    0    0    0  501 -0.00000000000E+00  0.00000000000E+00  0.85765584263E+03  0.85765584263E+03  0.00000000000E+00 0.  1.
          2   -1    0    0  501    0  0.00000000000E+00 -0.00000000000E+00 -0.21950096405E+04  0.21950096405E+04  0.00000000000E+00 0. -1.
         24    2    1    2    0    0  0.14360102772E+03 -0.88561240780E+03 -0.15235955817E+04  0.17698885166E+04  0.78938409319E+02 0.  0.
        254    2    1    2    0    0 -0.14360102772E+03  0.88561240780E+03  0.18624178388E+03  0.12827769665E+04  0.89771941705E+03 0.  0.
         23    2    4    4    0    0  0.28231775222E+02 -0.17169954765E+03  0.13540456679E+02  0.19399807863E+03  0.84700311395E+02 0.  0.
         23    2    4    4    0    0 -0.17183280294E+03  0.10573119554E+04  0.17270132720E+03  0.10887788879E+04  0.90435805880E+02 0.  0.
          4    1    3    3  502    0  0.12388545556E+03 -0.55433426753E+03 -0.99671894463E+03  0.11472064944E+04  0.00000000000E+00 0. -1.
         -3    1    3    3    0  502  0.19715572163E+02 -0.33127814027E+03 -0.52687663710E+03  0.62268202217E+03  0.00000000000E+00 0.  1.
         11    1    5    5    0    0 -0.25034574963E+02 -0.42141366432E+02 -0.14545978842E+02  0.51129347823E+02  0.00000000000E+00 0. -1.
        -11    1    5    5    0    0  0.53266350186E+02 -0.12955818122E+03  0.28086435521E+02  0.14286873081E+03  0.00000000000E+00 0.  1.
          3    1    6    6  503    0 -0.83188689412E+02  0.63212644427E+03  0.62125422797E+02  0.64059641565E+03  0.00000000000E+00 0. -1.
         -3    1    6    6    0  503 -0.88644113531E+02  0.42518551118E+03  0.11057590441E+03  0.44818247223E+03  0.00000000000E+00 0.  1.
<mgrwt>
<rscale>  0 0.27441303E+04</rscale>
<asrwt>0</asrwt>
<pdfrwt beam="1">  1        2 0.33769378E+00 0.27441303E+04</pdfrwt>
<pdfrwt beam="2">  1       -1 0.13194706E+00 0.27441303E+04</pdfrwt>
<totfact> 0.25231656E+00</totfact>
</mgrwt>
</event>
<event>
12    6  0.1395358E-007  0.1695009E+04  0.7818608E-02  0.8764216E-01
         -3   -1    0    0    0  501 -0.00000000000E+00  0.00000000000E+00  0.61414039799E+03  0.61414039799E+03  0.00000000000E+00 0.  1.
          2   -1    0    0  501    0  0.00000000000E+00 -0.00000000000E+00 -0.11695439057E+04  0.11695439057E+04  0.00000000000E+00 0. -1.
         24    2    1    2    0    0  0.40787317385E+03 -0.12974811928E+03  0.25051049490E+03  0.50247056132E+03  0.80784011576E+02 0.  0.
        254    2    1    2    0    0 -0.40787317385E+03  0.12974811928E+03 -0.80591400264E+03  0.12812137424E+04  0.89934207821E+03 0.  0.
         23    2    4    4    0    0 -0.19013180039E+02  0.46376243510E+03 -0.35216826601E+03  0.58956519286E+03  0.90152824812E+02 0.  0.
         23    2    4    4    0    0 -0.38885999381E+03 -0.33401431582E+03 -0.45374573663E+03  0.69164854953E+03  0.98564012697E+02 0.  0.
          2    1    3    3  502    0  0.96273498513E+02 -0.24577210591E+02  0.21335625465E+02  0.10162595491E+03  0.00000000000E+00 0. -1.
         -1    1    3    3    0  502  0.31159967534E+03 -0.10517090869E+03  0.22917486944E+03  0.40084460641E+03  0.00000000000E+00 0.  1.
         11    1    5    5    0    0  0.13544202502E+02  0.31206495389E+03 -0.27554096159E+03  0.41652227117E+03  0.00000000000E+00 0. -1.
        -11    1    5    5    0    0 -0.32557382542E+02  0.15169748121E+03 -0.76627304417E+02  0.17304292169E+03  0.00000000000E+00 0.  1.
          4    1    6    6  503    0 -0.29857511212E+03 -0.27014039536E+03 -0.29935440614E+03  0.50173298801E+03  0.00000000000E+00 0. -1.
         -4    1    6    6    0  503 -0.90284881690E+02 -0.63873920462E+02 -0.15439133049E+03  0.18991556152E+03  0.00000000000E+00 0.  1.
<mgrwt>
<rscale>  0 0.16950093E+04</rscale>
<asrwt>0</asrwt>
<pdfrwt beam="1">  1        2 0.17992983E+00 0.16950093E+04</pdfrwt>
<pdfrwt beam="2">  1       -3 0.94483140E-01 0.16950093E+04</pdfrwt>
<totfact> 0.11909467E+01</totfact>
</mgrwt>
</event>
<event>
12    6  0.1395358E-007  0.2404340E+04  0.7818608E-02  0.8437880E-01
          2   -1    0    0  501    0  0.00000000000E+00  0.00000000000E+00  0.76891577375E+03  0.76891577375E+03  0.00000000000E+00 0. -1.
         -1   -1    0    0    0  501 -0.00000000000E+00 -0.00000000000E+00 -0.18795464955E+04  0.18795464955E+04  0.00000000000E+00 0.  1.
         24    2    1    2    0    0  0.64187911300E+03  0.55012042251E+03 -0.11275846777E+04  0.14115365238E+04  0.79667293367E+02 0.  0.
        254    2    1    2    0    0 -0.64187911300E+03 -0.55012042251E+03  0.16953955954E+02  0.12369257455E+04  0.90280484503E+03 0.  0.
         23    2    4    4    0    0 -0.34597124165E+03  0.91964469311E+02  0.29422948989E+03  0.47146617062E+03  0.86924068332E+02 0.  0.
         23    2    4    4    0    0 -0.29590787134E+03 -0.64208489182E+03 -0.27727553394E+03  0.76545957484E+03  0.95980010231E+02 0.  0.
          4    1    3    3  502    0  0.66772313696E+02  0.29529639985E+02 -0.85767713062E+02  0.11263499509E+03  0.00000000000E+00 0. -1.
         -3    1    3    3    0  502  0.57510679930E+03  0.52059078253E+03 -0.10418169647E+04  0.12989015287E+04  0.00000000000E+00 0.  1.
         11    1    5    5    0    0 -0.47353443053E+02  0.70177875003E+01  0.83467608294E+02  0.96220785409E+02  0.00000000000E+00 0.  1.
        -11    1    5    5    0    0 -0.29861779860E+03  0.84946681811E+02  0.21076188160E+03  0.37524538522E+03  0.00000000000E+00 0. -1.
          1    1    6    6  503    0 -0.21172898288E+03 -0.54664157603E+03 -0.22791065528E+03  0.62895901426E+03  0.00000000000E+00 0. -1.
         -1    1    6    6    0  503 -0.84178888462E+02 -0.95443315795E+02 -0.49364878662E+02  0.13650056058E+03  0.00000000000E+00 0.  1.
<mgrwt>
<rscale>  0 0.24043402E+04</rscale>
<asrwt>0</asrwt>
<pdfrwt beam="1">  1        2 0.11829474E+00 0.24043402E+04</pdfrwt>
<pdfrwt beam="2">  1       -1 0.28916100E+00 0.24043402E+04</pdfrwt>
<totfact> 0.14452949E+00</totfact>
</mgrwt>
</event>
<event>
12    6  0.1395358E-007  0.1585909E+04  0.7818608E-02  0.8829252E-01
         -1   -1    0    0    0  501 -0.00000000000E+00  0.00000000000E+00  0.22800911267E+03  0.22800911267E+03  0.00000000000E+00 0.  1.
          2   -1    0    0  501    0  0.00000000000E+00 -0.00000000000E+00 -0.27576818859E+04  0.27576818859E+04  0.00000000000E+00 0. -1.
         24    2    1    2    0    0  0.29129623702E+03  0.43291925405E+03 -0.65455425335E+03  0.84076196503E+03  0.78529185899E+02 0.  0.
        254    2    1    2    0    0 -0.29129623702E+03 -0.43291925405E+03 -0.18751185199E+04  0.21449290336E+04  0.90132042975E+03 0.  0.
         23    2    4    4    0    0 -0.24857990683E+03  0.19387584977E+03 -0.28930832135E+03  0.43679461346E+03  0.87808965064E+02 0.  0.
         23    2    4    4    0    0 -0.42716330182E+02 -0.62679510381E+03 -0.15858101986E+04  0.17081344201E+04  0.90732707610E+02 0.  0.
          2    1    3    3  502    0  0.14245266521E+03  0.20574061138E+03 -0.37646468408E+03  0.45204824892E+03  0.00000000000E+00 0. -1.
         -1    1    3    3    0  502  0.14884357181E+03  0.22717864266E+03 -0.27808956928E+03  0.38871371611E+03  0.00000000000E+00 0.  1.
         11    1    5    5    0    0 -0.97211812860E+02  0.49485869283E+02 -0.14997393683E+03  0.18544856307E+03  0.00000000000E+00 0. -1.
        -11    1    5    5    0    0 -0.15136809397E+03  0.14438998048E+03 -0.13933438452E+03  0.25134605039E+03  0.00000000000E+00 0.  1.
          1    1    6    6  503    0  0.17802584955E+00 -0.45453460077E+03 -0.10664983632E+04  0.11593189784E+04  0.00000000000E+00 0. -1.
         -1    1    6    6    0  503 -0.42894356032E+02 -0.17226050304E+03 -0.51931183539E+03  0.54881544172E+03  0.00000000000E+00 0.  1.
<mgrwt>
<rscale>  0 0.15859087E+04</rscale>
<asrwt>0</asrwt>
<pdfrwt beam="1">  1        2 0.42425876E+00 0.15859087E+04</pdfrwt>
<pdfrwt beam="2">  1       -1 0.35078324E-01 0.15859087E+04</pdfrwt>
<totfact> 0.20803114E+01</totfact>
</mgrwt>
</event>
<event>
12    6  0.1395358E-007  0.2149183E+04  0.7818608E-02  0.8539882E-01
         -1   -1    0    0    0  501 -0.00000000000E+00  0.00000000000E+00  0.58151139395E+03  0.58151139395E+03  0.00000000000E+00 0.  1.
          2   -1    0    0  501    0  0.00000000000E+00 -0.00000000000E+00 -0.19857676128E+04  0.19857676128E+04  0.00000000000E+00 0. -1.
         24    2    1    2    0    0  0.56272097749E+03  0.65866635165E+03 -0.79445673128E+03  0.11781225317E+04  0.79466599731E+02 0.  0.
        254    2    1    2    0    0 -0.56272097749E+03 -0.65866635165E+03 -0.60979948762E+03  0.13891564751E+04  0.89855664038E+03 0.  0.
         23    2    4    4    0    0 -0.49436055976E+03 -0.11610531478E+03  0.59062372881E+02  0.51998675926E+03  0.95000309161E+02 0.  0.
         23    2    4    4    0    0 -0.68360417723E+02 -0.54256103687E+03 -0.66886186050E+03  0.86916971586E+03  0.95048309322E+02 0.  0.
          2    1    3    3  502    0  0.32074658798E+03  0.39165795768E+03 -0.41249713486E+03  0.65301471330E+03  0.00000000000E+00 0. -1.
         -1    1    3    3    0  502  0.24197438950E+03  0.26700839397E+03 -0.38195959642E+03  0.52510781838E+03  0.00000000000E+00 0.  1.
         11    1    5    5    0    0 -0.67464921970E+02  0.69100389418E+01 -0.15345424980E+02  0.69532340694E+02  0.00000000000E+00 0. -1.
        -11    1    5    5    0    0 -0.42689563779E+03 -0.12301535373E+03  0.74407797862E+02  0.45045441856E+03  0.00000000000E+00 0.  1.
          1    1    6    6  503    0  0.99390158200E+01 -0.80166702994E+02 -0.59972861425E+02  0.10060928591E+03  0.00000000000E+00 0. -1.
         -1    1    6    6    0  503 -0.78299433543E+02 -0.46239433387E+03 -0.60888899908E+03  0.76856042995E+03  0.00000000000E+00 0.  1.
<mgrwt>
<rscale>  0 0.21491826E+04</rscale>
<asrwt>0</asrwt>
<pdfrwt beam="1">  1        2 0.30550271E+00 0.21491826E+04</pdfrwt>
<pdfrwt beam="2">  1       -1 0.89463292E-01 0.21491826E+04</pdfrwt>
<totfact> 0.87011595E+00</totfact>
</mgrwt>
</event>
<event>
12    6  0.1395358E-007  0.1818726E+04  0.7818608E-02  0.8696404E-01
         -1   -1    0    0    0  501 -0.00000000000E+00  0.00000000000E+00  0.83070789443E+03  0.83070789443E+03  0.00000000000E+00 0.  1.
          2   -1    0    0  501    0  0.00000000000E+00 -0.00000000000E+00 -0.99546507344E+03  0.99546507344E+03  0.00000000000E+00 0. -1.
         24    2    1    2    0    0  0.61977412920E+03  0.27904748983E+02  0.22787114070E+03  0.66598166512E+03  0.81900398426E+02 0.  0.
        254    2    1    2    0    0 -0.61977412920E+03 -0.27904748983E+02 -0.39262831972E+03  0.11601913028E+04  0.89832522802E+03 0.  0.
         23    2    4    4    0    0 -0.65966510733E+03 -0.32650420434E+03 -0.40297146195E+03  0.84536700416E+03  0.10245156564E+03 0.  0.
         23    2    4    4    0    0  0.39890978123E+02  0.29859945535E+03  0.10343142231E+02  0.31482429860E+03  0.90853913098E+02 0.  0.
          2    1    3    3  502    0  0.38314614745E+03  0.50783067934E+02  0.11815725431E+03  0.40415470682E+03  0.00000000000E+00 0. -1.
         -1    1    3    3    0  502  0.23662798175E+03 -0.22878318951E+02  0.10971388639E+03  0.26182695830E+03  0.00000000000E+00 0.  1.
         11    1    5    5    0    0 -0.92697330445E+02 -0.76832081668E+02 -0.95944935057E+02  0.15395257194E+03  0.00000000000E+00 0. -1.
        -11    1    5    5    0    0 -0.56696777688E+03 -0.24967212267E+03 -0.30702652689E+03  0.69141443221E+03  0.00000000000E+00 0.  1.
          1    1    6    6  503    0  0.66421720153E+01  0.13676486076E+03  0.48497731986E+02  0.14526106015E+03  0.00000000000E+00 0. -1.
         -1    1    6    6    0  503  0.33248806108E+02  0.16183459460E+03 -0.38154589755E+02  0.16956323845E+03  0.00000000000E+00 0.  1.
<mgrwt>
<rscale>  0 0.18187256E+04</rscale>
<asrwt>0</asrwt>
<pdfrwt beam="1">  1        2 0.15314847E+00 0.18187256E+04</pdfrwt>
<pdfrwt beam="2">  1       -1 0.12780121E+00 0.18187256E+04</pdfrwt>
<totfact> 0.14440271E+01</totfact>
</mgrwt>
</event>
<event>
12    6  0.1395358E-007  0.2118030E+04  0.7818608E-02  0.8553342E-01
         -1   -1    0    0    0  501 -0.00000000000E+00  0.00000000000E+00  0.40499001157E+03  0.40499001157E+03  0.00000000000E+00 0.  1.
          2   -1    0    0  501    0  0.00000000000E+00 -0.00000000000E+00 -0.27692354030E+04  0.27692354030E+04  0.00000000000E+00 0. -1.
         24    2    1    2    0    0 -0.84785637944E+03 -0.17098650210E+03 -0.99730413874E+03  0.13223704032E+04  0.77143463339E+02 0.  0.
        254    2    1    2    0    0  0.84785637944E+03  0.17098650210E+03 -0.13669412526E+04  0.18518550114E+04  0.90152191925E+03 0.  0.
         23    2    4    4    0    0 -0.63522069668E+02  0.22003551551E+03 -0.58784619757E+02  0.25382257278E+03  0.92301600808E+02 0.  0.
         23    2    4    4    0    0  0.91137844911E+03 -0.49049013410E+02 -0.13081566329E+04  0.15980324386E+04  0.97043368723E+02 0.  0.
          2    1    3    3  502    0 -0.41612819353E+03 -0.58592329457E+02 -0.43890401194E+03  0.60764501662E+03  0.00000000000E+00 0. -1.
         -1    1    3    3    0  502 -0.43172818591E+03 -0.11239417264E+03 -0.55840012680E+03  0.71472538654E+03  0.00000000000E+00 0.  1.
         11    1    5    5    0    0 -0.32483764078E+02  0.21053910443E+03 -0.41450643575E+02  0.21702549453E+03  0.00000000000E+00 0. -1.
        -11    1    5    5    0    0 -0.31038305590E+02  0.94964110762E+01 -0.17333976183E+02  0.36797078247E+02  0.00000000000E+00 0.  1.
          1    1    6    6  503    0  0.55027823059E+03 -0.22171953928E+02 -0.86942019915E+03  0.10291691840E+04  0.00000000000E+00 0. -1.
         -1    1    6    6    0  503  0.36110021851E+03 -0.26877059482E+02 -0.43873643374E+03  0.56886325460E+03  0.00000000000E+00 0.  1.
<mgrwt>
<rscale>  0 0.21180299E+04</rscale>
<asrwt>0</asrwt>
<pdfrwt beam="1">  1        2 0.42603623E+00 0.21180299E+04</pdfrwt>
<pdfrwt beam="2">  1       -1 0.62306153E-01 0.21180299E+04</pdfrwt>
<totfact> 0.66096586E+00</totfact>
</mgrwt>
</event>
<event>
12    6  0.1395358E-007  0.2080532E+04  0.7818608E-02  0.8569868E-01
         -1   -1    0    0    0  501 -0.00000000000E+00  0.00000000000E+00  0.10836652848E+04  0.10836652848E+04  0.00000000000E+00 0.  1.
          2   -1    0    0  501    0  0.00000000000E+00 -0.00000000000E+00 -0.99860479108E+03  0.99860479108E+03  0.00000000000E+00 0. -1.
         24    2    1    2    0    0 -0.63096005384E+02  0.74327142677E+03 -0.36003909512E+03  0.83187951834E+03  0.77213102951E+02 0.  0.
        254    2    1    2    0    0  0.63096005384E+02 -0.74327142677E+03  0.44509958884E+03  0.12503905575E+04  0.89940501592E+03 0.  0.
         23    2    4    4    0    0  0.30898546494E+03 -0.49700390461E+03 -0.96123836493E+02  0.60049670496E+03  0.94189181900E+02 0.  0.
         23    2    4    4    0    0 -0.24588945956E+03 -0.24626752216E+03  0.54122342534E+03  0.64989385258E+03  0.91268311594E+02 0.  0.
          4    1    3    3  502    0 -0.76894490585E+02  0.52717229088E+03 -0.27144233683E+03  0.59791665738E+03  0.00000000000E+00 0. -1.
         -3    1    3    3    0  502  0.13798485201E+02  0.21609913589E+03 -0.88596758294E+02  0.23396286096E+03  0.00000000000E+00 0.  1.
         11    1    5    5    0    0  0.15086576962E+03 -0.32275064621E+03 -0.39288324690E+02  0.35842995484E+03  0.00000000000E+00 0.  1.
        -11    1    5    5    0    0  0.15811969532E+03 -0.17425325840E+03 -0.56835511803E+02  0.24206675012E+03  0.00000000000E+00 0. -1.
          1    1    6    6  503    0 -0.44063269809E+02 -0.10359137006E+03  0.16495988510E+03  0.19971105976E+03  0.00000000000E+00 0. -1.
         -1    1    6    6    0  503 -0.20182618975E+03 -0.14267615210E+03  0.37626354023E+03  0.45018279282E+03  0.00000000000E+00 0.  1.
<mgrwt>
<rscale>  0 0.20805320E+04</rscale>
<asrwt>0</asrwt>
<pdfrwt beam="1">  1        2 0.15363151E+00 0.20805320E+04</pdfrwt>
<pdfrwt beam="2">  1       -1 0.16671774E+00 0.20805320E+04</pdfrwt>
<totfact> 0.69146863E+00</totfact>
</mgrwt>
</event>
<event>
12    6  0.1395358E-007  0.1410770E+04  0.7818608E-02  0.8946059E-01
         -1   -1    0    0    0  501 -0.00000000000E+00  0.00000000000E+00  0.54867626835E+03  0.54867626835E+03  0.00000000000E+00 0.  1.
          2   -1    0    0  501    0  0.00000000000E+00 -0.00000000000E+00 -0.90685172568E+03  0.90685172568E+03  0.00000000000E+00 0. -1.
         24    2    1    2    0    0 -0.20954216304E+03 -0.27194920231E+02  0.25977068371E+03  0.34404118529E+03  0.78968647450E+02 0.  0.
        254    2    1    2    0    0  0.20954216304E+03  0.27194920231E+02 -0.61794614104E+03  0.11114868087E+04  0.89938757553E+03 0.  0.
         23    2    4    4    0    0 -0.82216714358E+01  0.72299214930E+02 -0.79975234884E+03  0.80834042637E+03  0.92280296168E+02 0.  0.
         23    2    4    4    0    0  0.21776383448E+03 -0.45104294699E+02  0.18180620781E+03  0.30314638238E+03  0.96895546564E+02 0.  0.
          4    1    3    3  502    0 -0.15936078234E+03 -0.61262195768E+01  0.13891591821E+03  0.21149709654E+03  0.00000000000E+00 0. -1.
         -3    1    3    3    0  502 -0.50181380702E+02 -0.21068700655E+02  0.12085476550E+03  0.13254408875E+03  0.00000000000E+00 0.  1.
         11    1    5    5    0    0  0.39672804702E+02  0.16207094855E+02 -0.24724953199E+03  0.25093611224E+03  0.00000000000E+00 0. -1.
        -11    1    5    5    0    0 -0.47894476138E+02  0.56092120075E+02 -0.55250281686E+03  0.55740431413E+03  0.00000000000E+00 0.  1.
          2    1    6    6  503    0  0.17816875383E+03  0.14322408795E+01  0.15600684611E+03  0.23682122411E+03  0.00000000000E+00 0. -1.
         -2    1    6    6    0  503  0.39595080654E+02 -0.46536535578E+02  0.25799361691E+02  0.66325158268E+02  0.00000000000E+00 0.  1.
<mgrwt>
<rscale>  0 0.14107700E+04</rscale>
<asrwt>0</asrwt>
<pdfrwt beam="1">  1        2 0.13951565E+00 0.14107700E+04</pdfrwt>
<pdfrwt beam="2">  1       -1 0.84411735E-01 0.14107700E+04</pdfrwt>
<totfact> 0.44767953E+01</totfact>
</mgrwt>
</event>
<event>
12    6  0.1395358E-007  0.2706806E+04  0.7818608E-02  0.8332800E-01
          2   -1    0    0  501    0  0.00000000000E+00  0.00000000000E+00  0.20319885154E+04  0.20319885154E+04  0.00000000000E+00 0. -1.
         -1   -1    0    0    0  501 -0.00000000000E+00 -0.00000000000E+00 -0.90143213682E+03  0.90143213682E+03  0.00000000000E+00 0.  1.
         24    2    1    2    0    0  0.10557643348E+04  0.45154493474E+03  0.11610799966E+03  0.11567616498E+04  0.78008255995E+02 0.  0.
        254    2    1    2    0    0 -0.10557643348E+04 -0.45154493474E+03  0.10144483789E+04  0.17766590025E+04  0.89937786210E+03 0.  0.
         23    2    4    4    0    0 -0.12018028582E+04 -0.43815978737E+03  0.93646941213E+03  0.15879663938E+04  0.91368478252E+02 0.  0.
         23    2    4    4    0    0  0.14603852342E+03 -0.13385147377E+02  0.77978966810E+02  0.18869260864E+03  0.89541994611E+02 0.  0.
          2    1    3    3  502    0  0.76246540790E+02  0.19456189658E+02  0.23763947216E+02  0.82199777893E+02  0.00000000000E+00 0. -1.
         -1    1    3    3    0  502  0.97951779402E+03  0.43208874509E+03  0.92344052443E+02  0.10745618719E+04  0.00000000000E+00 0.  1.
         11    1    5    5    0    0 -0.75656795517E+03 -0.26376048974E+03  0.63881603484E+03  0.10247197632E+04  0.00000000000E+00 0. -1.
        -11    1    5    5    0    0 -0.44523490306E+03 -0.17439929762E+03  0.29765337729E+03  0.56324663064E+03  0.00000000000E+00 0.  1.
          3    1    6    6  503    0  0.76521419437E+00 -0.25834511466E+02  0.87539881842E+01  0.27288089793E+02  0.00000000000E+00 0. -1.
         -3    1    6    6    0  503  0.14527330922E+03  0.12449364089E+02  0.69224978626E+02  0.16140451885E+03  0.00000000000E+00 0.  1.
<mgrwt>
<rscale>  0 0.27068061E+04</rscale>
<asrwt>0</asrwt>
<pdfrwt beam="1">  1        2 0.31261362E+00 0.27068061E+04</pdfrwt>
<pdfrwt beam="2">  1       -1 0.13868187E+00 0.27068061E+04</pdfrwt>
<totfact> 0.27481996E+00</totfact>
</mgrwt>
</event>
<event>
12    6  0.1395358E-007  0.4779174E+04  0.7818608E-02  0.7863505E-01
         -1   -1    0    0    0  501 -0.00000000000E+00  0.00000000000E+00  0.14000338537E+04  0.14000338537E+04  0.00000000000E+00 0.  1.
          2   -1    0    0  501    0  0.00000000000E+00 -0.00000000000E+00 -0.40785629368E+04  0.40785629368E+04  0.00000000000E+00 0. -1.
         24    2    1    2    0    0 -0.20525737636E+04  0.22869548118E+03 -0.24631673923E+04  0.32154036558E+04  0.79160524907E+02 0.  0.
        254    2    1    2    0    0  0.20525737636E+04 -0.22869548118E+03 -0.21536169079E+03  0.22631931348E+04  0.90016766731E+03 0.  0.
         23    2    4    4    0    0  0.12277595068E+04  0.28759362004E+03 -0.23533181641E+03  0.12856636636E+04  0.86293077170E+02 0.  0.
         23    2    4    4    0    0  0.82481425685E+03 -0.51628910122E+03  0.19970125624E+02  0.97752947125E+03  0.91060786849E+02 0.  0.
          2    1    3    3  502    0 -0.12802436747E+04  0.17678762494E+03 -0.15680710955E+04  0.20320247763E+04  0.00000000000E+00 0. -1.
         -1    1    3    3    0  502 -0.77233008889E+03  0.51907856237E+02 -0.89509629679E+03  0.11833788794E+04  0.00000000000E+00 0.  1.
         11    1    5    5    0    0  0.66881034100E+03  0.13751472594E+03 -0.87920924046E+02  0.68843856732E+03  0.00000000000E+00 0. -1.
        -11    1    5    5    0    0  0.55894916578E+03  0.15007889411E+03 -0.14741089237E+03  0.59722509623E+03  0.00000000000E+00 0.  1.
          1    1    6    6  503    0  0.52076699187E+02 -0.42616978763E+02 -0.20264221877E+02  0.70276796778E+02  0.00000000000E+00 0. -1.
         -1    1    6    6    0  503  0.77273755766E+03 -0.47367212246E+03  0.40234347502E+02  0.90725267447E+03  0.00000000000E+00 0.  1.
<mgrwt>
<rscale>  0 0.47791741E+04</rscale>
<asrwt>0</asrwt>
<pdfrwt beam="1">  1        2 0.62747121E+00 0.47791741E+04</pdfrwt>
<pdfrwt beam="2">  1       -1 0.21538983E+00 0.47791741E+04</pdfrwt>
<totfact> 0.29149542E-02</totfact>
</mgrwt>
</event>
<event>
12    6  0.1395358E-007  0.3323875E+04  0.7818608E-02  0.8156847E-01
          2   -1    0    0  501    0  0.00000000000E+00  0.00000000000E+00  0.21316681722E+04  0.21316681722E+04  0.00000000000E+00 0. -1.
         -1   -1    0    0    0  501 -0.00000000000E+00 -0.00000000000E+00 -0.12957159609E+04  0.12957159609E+04  0.00000000000E+00 0.  1.
         24    2    1    2    0    0 -0.13888751971E+04  0.64621330941E+03  0.54302544950E+03  0.16272038906E+04  0.79686312339E+02 0.  0.
        254    2    1    2    0    0  0.13888751971E+04 -0.64621330941E+03  0.29292676188E+03  0.18001802425E+04  0.89904219217E+03 0.  0.
         23    2    4    4    0    0  0.10668075744E+04 -0.20282655113E+03 -0.13619162282E+03  0.10981499151E+04  0.90377359660E+02 0.  0.
         23    2    4    4    0    0  0.32206762267E+03 -0.44338675828E+03  0.42911838470E+03  0.70203032743E+03  0.91567579137E+02 0.  0.
          4    1    3    3  502    0 -0.18666005463E+03  0.11753836187E+03  0.75617509448E+02  0.23318501290E+03  0.00000000000E+00 0. -1.
         -3    1    3    3    0  502 -0.12022151425E+04  0.52867494754E+03  0.46740794006E+03  0.13940188777E+04  0.00000000000E+00 0.  1.
         11    1    5    5    0    0  0.14825597627E+03 -0.29006049282E+02 -0.50911021579E+02  0.15941492249E+03  0.00000000000E+00 0. -1.
        -11    1    5    5    0    0  0.91855159817E+03 -0.17382050185E+03 -0.85280601244E+02  0.93873499259E+03  0.00000000000E+00 0.  1.
          3    1    6    6  503    0  0.23009152907E+03 -0.24785526891E+03  0.23787750341E+03  0.41347315838E+03  0.00000000000E+00 0. -1.
         -3    1    6    6    0  503  0.91976093602E+02 -0.19553148937E+03  0.19124088129E+03  0.28855716905E+03  0.00000000000E+00 0.  1.
<mgrwt>
<rscale>  0 0.33238751E+04</rscale>
<asrwt>0</asrwt>
<pdfrwt beam="1">  1        2 0.32794895E+00 0.33238751E+04</pdfrwt>
<pdfrwt beam="2">  1       -1 0.19934092E+00 0.33238751E+04</pdfrwt>
<totfact> 0.81324027E-01</totfact>
</mgrwt>
</event>
<event>
12    6  0.1395358E-007  0.1355188E+04  0.7818608E-02  0.8986910E-01
         -1   -1    0    0    0  501 -0.00000000000E+00  0.00000000000E+00  0.34294266828E+03  0.34294266828E+03  0.00000000000E+00 0.  1.
          2   -1    0    0  501    0  0.00000000000E+00 -0.00000000000E+00 -0.13388048567E+04  0.13388048567E+04  0.00000000000E+00 0. -1.
         24    2    1    2    0    0 -0.30619864230E+03  0.20254487248E+03 -0.19726024938E+03  0.42454922004E+03  0.80922186894E+02 0.  0.
        254    2    1    2    0    0  0.30619864230E+03 -0.20254487248E+03 -0.79860193908E+03  0.12571983050E+04  0.89888847307E+03 0.  0.
         23    2    4    4    0    0  0.24584732892E+03  0.41440243016E+02 -0.92493351522E+03  0.96189133716E+03  0.87032948075E+02 0.  0.
         23    2    4    4    0    0  0.60351313384E+02 -0.24398511550E+03  0.12633157613E+03  0.29530696782E+03  0.89863899887E+02 0.  0.
          2    1    3    3  502    0 -0.16543312177E+03  0.10385446342E+03 -0.14993173996E+03  0.24623849008E+03  0.00000000000E+00 0. -1.
         -1    1    3    3    0  502 -0.14076552053E+03  0.98690409068E+02 -0.47328509411E+02  0.17831072995E+03  0.00000000000E+00 0.  1.
         11    1    5    5    0    0  0.96353932655E+02  0.16304896477E+02 -0.52857677129E+03  0.53753449484E+03  0.00000000000E+00 0.  1.
        -11    1    5    5    0    0  0.14949339627E+03  0.25135346539E+02 -0.39635674392E+03  0.42435684232E+03  0.00000000000E+00 0. -1.
          1    1    6    6  503    0 -0.23249781544E+02 -0.71329883951E+02  0.38494708632E+02  0.84322875183E+02  0.00000000000E+00 0. -1.
         -1    1    6    6    0  503  0.83601094928E+02 -0.17265523155E+03  0.87836867500E+02  0.21098409264E+03  0.00000000000E+00 0.  1.
<mgrwt>
<rscale>  0 0.13551875E+04</rscale>
<asrwt>0</asrwt>
<pdfrwt beam="1">  1        2 0.20596997E+00 0.13551875E+04</pdfrwt>
<pdfrwt beam="2">  1       -1 0.52760411E-01 0.13551875E+04</pdfrwt>
<totfact> 0.63236262E+01</totfact>
</mgrwt>
</event>
<event>
12    6  0.1395358E-007  0.2718312E+04  0.7818608E-02  0.8329088E-01
          2   -1    0    0  501    0  0.00000000000E+00  0.00000000000E+00  0.12754981340E+04  0.12754981340E+04  0.00000000000E+00 0. -1.
         -1   -1    0    0    0  501 -0.00000000000E+00 -0.00000000000E+00 -0.14483006773E+04  0.14483006773E+04  0.00000000000E+00 0.  1.
         24    2    1    2    0    0 -0.81431752215E+03 -0.85856961535E+03  0.16978022957E+03  0.11979627213E+04  0.77682328072E+02 0.  0.
        254    2    1    2    0    0  0.81431752215E+03  0.85856961535E+03 -0.34258277287E+03  0.15258360899E+04  0.90030994983E+03 0.  0.
         23    2    4    4    0    0 -0.11175346525E+03  0.34735800164E+03  0.77001173104E+02  0.38424330362E+03  0.92559804540E+02 0.  0.
         23    2    4    4    0    0  0.92607098740E+03  0.51121161370E+03 -0.41958394597E+03  0.11415927863E+04  0.90766812903E+02 0.  0.
          4    1    3    3  502    0 -0.47208388830E+03 -0.46253926389E+03  0.12505267411E+03  0.67263953165E+03  0.00000000000E+00 0. -1.
         -3    1    3    3    0  502 -0.34223363384E+03 -0.39603035145E+03  0.44727555453E+02  0.52532318969E+03  0.00000000000E+00 0.  1.
         11    1    5    5    0    0 -0.92636823181E+02  0.26061943416E+03  0.97163428471E+02  0.29316343958E+03  0.00000000000E+00 0.  1.
        -11    1    5    5    0    0 -0.19116642068E+02  0.86738567483E+02 -0.20162255367E+02  0.91079864045E+02  0.00000000000E+00 0. -1.
          3    1    6    6  503    0  0.48408402755E+03  0.25460113498E+03 -0.16955548140E+03  0.57263264396E+03  0.00000000000E+00 0. -1.
         -3    1    6    6    0  503  0.44198695985E+03  0.25661047872E+03 -0.25002846458E+03  0.56896014233E+03  0.00000000000E+00 0.  1.
<mgrwt>
<rscale>  0 0.27183118E+04</rscale>
<asrwt>0</asrwt>
<pdfrwt beam="1">  1        2 0.19623048E+00 0.27183118E+04</pdfrwt>
<pdfrwt beam="2">  1       -1 0.22281549E+00 0.27183118E+04</pdfrwt>
<totfact> 0.17969951E+00</totfact>
</mgrwt>
</event>
<event>
12    6  0.1395358E-007  0.3587854E+04  0.7818608E-02  0.8093280E-01
          2   -1    0    0  501    0  0.00000000000E+00  0.00000000000E+00  0.29059206813E+04  0.29059206813E+04  0.00000000000E+00 0. -1.
         -1   -1    0    0    0  501 -0.00000000000E+00 -0.00000000000E+00 -0.11074543288E+04  0.11074543288E+04  0.00000000000E+00 0.  1.
         24    2    1    2    0    0  0.33957131504E+03  0.16395875776E+04  0.68648581199E+03  0.18114315828E+04  0.80408372000E+02 0.  0.
        254    2    1    2    0    0 -0.33957131504E+03 -0.16395875776E+04  0.11119805405E+04  0.22019434274E+04  0.89916518623E+03 0.  0.
         23    2    4    4    0    0  0.24096233907E+03 -0.91996085785E+03  0.70653574047E+03  0.11876354959E+04  0.83033063751E+02 0.  0.
         23    2    4    4    0    0 -0.58053365412E+03 -0.71962671980E+03  0.40544480003E+03  0.10143079315E+04  0.97740240545E+02 0.  0.
          4    1    3    3  502    0  0.25308670472E+03  0.10735229507E+04  0.42649752752E+03  0.11825415624E+04  0.00000000000E+00 0. -1.
         -3    1    3    3    0  502  0.86484610321E+02  0.56606462697E+03  0.25998828446E+03  0.62889002043E+03  0.00000000000E+00 0.  1.
         11    1    5    5    0    0  0.19133500413E+03 -0.74440117943E+03  0.60990104513E+03  0.98118371603E+03  0.00000000000E+00 0. -1.
        -11    1    5    5    0    0  0.49627334938E+02 -0.17555967842E+03  0.96634695342E+02  0.20645177985E+03  0.00000000000E+00 0.  1.
          3    1    6    6  503    0 -0.44859604245E+03 -0.61548458109E+03  0.32820857143E+03  0.82932535547E+03  0.00000000000E+00 0. -1.
         -3    1    6    6    0  503 -0.13193761166E+03 -0.10414213870E+03  0.77236228598E+02  0.18498257603E+03  0.00000000000E+00 0.  1.
<mgrwt>
<rscale>  0 0.35878542E+04</rscale>
<asrwt>0</asrwt>
<pdfrwt beam="1">  1        2 0.44706472E+00 0.35878542E+04</pdfrwt>
<pdfrwt beam="2">  1       -1 0.17037759E+00 0.35878542E+04</pdfrwt>
<totfact> 0.45108334E-01</totfact>
</mgrwt>
</event>
<event>
12    6  0.1395358E-007  0.1203662E+04  0.7818608E-02  0.9109658E-01
         -3   -1    0    0    0  501 -0.00000000000E+00  0.00000000000E+00  0.11262675200E+04  0.11262675200E+04  0.00000000000E+00 0.  1.
          2   -1    0    0  501    0  0.00000000000E+00 -0.00000000000E+00 -0.32159352237E+03  0.32159352237E+03  0.00000000000E+00 0. -1.
         24    2    1    2    0    0 -0.20556887289E+03  0.11916040006E+03  0.69967421946E+02  0.26051430445E+03  0.80712454089E+02 0.  0.
        254    2    1    2    0    0  0.20556887289E+03 -0.11916040006E+03  0.73470657569E+03  0.11873467379E+04  0.90196494460E+03 0.  0.
         23    2    4    4    0    0  0.22150656528E+03 -0.11121263669E+03 -0.14599781834E+03  0.30154491216E+03  0.90446459697E+02 0.  0.
         23    2    4    4    0    0 -0.15937692386E+02 -0.79477633662E+01  0.88070439403E+03  0.88580182578E+03  0.93206587227E+02 0.  0.
          2    1    3    3  502    0 -0.19318947266E+03  0.96659863633E+02  0.37719520220E+02  0.21928990809E+03  0.00000000000E+00 0. -1.
         -1    1    3    3    0  502 -0.12379400231E+02  0.22500536423E+02  0.32247901726E+02  0.41224396358E+02  0.00000000000E+00 0.  1.
         11    1    5    5    0    0  0.33810981657E+01  0.48067327111E+01  0.83667356470E+01  0.10224420255E+02  0.00000000000E+00 0. -1.
        -11    1    5    5    0    0  0.21812546711E+03 -0.11601936940E+03 -0.15436455398E+03  0.29132049191E+03  0.00000000000E+00 0.  1.
          3    1    6    6  503    0  0.18766353035E+02  0.10735263214E+02  0.54124411065E+02  0.58282705459E+02  0.00000000000E+00 0. -1.
         -3    1    6    6    0  503 -0.34704045421E+02 -0.18683026580E+02  0.82657998297E+03  0.82751912032E+03  0.00000000000E+00 0.  1.
<mgrwt>
<rscale>  0 0.12036616E+04</rscale>
<asrwt>0</asrwt>
<pdfrwt beam="1">  1        2 0.49475927E-01 0.12036616E+04</pdfrwt>
<pdfrwt beam="2">  1       -3 0.17327192E+00 0.12036616E+04</pdfrwt>
<totfact> 0.13737238E+01</totfact>
</mgrwt>
</event>
<event>
12    6  0.1395358E-007  0.1875286E+04  0.7818608E-02  0.8667257E-01
          2   -1    0    0  501    0  0.00000000000E+00  0.00000000000E+00  0.16591418271E+04  0.16591418271E+04  0.00000000000E+00 0. -1.
         -1   -1    0    0    0  501 -0.00000000000E+00 -0.00000000000E+00 -0.52989686767E+03  0.52989686767E+03  0.00000000000E+00 0.  1.
         24    2    1    2    0    0  0.55886319984E+03 -0.30040311336E+03  0.40834969759E+02  0.64124824079E+03  0.83436831906E+02 0.  0.
        254    2    1    2    0    0 -0.55886319984E+03  0.30040311336E+03  0.10884099897E+04  0.15477904540E+04  0.89913785217E+03 0.  0.
         23    2    4    4    0    0 -0.17074254762E+03  0.24451569441E+03  0.11010851140E+04  0.11442819870E+04  0.89732353222E+02 0.  0.
         23    2    4    4    0    0 -0.38812065222E+03  0.55887418952E+02 -0.12675124286E+02  0.40350846698E+03  0.94325923660E+02 0.  0.
          2    1    3    3  502    0  0.12322190155E+03 -0.74493969592E+02  0.43810012093E+02  0.15050682937E+03  0.00000000000E+00 0. -1.
         -1    1    3    3    0  502  0.43564129828E+03 -0.22590914377E+03 -0.29750423345E+01  0.49074141142E+03  0.00000000000E+00 0.  1.
         11    1    5    5    0    0 -0.71776551650E+02  0.12094649082E+03  0.68063889168E+03  0.69501742991E+03  0.00000000000E+00 0. -1.
        -11    1    5    5    0    0 -0.98965995967E+02  0.12356920358E+03  0.42044622233E+03  0.44926455714E+03  0.00000000000E+00 0.  1.
          4    1    6    6  503    0 -0.21806286469E+03 -0.14045064319E+02 -0.20443466135E+02  0.21946893196E+03  0.00000000000E+00 0.  1.
         -4    1    6    6    0  503 -0.17005778753E+03  0.69932483270E+02  0.77683418498E+01  0.18403953503E+03  0.00000000000E+00 0. -1.
<mgrwt>
<rscale>  0 0.18752856E+04</rscale>
<asrwt>0</asrwt>
<pdfrwt beam="1">  1        2 0.25525259E+00 0.18752856E+04</pdfrwt>
<pdfrwt beam="2">  1       -1 0.81522596E-01 0.18752856E+04</pdfrwt>
<totfact> 0.16551191E+01</totfact>
</mgrwt>
</event>
<event>
12    6  0.1395358E-007  0.1813887E+04  0.7818608E-02  0.8698949E-01
          2   -1    0    0  501    0  0.00000000000E+00  0.00000000000E+00  0.18720513659E+04  0.18720513659E+04  0.00000000000E+00 0. -1.
         -1   -1    0    0    0  501 -0.00000000000E+00 -0.00000000000E+00 -0.43938253957E+03  0.43938253957E+03  0.00000000000E+00 0.  1.
         24    2    1    2    0    0 -0.62649141880E+03 -0.39757123936E+02  0.20472202711E+03  0.66504803712E+03  0.79408164330E+02 0.  0.
        254    2    1    2    0    0  0.62649141880E+03  0.39757123936E+02  0.12279467992E+04  0.16463858683E+04  0.89925578064E+03 0.  0.
         23    2    4    4    0    0  0.76539392231E+03 -0.20899330239E+03  0.89061165807E+03  0.11958274754E+04  0.85487828252E+02 0.  0.
         23    2    4    4    0    0 -0.13890250351E+03  0.24875042632E+03  0.33733514111E+03  0.45055839286E+03  0.89650364625E+02 0.  0.
          2    1    3    3  502    0 -0.15702447002E+03 -0.19431003071E+02  0.87233680007E+02  0.18067640408E+03  0.00000000000E+00 0. -1.
         -1    1    3    3    0  502 -0.46946694878E+03 -0.20326120865E+02  0.11748834710E+03  0.48437163304E+03  0.00000000000E+00 0.  1.
         11    1    5    5    0    0  0.72873193168E+03 -0.19797673424E+03  0.81493538577E+03  0.11110196661E+04  0.00000000000E+00 0.  1.
        -11    1    5    5    0    0  0.36661990629E+02 -0.11016568150E+02  0.75676272304E+02  0.84807809313E+02  0.00000000000E+00 0. -1.
          4    1    6    6  503    0 -0.75242171780E+02  0.20924659879E+03  0.27043628757E+03  0.35011613666E+03  0.00000000000E+00 0.  1.
         -4    1    6    6    0  503 -0.63660331729E+02  0.39503827535E+02  0.66898853538E+02  0.10044225620E+03  0.00000000000E+00 0. -1.
<mgrwt>
<rscale>  0 0.18138872E+04</rscale>
<asrwt>0</asrwt>
<pdfrwt beam="1">  1        2 0.28800790E+00 0.18138872E+04</pdfrwt>
<pdfrwt beam="2">  1       -1 0.67597315E-01 0.18138872E+04</pdfrwt>
<totfact> 0.18731001E+01</totfact>
</mgrwt>
</event>
<event>
12    6  0.1395358E-007  0.1969095E+04  0.7818608E-02  0.8621208E-01
         -1   -1    0    0    0  501 -0.00000000000E+00  0.00000000000E+00  0.17191351775E+04  0.17191351775E+04  0.00000000000E+00 0.  1.
          2   -1    0    0  501    0  0.00000000000E+00 -0.00000000000E+00 -0.56384949906E+03  0.56384949906E+03  0.00000000000E+00 0. -1.
         24    2    1    2    0    0  0.33704002905E+03 -0.62736921696E+03  0.93738135727E+02  0.72242574506E+03  0.76967548105E+02 0.  0.
        254    2    1    2    0    0 -0.33704002905E+03  0.62736921696E+03  0.10615475427E+04  0.15605589315E+04  0.89513846843E+03 0.  0.
         23    2    4    4    0    0 -0.31556672245E+03  0.73734539906E+03  0.43733999256E+03  0.91798675312E+03  0.90403628100E+02 0.  0.
         23    2    4    4    0    0 -0.21473306604E+02 -0.10997618210E+03  0.62420755016E+03  0.64257217839E+03  0.10347983006E+03 0.  0.
          2    1    3    3  502    0  0.88733435430E+02 -0.20770946719E+03 -0.59704967044E-01  0.22586909680E+03  0.00000000000E+00 0. -1.
         -1    1    3    3    0  502  0.24830659362E+03 -0.41965974977E+03  0.93797840694E+02  0.49655664826E+03  0.00000000000E+00 0.  1.
         11    1    5    5    0    0 -0.31972027058E+03  0.72834398109E+03  0.42403417053E+03  0.90139391167E+03  0.00000000000E+00 0.  1.
        -11    1    5    5    0    0  0.41535481346E+01  0.90014179746E+01  0.13305822028E+02  0.16592841453E+02  0.00000000000E+00 0. -1.
          2    1    6    6  503    0  0.25074017199E+02 -0.12872209083E+02  0.42600607818E+02  0.51080445296E+02  0.00000000000E+00 0. -1.
         -2    1    6    6    0  503 -0.46547323803E+02 -0.97103973017E+02  0.58160694235E+03  0.59149173309E+03  0.00000000000E+00 0.  1.
<mgrwt>
<rscale>  0 0.19690947E+04</rscale>
<asrwt>0</asrwt>
<pdfrwt beam="1">  1        2 0.86746077E-01 0.19690947E+04</pdfrwt>
<pdfrwt beam="2">  1       -1 0.26448233E+00 0.19690947E+04</pdfrwt>
<totfact> 0.31906825E+00</totfact>
</mgrwt>
</event>
<event>
12    6  0.1395358E-007  0.1763800E+04  0.7818608E-02  0.8725791E-01
          2   -1    0    0  501    0  0.00000000000E+00  0.00000000000E+00  0.50206449994E+03  0.50206449994E+03  0.00000000000E+00 0. -1.
         -1   -1    0    0    0  501 -0.00000000000E+00 -0.00000000000E+00 -0.15490988077E+04  0.15490988077E+04  0.00000000000E+00 0.  1.
         24    2    1    2    0    0 -0.17313212866E+02  0.64868414933E+03 -0.38648505004E+03  0.75926953770E+03  0.77644472024E+02 0.  0.
        254    2    1    2    0    0  0.17313212866E+02 -0.64868414933E+03 -0.66054925771E+03  0.12918937699E+04  0.90087364151E+03 0.  0.
         23    2    4    4    0    0  0.10789478734E+03 -0.74484412368E+02 -0.68484626817E+03  0.70275420317E+03  0.87520547445E+02 0.  0.
         23    2    4    4    0    0 -0.90581574475E+02 -0.57419973697E+03  0.24297010457E+02  0.58913956676E+03  0.92653790163E+02 0.  0.
          2    1    3    3  502    0 -0.14220998371E+02  0.43335796891E+03 -0.21491748358E+03  0.48393273372E+03  0.00000000000E+00 0. -1.
         -1    1    3    3    0  502 -0.30922144952E+01  0.21532618042E+03 -0.17156756646E+03  0.27533680398E+03  0.00000000000E+00 0.  1.
         11    1    5    5    0    0  0.98344371862E+02 -0.17965304129E+02 -0.41254544295E+03  0.42448570074E+03  0.00000000000E+00 0. -1.
        -11    1    5    5    0    0  0.95504154794E+01 -0.56519108239E+02 -0.27230082522E+03  0.27826850243E+03  0.00000000000E+00 0.  1.
          3    1    6    6  503    0 -0.40296478217E+02 -0.67804885781E+02 -0.76938203958E+01  0.79249628168E+02  0.00000000000E+00 0. -1.
         -3    1    6    6    0  503 -0.50285096258E+02 -0.50639485119E+03  0.31990830853E+02  0.50988993859E+03  0.00000000000E+00 0.  1.
<mgrwt>
<rscale>  0 0.17637999E+04</rscale>
<asrwt>0</asrwt>
<pdfrwt beam="1">  1        2 0.77240692E-01 0.17637999E+04</pdfrwt>
<pdfrwt beam="2">  1       -1 0.23832290E+00 0.17637999E+04</pdfrwt>
<totfact> 0.55144458E+00</totfact>
</mgrwt>
</event>
<event>
12    6  0.1395358E-007  0.1350228E+04  0.7818608E-02  0.8990655E-01
         -1   -1    0    0    0  501 -0.00000000000E+00  0.00000000000E+00  0.13700648079E+04  0.13700648079E+04  0.00000000000E+00 0.  1.
          2   -1    0    0  501    0  0.00000000000E+00 -0.00000000000E+00 -0.33266984187E+03  0.33266984187E+03  0.00000000000E+00 0. -1.
         24    2    1    2    0    0 -0.10182942243E+02 -0.28588678834E+03 -0.80362086312E+01  0.29407709920E+03  0.67689080104E+02 0.  0.
        254    2    1    2    0    0  0.10182942243E+02  0.28588678834E+03  0.10454311746E+04  0.14086575505E+04  0.89975263585E+03 0.  0.
         23    2    4    4    0    0  0.22110949481E+03  0.35916877293E+03  0.11346547722E+03  0.44594939295E+03  0.90026831630E+02 0.  0.
         23    2    4    4    0    0 -0.21092655257E+03 -0.73281984585E+02  0.93196569742E+03  0.96270815758E+03  0.91578794901E+02 0.  0.
          2    1    3    3  502    0 -0.11071621364E+02 -0.26262939140E+03 -0.26739167149E+02  0.26421915352E+03  0.00000000000E+00 0. -1.
         -1    1    3    3    0  502  0.88867912073E+00 -0.23257396941E+02  0.18702958518E+02  0.29857945682E+02  0.00000000000E+00 0.  1.
         11    1    5    5    0    0  0.17745729642E+03  0.23388762993E+03  0.46196602518E+02  0.29720134854E+03  0.00000000000E+00 0.  1.
        -11    1    5    5    0    0  0.43652198393E+02  0.12528114299E+03  0.67268874699E+02  0.14874804442E+03  0.00000000000E+00 0. -1.
          1    1    6    6  503    0 -0.11018762044E+03 -0.47118322604E+02  0.31501922283E+03  0.33704385289E+03  0.00000000000E+00 0. -1.
         -1    1    6    6    0  503 -0.10073893213E+03 -0.26163661981E+02  0.61694647459E+03  0.62566430469E+03  0.00000000000E+00 0.  1.
<mgrwt>
<rscale>  0 0.13502285E+04</rscale>
<asrwt>0</asrwt>
<pdfrwt beam="1">  1        2 0.51179977E-01 0.13502285E+04</pdfrwt>
<pdfrwt beam="2">  1       -1 0.21077920E+00 0.13502285E+04</pdfrwt>
<totfact> 0.13896169E+01</totfact>
</mgrwt>
</event>
<event>
12    6  0.1395358E-007  0.1342520E+04  0.7818608E-02  0.8996510E-01
         -1   -1    0    0    0  501 -0.00000000000E+00  0.00000000000E+00  0.14762420590E+03  0.14762420590E+03  0.00000000000E+00 0.  1.
          2   -1    0    0  501    0  0.00000000000E+00 -0.00000000000E+00 -0.30522781698E+04  0.30522781698E+04  0.00000000000E+00 0. -1.
         24    2    1    2    0    0 -0.17890050382E+03 -0.24101400611E+03 -0.12921343015E+04  0.13289068270E+04  0.79304226502E+02 0.  0.
        254    2    1    2    0    0  0.17890050382E+03  0.24101400611E+03 -0.16125196624E+04  0.18709955487E+04  0.90017306125E+03 0.  0.
         23    2    4    4    0    0 -0.18467046395E+03  0.43217239431E+03 -0.55788173468E+03  0.73535858833E+03  0.92973463284E+02 0.  0.
         23    2    4    4    0    0  0.36357096777E+03 -0.19115838820E+03 -0.10546379277E+04  0.11356369603E+04  0.93192109040E+02 0.  0.
          4    1    3    3  502    0 -0.78706380663E+02 -0.64706994044E+02 -0.56065483621E+03  0.56983816545E+03  0.00000000000E+00 0. -1.
         -3    1    3    3    0  502 -0.10019412315E+03 -0.17630701206E+03 -0.73147946533E+03  0.75906866159E+03  0.00000000000E+00 0.  1.
         11    1    5    5    0    0 -0.26031238652E+02  0.15621007896E+03 -0.15157659012E+03  0.21921376970E+03  0.00000000000E+00 0.  1.
        -11    1    5    5    0    0 -0.15863922530E+03  0.27596231535E+03 -0.40630514456E+03  0.51614481863E+03  0.00000000000E+00 0. -1.
          3    1    6    6  503    0  0.25559380060E+03 -0.10474281801E+03 -0.60209379348E+03  0.66243202291E+03  0.00000000000E+00 0. -1.
         -3    1    6    6    0  503  0.10797716717E+03 -0.86415570189E+02 -0.45254413420E+03  0.47320493743E+03  0.00000000000E+00 0.  1.
<mgrwt>
<rscale>  0 0.13425202E+04</rscale>
<asrwt>0</asrwt>
<pdfrwt beam="1">  1        2 0.46958121E+00 0.13425202E+04</pdfrwt>
<pdfrwt beam="2">  1       -1 0.22711418E-01 0.13425202E+04</pdfrwt>
<totfact> 0.29979782E+01</totfact>
</mgrwt>
</event>
<event>
12    6  0.1395358E-007  0.1856241E+04  0.7818608E-02  0.8676950E-01
          2   -1    0    0  501    0  0.00000000000E+00  0.00000000000E+00  0.94780577564E+03  0.94780577564E+03  0.00000000000E+00 0. -1.
         -1   -1    0    0    0  501 -0.00000000000E+00 -0.00000000000E+00 -0.90884426352E+03  0.90884426352E+03  0.00000000000E+00 0.  1.
         24    2    1    2    0    0  0.16721492678E+03 -0.41471925195E+03 -0.53822867098E+03  0.70421755877E+03  0.79242527311E+02 0.  0.
        254    2    1    2    0    0 -0.16721492678E+03  0.41471925195E+03  0.57719018310E+03  0.11524324804E+04  0.89162729025E+03 0.  0.
         23    2    4    4    0    0  0.18953350557E+03  0.21565844471E+03 -0.13112506573E+03  0.32967765484E+03  0.95194846108E+02 0.  0.
         23    2    4    4    0    0 -0.35674843235E+03  0.19906080724E+03  0.70831524883E+03  0.82275482555E+03  0.91216019854E+02 0.  0.
          4    1    3    3  502    0  0.15089888054E+02 -0.56346218401E+02 -0.35209172724E+02  0.68134329772E+02  0.00000000000E+00 0. -1.
         -3    1    3    3    0  502  0.15212503873E+03 -0.35837303354E+03 -0.50301949826E+03  0.63608322900E+03  0.00000000000E+00 0.  1.
         11    1    5    5    0    0  0.57628775915E+02  0.22342943643E+02 -0.57293572898E+02  0.84278327223E+02  0.00000000000E+00 0. -1.
        -11    1    5    5    0    0  0.13190472966E+03  0.19331550107E+03 -0.73831492836E+02  0.24539932761E+03  0.00000000000E+00 0.  1.
          2    1    6    6  503    0 -0.30969386219E+01  0.58869052441E+00 -0.27439853222E+01  0.41793588994E+01  0.00000000000E+00 0. -1.
         -2    1    6    6    0  503 -0.35365149373E+03  0.19847211671E+03  0.71105923415E+03  0.81857546665E+03  0.00000000000E+00 0.  1.
<mgrwt>
<rscale>  0 0.18562412E+04</rscale>
<asrwt>0</asrwt>
<pdfrwt beam="1">  1        2 0.14581627E+00 0.18562412E+04</pdfrwt>
<pdfrwt beam="2">  1       -1 0.13982219E+00 0.18562412E+04</pdfrwt>
<totfact> 0.12286039E+01</totfact>
</mgrwt>
</event>
<event>
12    6  0.1395358E-007  0.2040490E+04  0.7818608E-02  0.8587921E-01
          2   -1    0    0  501    0  0.00000000000E+00  0.00000000000E+00  0.33567361709E+04  0.33567361709E+04  0.00000000000E+00 0. -1.
         -1   -1    0    0    0  501 -0.00000000000E+00 -0.00000000000E+00 -0.31009274908E+03  0.31009274908E+03  0.00000000000E+00 0.  1.
         24    2    1    2    0    0 -0.74225059695E+03  0.32554455891E+03  0.14575869363E+04  0.16697345397E+04  0.80861286918E+02 0.  0.
        254    2    1    2    0    0  0.74225059695E+03 -0.32554455891E+03  0.15890564855E+04  0.19970943803E+04  0.89798120306E+03 0.  0.
         23    2    4    4    0    0  0.85615673175E+03 -0.14198101205E+03  0.83699723393E+03  0.12091508173E+04  0.91205111228E+02 0.  0.
         23    2    4    4    0    0 -0.11390613480E+03 -0.18356354687E+03  0.75205925159E+03  0.78794356296E+03  0.92691732199E+02 0.  0.
          4    1    3    3  502    0 -0.49074027996E+03  0.19944518991E+03  0.10232291005E+04  0.11522162116E+04  0.00000000000E+00 0. -1.
         -3    1    3    3    0  502 -0.25151031700E+03  0.12609936900E+03  0.43435783582E+03  0.51751832813E+03  0.00000000000E+00 0.  1.
         11    1    5    5    0    0  0.22711893027E+03 -0.63800249359E+02  0.27164598636E+03  0.35978468868E+03  0.00000000000E+00 0. -1.
        -11    1    5    5    0    0  0.62903780148E+03 -0.78180762687E+02  0.56535124757E+03  0.84936612864E+03  0.00000000000E+00 0.  1.
          1    1    6    6  503    0  0.43680008250E+01 -0.41778774182E+02  0.23918591757E+03  0.24284655355E+03  0.00000000000E+00 0. -1.
         -1    1    6    6    0  503 -0.11827413563E+03 -0.14178477268E+03  0.51287333402E+03  0.54509700941E+03  0.00000000000E+00 0.  1.
<mgrwt>
<rscale>  0 0.20404897E+04</rscale>
<asrwt>0</asrwt>
<pdfrwt beam="1">  1        2 0.51642092E+00 0.20404897E+04</pdfrwt>
<pdfrwt beam="2">  1       -1 0.47706579E-01 0.20404897E+04</pdfrwt>
<totfact> 0.47379639E+00</totfact>
</mgrwt>
</event>
<event>
12    6  0.1395358E-007  0.2981290E+04  0.7818608E-02  0.8249094E-01
         -1   -1    0    0    0  501 -0.00000000000E+00  0.00000000000E+00  0.27808734416E+04  0.27808734416E+04  0.00000000000E+00 0.  1.
          2   -1    0    0  501    0  0.00000000000E+00 -0.00000000000E+00 -0.79903778443E+03  0.79903778443E+03  0.00000000000E+00 0. -1.
         24    2    1    2    0    0 -0.21639246051E+03  0.11148978787E+04  0.17204414437E+02  0.11385177481E+04  0.78126142512E+02 0.  0.
        254    2    1    2    0    0  0.21639246051E+03 -0.11148978787E+04  0.19646312427E+04  0.24413934779E+04  0.90044612123E+03 0.  0.
         23    2    4    4    0    0  0.41890102284E+03 -0.84720260867E+03  0.18452362928E+04  0.20752558856E+04  0.92518578117E+02 0.  0.
         23    2    4    4    0    0 -0.20250856233E+03 -0.26769526999E+03  0.11939494988E+03  0.36613759228E+03  0.84445882258E+02 0.  0.
          4    1    3    3  502    0 -0.14160639975E+03  0.80224809007E+03 -0.20049435510E+02  0.81489652737E+03  0.00000000000E+00 0. -1.
         -3    1    3    3    0  502 -0.74786060764E+02  0.31264978859E+03  0.37253849947E+02  0.32362122076E+03  0.00000000000E+00 0.  1.
         11    1    5    5    0    0  0.17159663417E+03 -0.36022330251E+03  0.87935479255E+03  0.96564542339E+03  0.00000000000E+00 0.  1.
        -11    1    5    5    0    0  0.24730438867E+03 -0.48697930616E+03  0.96588150029E+03  0.11096104622E+04  0.00000000000E+00 0. -1.
          1    1    6    6  503    0 -0.10077804897E+03 -0.13366166096E+03  0.10421510946E+03  0.19718631749E+03  0.00000000000E+00 0. -1.
         -1    1    6    6    0  503 -0.10173051337E+03 -0.13403360903E+03  0.15179840421E+02  0.16895127479E+03  0.00000000000E+00 0.  1.
<mgrwt>
<rscale>  0 0.29812903E+04</rscale>
<asrwt>0</asrwt>
<pdfrwt beam="1">  1        2 0.12292889E+00 0.29812903E+04</pdfrwt>
<pdfrwt beam="2">  1       -1 0.42782668E+00 0.29812903E+04</pdfrwt>
<totfact> 0.15511097E-01</totfact>
</mgrwt>
</event>
<event>
12    6  0.1395358E-007  0.1724279E+04  0.7818608E-02  0.8747637E-01
          2   -1    0    0  501    0  0.00000000000E+00  0.00000000000E+00  0.11802644582E+04  0.11802644582E+04  0.00000000000E+00 0. -1.
         -1   -1    0    0    0  501 -0.00000000000E+00 -0.00000000000E+00 -0.62976072695E+03  0.62976072695E+03  0.00000000000E+00 0.  1.
         24    2    1    2    0    0  0.58710565112E+03 -0.21159408833E+03  0.16443843503E+03  0.64955890126E+03  0.73631946221E+02 0.  0.
        254    2    1    2    0    0 -0.58710565112E+03  0.21159408833E+03  0.38606529620E+03  0.11604662839E+04  0.89898302502E+03 0.  0.
         23    2    4    4    0    0 -0.16158357839E+03  0.39783584400E+03 -0.13195815848E+03  0.45866688169E+03  0.92626892393E+02 0.  0.
         23    2    4    4    0    0 -0.42552207273E+03 -0.18624175567E+03  0.51802345467E+03  0.70179940217E+03  0.91755519549E+02 0.  0.
          2    1    3    3  502    0  0.31386355341E+03 -0.14765606607E+03  0.10830469630E+03  0.36337659700E+03  0.00000000000E+00 0. -1.
         -1    1    3    3    0  502  0.27324209770E+03 -0.63938022263E+02  0.56133738735E+02  0.28618230426E+03  0.00000000000E+00 0.  1.
         11    1    5    5    0    0 -0.10099646082E+03  0.27507093373E+03 -0.44944639034E+02  0.29645290395E+03  0.00000000000E+00 0. -1.
        -11    1    5    5    0    0 -0.60587117566E+02  0.12276491027E+03 -0.87013519443E+02  0.16221397774E+03  0.00000000000E+00 0.  1.
          2    1    6    6  503    0 -0.37890021867E+03 -0.13092104039E+03  0.43055198717E+03  0.58828624681E+03  0.00000000000E+00 0. -1.
         -2    1    6    6    0  503 -0.46621854056E+02 -0.55320715274E+02  0.87471467498E+02  0.11351315536E+03  0.00000000000E+00 0.  1.
<mgrwt>
<rscale>  0 0.17242786E+04</rscale>
<asrwt>0</asrwt>
<pdfrwt beam="1">  1        2 0.18157915E+00 0.17242786E+04</pdfrwt>
<pdfrwt beam="2">  1       -1 0.96886266E-01 0.17242786E+04</pdfrwt>
<totfact> 0.21595329E+01</totfact>
</mgrwt>
</event>
<event>
12    6  0.1395358E-007  0.2857110E+04  0.7818608E-02  0.8285754E-01
          2   -1    0    0  501    0  0.00000000000E+00  0.00000000000E+00  0.28509503419E+04  0.28509503419E+04  0.00000000000E+00 0. -1.
         -1   -1    0    0    0  501 -0.00000000000E+00 -0.00000000000E+00 -0.71582055615E+03  0.71582055615E+03  0.00000000000E+00 0.  1.
         24    2    1    2    0    0  0.50767489270E+03 -0.11372590030E+04  0.56589076567E+03  0.13702697569E+04  0.79467046631E+02 0.  0.
        254    2    1    2    0    0 -0.50767489270E+03  0.11372590030E+04  0.15692390200E+04  0.21965011411E+04  0.90056333706E+03 0.  0.
         23    2    4    4    0    0 -0.21565087183E+03  0.93860486171E+03  0.15559162366E+04  0.18320104101E+04  0.88895568848E+02 0.  0.
         23    2    4    4    0    0 -0.29202402087E+03  0.19865414131E+03  0.13322783399E+02  0.36449073101E+03  0.89075809340E+02 0.  0.
          2    1    3    3  502    0  0.59513564891E+02 -0.15991574695E+03  0.10579359653E+03  0.20076652010E+03  0.00000000000E+00 0. -1.
         -1    1    3    3    0  502  0.44816132781E+03 -0.97734325607E+03  0.46009716915E+03  0.11695032368E+04  0.00000000000E+00 0.  1.
         11    1    5    5    0    0 -0.33891071444E+02  0.11596475734E+03  0.14536736624E+03  0.18901878435E+03  0.00000000000E+00 0. -1.
        -11    1    5    5    0    0 -0.18175980039E+03  0.82264010436E+03  0.14105488704E+04  0.16429916257E+04  0.00000000000E+00 0.  1.
          3    1    6    6  503    0 -0.14938956340E+03  0.52161531041E+02 -0.10845051623E+02  0.15860542903E+03  0.00000000000E+00 0. -1.
         -3    1    6    6    0  503 -0.14263445747E+03  0.14649261027E+03  0.24167835022E+02  0.20588530198E+03  0.00000000000E+00 0.  1.
<mgrwt>
<rscale>  0 0.28571096E+04</rscale>
<asrwt>0</asrwt>
<pdfrwt beam="1">  1        2 0.43860774E+00 0.28571096E+04</pdfrwt>
<pdfrwt beam="2">  1       -1 0.11012624E+00 0.28571096E+04</pdfrwt>
<totfact> 0.16124214E+00</totfact>
</mgrwt>
</event>
<event>
12    6  0.1395358E-007  0.2231838E+04  0.7818608E-02  0.8505292E-01
          2   -1    0    0  501    0  0.00000000000E+00  0.00000000000E+00  0.21869448106E+04  0.21869448106E+04  0.00000000000E+00 0. -1.
         -1   -1    0    0    0  501 -0.00000000000E+00 -0.00000000000E+00 -0.56941320531E+03  0.56941320531E+03  0.00000000000E+00 0.  1.
         24    2    1    2    0    0  0.89717741381E+03  0.25242372515E+03  0.70351529130E+03  0.11704762290E+04  0.80223367276E+02 0.  0.
        254    2    1    2    0    0 -0.89717741381E+03 -0.25242372515E+03  0.91401631395E+03  0.15858817869E+04  0.90052771801E+03 0.  0.
         23    2    4    4    0    0 -0.62098269650E+03  0.23104848309E+03  0.73643549122E+03  0.99473530610E+03  0.90322674776E+02 0.  0.
         23    2    4    4    0    0 -0.27619471732E+03 -0.48347220824E+03  0.17758082273E+03  0.59114648078E+03  0.88827445769E+02 0.  0.
          2    1    3    3  502    0  0.86555025672E+03  0.24386528806E+03  0.69528945951E+03  0.11366947515E+04  0.00000000000E+00 0. -1.
         -1    1    3    3    0  502  0.31627157091E+02  0.85584370906E+01  0.82258317892E+01  0.33781477465E+02  0.00000000000E+00 0.  1.
         11    1    5    5    0    0 -0.16573492017E+02 -0.74017833498E+01  0.28862797218E+02  0.34095866284E+02  0.00000000000E+00 0. -1.
        -11    1    5    5    0    0 -0.60440920448E+03  0.23845026644E+03  0.70757269400E+03  0.96063943981E+03  0.00000000000E+00 0.  1.
          3    1    6    6  503    0 -0.12782198922E+03 -0.16184215371E+03  0.34317824164E+02  0.20906711052E+03  0.00000000000E+00 0. -1.
         -3    1    6    6    0  503 -0.14837272810E+03 -0.32163005453E+03  0.14326299857E+03  0.38207937026E+03  0.00000000000E+00 0.  1.
<mgrwt>
<rscale>  0 0.22318380E+04</rscale>
<asrwt>0</asrwt>
<pdfrwt beam="1">  1        2 0.33645304E+00 0.22318380E+04</pdfrwt>
<pdfrwt beam="2">  1       -1 0.87602033E-01 0.22318380E+04</pdfrwt>
<totfact> 0.69842577E+00</totfact>
</mgrwt>
</event>
<event>
12    6  0.1395358E-007  0.1998318E+04  0.7818608E-02  0.8607408E-01
         -1   -1    0    0    0  501 -0.00000000000E+00  0.00000000000E+00  0.21102373966E+03  0.21102373966E+03  0.00000000000E+00 0.  1.
          2   -1    0    0  501    0  0.00000000000E+00 -0.00000000000E+00 -0.47308347967E+04  0.47308347967E+04  0.00000000000E+00 0. -1.
         24    2    1    2    0    0  0.52855884799E+02 -0.69709067107E+03 -0.87453139656E+03  0.11226520982E+04  0.82543453897E+02 0.  0.
        254    2    1    2    0    0 -0.52855884799E+02  0.69709067107E+03 -0.36452796604E+04  0.38192064381E+04  0.89974711221E+03 0.  0.
         23    2    4    4    0    0  0.14525619188E+03  0.78251443178E+03 -0.33381472271E+04  0.34329822923E+04  0.93339768679E+02 0.  0.
         23    2    4    4    0    0 -0.19811207667E+03 -0.85423760710E+02 -0.30713243332E+03  0.38622414577E+03  0.91066708320E+02 0.  0.
          4    1    3    3  502    0 -0.16777204322E+02 -0.18175863641E+03 -0.25911758367E+03  0.31695362226E+03  0.00000000000E+00 0. -1.
         -3    1    3    3    0  502  0.69633089121E+02 -0.51533203466E+03 -0.61541381289E+03  0.80569847595E+03  0.00000000000E+00 0.  1.
         11    1    5    5    0    0  0.90232715738E+02  0.27784958941E+03 -0.11183596844E+04  0.11558852543E+04  0.00000000000E+00 0. -1.
        -11    1    5    5    0    0  0.55023476138E+02  0.50466484238E+03 -0.22197875427E+04  0.22770970381E+04  0.00000000000E+00 0.  1.
          3    1    6    6  503    0 -0.12889237391E+03 -0.67042398318E+02 -0.26740580752E+03  0.30432514376E+03  0.00000000000E+00 0. -1.
         -3    1    6    6    0  503 -0.69219702766E+02 -0.18381362392E+02 -0.39726625791E+02  0.81899002016E+02  0.00000000000E+00 0.  1.
<mgrwt>
<rscale>  0 0.19983177E+04</rscale>
<asrwt>0</asrwt>
<pdfrwt beam="1">  1        2 0.72782074E+00 0.19983177E+04</pdfrwt>
<pdfrwt beam="2">  1       -1 0.32465191E-01 0.19983177E+04</pdfrwt>
<totfact> 0.68060034E-01</totfact>
</mgrwt>
</event>
<event>
12    6  0.1395358E-007  0.1832553E+04  0.7818608E-02  0.8689177E-01
          2   -1    0    0  501    0  0.00000000000E+00  0.00000000000E+00  0.17008977920E+04  0.17008977920E+04  0.00000000000E+00 0. -1.
         -3   -1    0    0    0  501 -0.00000000000E+00 -0.00000000000E+00 -0.49359954065E+03  0.49359954065E+03  0.00000000000E+00 0.  1.
         24    2    1    2    0    0  0.33383880953E+03 -0.59825155342E+03  0.34533319733E+03  0.77213201578E+03  0.87060672480E+02 0.  0.
        254    2    1    2    0    0 -0.33383880953E+03  0.59825155342E+03  0.86196505405E+03  0.14223653169E+04  0.90043659878E+03 0.  0.
         23    2    4    4    0    0 -0.17064031576E+03  0.43628409846E+03  0.10211652460E+04  0.11279936227E+04  0.10064403248E+03 0.  0.
         23    2    4    4    0    0 -0.16319849378E+03  0.16196745496E+03 -0.15920019199E+03  0.29437169417E+03  0.91884647042E+02 0.  0.
          4    1    3    3  502    0  0.22987383953E+03 -0.41530259973E+03  0.28313729368E+03  0.55270693727E+03  0.00000000000E+00 0. -1.
         -3    1    3    3    0  502  0.10396497001E+03 -0.18294895370E+03  0.62195903652E+02  0.21942507851E+03  0.00000000000E+00 0.  1.
         11    1    5    5    0    0 -0.11306186018E+03  0.28054181203E+03  0.76604799104E+03  0.82359954900E+03  0.00000000000E+00 0. -1.
        -11    1    5    5    0    0 -0.57578455579E+02  0.15574228643E+03  0.25511725500E+03  0.30439407374E+03  0.00000000000E+00 0.  1.
          1    1    6    6  503    0 -0.79482570676E+02  0.10966001099E+03 -0.43427310350E+02  0.14222773406E+03  0.00000000000E+00 0. -1.
         -1    1    6    6    0  503 -0.83715923101E+02  0.52307443975E+02 -0.11577288164E+03  0.15214396012E+03  0.00000000000E+00 0.  1.
<mgrwt>
<rscale>  0 0.18325527E+04</rscale>
<asrwt>0</asrwt>
<pdfrwt beam="1">  1        2 0.26167658E+00 0.18325527E+04</pdfrwt>
<pdfrwt beam="2">  1       -3 0.75938391E-01 0.18325527E+04</pdfrwt>
<totfact> 0.96161931E+00</totfact>
</mgrwt>
</event>
<event>
12    6  0.1395358E-007  0.2454918E+04  0.7818608E-02  0.8419225E-01
         -1   -1    0    0    0  501 -0.00000000000E+00  0.00000000000E+00  0.12884190448E+04  0.12884190448E+04  0.00000000000E+00 0.  1.
          2   -1    0    0  501    0  0.00000000000E+00 -0.00000000000E+00 -0.11693828190E+04  0.11693828190E+04  0.00000000000E+00 0. -1.
         24    2    1    2    0    0  0.73034084168E+03  0.22435798597E+03  0.78985732327E+03  0.11017537628E+04  0.79072825634E+02 0.  0.
        254    2    1    2    0    0 -0.73034084168E+03 -0.22435798597E+03 -0.67082109749E+03  0.13560481010E+04  0.89729106565E+03 0.  0.
         23    2    4    4    0    0 -0.69108362858E+03 -0.50015186608E+03 -0.61826804316E+03  0.10574604756E+04  0.90657671853E+02 0.  0.
         23    2    4    4    0    0 -0.39257213099E+02  0.27579388010E+03 -0.52553054332E+02  0.29858762539E+03  0.93751551631E+02 0.  0.
          4    1    3    3  502    0  0.19797042346E+03  0.95537333924E+02  0.20752947377E+03  0.30230473569E+03  0.00000000000E+00 0. -1.
         -3    1    3    3    0  502  0.53237041821E+03  0.12882065205E+03  0.58232784949E+03  0.79944902707E+03  0.00000000000E+00 0.  1.
         11    1    5    5    0    0 -0.39007670990E+03 -0.25548085595E+03 -0.28849344723E+03  0.54832360560E+03  0.00000000000E+00 0.  1.
        -11    1    5    5    0    0 -0.30100691868E+03 -0.24467101012E+03 -0.32977459592E+03  0.50913687001E+03  0.00000000000E+00 0. -1.
          1    1    6    6  503    0 -0.37010598701E+02  0.13565310868E+03  0.17850915455E+02  0.14173992202E+03  0.00000000000E+00 0. -1.
         -1    1    6    6    0  503 -0.22466143981E+01  0.14014077142E+03 -0.70403969787E+02  0.15684770337E+03  0.00000000000E+00 0.  1.
<mgrwt>
<rscale>  0 0.24549176E+04</rscale>
<asrwt>0</asrwt>
<pdfrwt beam="1">  1        2 0.17990505E+00 0.24549176E+04</pdfrwt>
<pdfrwt beam="2">  1       -1 0.19821831E+00 0.24549176E+04</pdfrwt>
<totfact> 0.31219244E+00</totfact>
</mgrwt>
</event>
<event>
12    6  0.1395358E-007  0.1743017E+04  0.7818608E-02  0.8737203E-01
         -1   -1    0    0    0  501 -0.00000000000E+00  0.00000000000E+00  0.11534837922E+04  0.11534837922E+04  0.00000000000E+00 0.  1.
          2   -1    0    0  501    0  0.00000000000E+00 -0.00000000000E+00 -0.65846357057E+03  0.65846357057E+03  0.00000000000E+00 0. -1.
         24    2    1    2    0    0  0.48745154098E+03  0.40310856156E+03  0.25724826250E+03  0.68744635985E+03  0.79374504067E+02 0.  0.
        254    2    1    2    0    0 -0.48745154098E+03 -0.40310856156E+03  0.23777195917E+03  0.11245010030E+04  0.89881115030E+03 0.  0.
         23    2    4    4    0    0 -0.58940808894E+03  0.33072388957E+02  0.29129573147E+03  0.66472143074E+03  0.92226347058E+02 0.  0.
         23    2    4    4    0    0  0.10195654796E+03 -0.43618095052E+03 -0.53523772296E+02  0.45977957223E+03  0.88789084767E+02 0.  0.
          4    1    3    3  502    0  0.15950574013E+03  0.15669612158E+03  0.12654217706E+03  0.25692154100E+03  0.00000000000E+00 0. -1.
         -3    1    3    3    0  502  0.32794580085E+03  0.24641243998E+03  0.13070608543E+03  0.43052481884E+03  0.00000000000E+00 0.  1.
         11    1    5    5    0    0 -0.96253299484E+02  0.11042979801E+02  0.12226767135E+02  0.97653156114E+02  0.00000000000E+00 0. -1.
        -11    1    5    5    0    0 -0.49315478946E+03  0.22029409156E+02  0.27906896434E+03  0.56706827463E+03  0.00000000000E+00 0.  1.
          1    1    6    6  503    0 -0.94474560434E+01 -0.28979926567E+02  0.11614018575E+02  0.32618644928E+02  0.00000000000E+00 0. -1.
         -1    1    6    6    0  503  0.11140400400E+03 -0.40720102395E+03 -0.65137790871E+02  0.42716092730E+03  0.00000000000E+00 0.  1.
<mgrwt>
<rscale>  0 0.17430170E+04</rscale>
<asrwt>0</asrwt>
<pdfrwt beam="1">  1        2 0.10130209E+00 0.17430170E+04</pdfrwt>
<pdfrwt beam="2">  1       -1 0.17745905E+00 0.17430170E+04</pdfrwt>
<totfact> 0.10402031E+01</totfact>
</mgrwt>
</event>
<event>
12    6  0.1395358E-007  0.3812172E+04  0.7818608E-02  0.8043548E-01
          2   -1    0    0  501    0  0.00000000000E+00  0.00000000000E+00  0.18186748872E+04  0.18186748872E+04  0.00000000000E+00 0. -1.
         -1   -1    0    0    0  501 -0.00000000000E+00 -0.00000000000E+00 -0.19976978660E+04  0.19976978660E+04  0.00000000000E+00 0.  1.
         24    2    1    2    0    0  0.16118275386E+04 -0.67719636639E+03  0.33918323434E+03  0.17827814519E+04  0.81740478768E+02 0.  0.
        254    2    1    2    0    0 -0.16118275386E+04  0.67719636639E+03 -0.51820621312E+03  0.20335913012E+04  0.90020718072E+03 0.  0.
         23    2    4    4    0    0 -0.32619492658E+03  0.39166699467E+03  0.17117765997E+03  0.54429654356E+03  0.84562232810E+02 0.  0.
         23    2    4    4    0    0 -0.12856326120E+04  0.28552937172E+03 -0.68938387309E+03  0.14892947577E+04  0.91490521314E+02 0.  0.
          4    1    3    3  502    0  0.14809132112E+04 -0.60997054292E+03  0.29031182971E+03  0.16277128005E+04  0.00000000000E+00 0. -1.
         -3    1    3    3    0  502  0.13091432737E+03 -0.67225823469E+02  0.48871404629E+02  0.15506865139E+03  0.00000000000E+00 0.  1.
         11    1    5    5    0    0 -0.98112940861E+02  0.81754961624E+02  0.13402213429E+02  0.12841200193E+03  0.00000000000E+00 0.  1.
        -11    1    5    5    0    0 -0.22808198572E+03  0.30991203305E+03  0.15777544654E+03  0.41588454163E+03  0.00000000000E+00 0. -1.
          2    1    6    6  503    0 -0.11928620633E+04  0.27785260605E+03 -0.66205561447E+03  0.13922785675E+04  0.00000000000E+00 0. -1.
         -2    1    6    6    0  503 -0.92770548701E+02  0.76767656694E+01 -0.27328258613E+02  0.97016190176E+02  0.00000000000E+00 0.  1.
<mgrwt>
<rscale>  0 0.38121715E+04</rscale>
<asrwt>0</asrwt>
<pdfrwt beam="1">  1        2 0.27979614E+00 0.38121715E+04</pdfrwt>
<pdfrwt beam="2">  1       -1 0.30733813E+00 0.38121715E+04</pdfrwt>
<totfact> 0.22725561E-01</totfact>
</mgrwt>
</event>
<event>
12    6  0.1395358E-007  0.1330383E+04  0.7818608E-02  0.9005812E-01
         -1   -1    0    0    0  501 -0.00000000000E+00  0.00000000000E+00  0.25963163475E+03  0.25963163475E+03  0.00000000000E+00 0.  1.
          2   -1    0    0  501    0  0.00000000000E+00 -0.00000000000E+00 -0.17042589295E+04  0.17042589295E+04  0.00000000000E+00 0. -1.
         24    2    1    2    0    0  0.21469391668E+03 -0.27098590224E+03 -0.27724003375E+03  0.45020605221E+03  0.79351219653E+02 0.  0.
        254    2    1    2    0    0 -0.21469391668E+03  0.27098590224E+03 -0.11673872610E+04  0.15136845121E+04  0.89940032679E+03 0.  0.
         23    2    4    4    0    0 -0.32366404700E+03 -0.16436509904E+03 -0.15456279862E+03  0.40264432760E+03  0.80364760492E+02 0.  0.
         23    2    4    4    0    0  0.10897013033E+03  0.43535100128E+03 -0.10128244624E+04  0.11110401845E+04  0.84805166420E+02 0.  0.
          2    1    3    3  502    0  0.17383397972E+03 -0.15929569772E+03 -0.18327437027E+03  0.29863500567E+03  0.00000000000E+00 0. -1.
         -1    1    3    3    0  502  0.40859936959E+02 -0.11169020452E+03 -0.93965663485E+02  0.15157104654E+03  0.00000000000E+00 0.  1.
         11    1    5    5    0    0 -0.11593552819E+02 -0.26035086048E+02 -0.14878741378E+01  0.28538569374E+02  0.00000000000E+00 0. -1.
        -11    1    5    5    0    0 -0.31207049418E+03 -0.13833001299E+03 -0.15307492448E+03  0.37410575823E+03  0.00000000000E+00 0.  1.
          1    1    6    6  503    0  0.39017728311E+02  0.31173763096E+03 -0.72161367304E+03  0.78703813554E+03  0.00000000000E+00 0. -1.
         -1    1    6    6    0  503  0.69952402016E+02  0.12361337032E+03 -0.29121078936E+03  0.32400204893E+03  0.00000000000E+00 0.  1.
<mgrwt>
<rscale>  0 0.13303827E+04</rscale>
<asrwt>0</asrwt>
<pdfrwt beam="1">  1        2 0.26219368E+00 0.13303827E+04</pdfrwt>
<pdfrwt beam="2">  1       -1 0.39943329E-01 0.13303827E+04</pdfrwt>
<totfact> 0.66368306E+01</totfact>
</mgrwt>
</event>
<event>
12    6  0.1395358E-007  0.1287450E+04  0.7818608E-02  0.9039577E-01
         -3   -1    0    0    0  501 -0.00000000000E+00  0.00000000000E+00  0.15449848075E+03  0.15449848075E+03  0.00000000000E+00 0.  1.
          2   -1    0    0  501    0  0.00000000000E+00 -0.00000000000E+00 -0.26821113424E+04  0.26821113424E+04  0.00000000000E+00 0. -1.
         24    2    1    2    0    0 -0.18983293478E+03  0.32802176389E+02 -0.12110860075E+04  0.12296858086E+04  0.91023868086E+02 0.  0.
        254    2    1    2    0    0  0.18983293478E+03 -0.32802176389E+02 -0.13165268542E+04  0.16069240145E+04  0.90102680579E+03 0.  0.
         23    2    4    4    0    0  0.29198106912E+03 -0.32748206148E+03 -0.30025401661E+03  0.54022018712E+03  0.95853694593E+02 0.  0.
         23    2    4    4    0    0 -0.10214813434E+03  0.29467988510E+03 -0.10162728375E+04  0.10667038274E+04  0.88182191903E+02 0.  0.
          2    1    3    3  502    0 -0.19545799460E+03  0.29269765083E+02 -0.12034264625E+04  0.12195473740E+04  0.00000000000E+00 0. -1.
         -1    1    3    3    0  502  0.56250598198E+01  0.35324113063E+01 -0.76595449870E+01  0.10138434644E+02  0.00000000000E+00 0.  1.
         11    1    5    5    0    0  0.24327149755E+03 -0.21126594401E+03 -0.20037544167E+03  0.37942672315E+03  0.00000000000E+00 0. -1.
        -11    1    5    5    0    0  0.48709571569E+02 -0.11621611747E+03 -0.99878574943E+02  0.16079346397E+03  0.00000000000E+00 0.  1.
          1    1    6    6  503    0 -0.91118912166E+02  0.25363950600E+03 -0.74770501011E+03  0.79479458812E+03  0.00000000000E+00 0. -1.
         -1    1    6    6    0  503 -0.11029222171E+02  0.41040379094E+02 -0.26856782744E+03  0.27190923926E+03  0.00000000000E+00 0.  1.
<mgrwt>
<rscale>  0 0.12874504E+04</rscale>
<asrwt>0</asrwt>
<pdfrwt beam="1">  1        2 0.41263250E+00 0.12874504E+04</pdfrwt>
<pdfrwt beam="2">  1       -3 0.23768998E-01 0.12874504E+04</pdfrwt>
<totfact> 0.29331234E+01</totfact>
</mgrwt>
</event>
<event>
12    6  0.1395358E-007  0.1484489E+04  0.7818608E-02  0.8894833E-01
          2   -1    0    0  501    0  0.00000000000E+00  0.00000000000E+00  0.94826581364E+03  0.94826581364E+03  0.00000000000E+00 0. -1.
         -1   -1    0    0    0  501 -0.00000000000E+00 -0.00000000000E+00 -0.58098390786E+03  0.58098390786E+03  0.00000000000E+00 0.  1.
         24    2    1    2    0    0 -0.40136399078E+03  0.10600385893E+03  0.31241405133E+03  0.52563107918E+03  0.79722147047E+02 0.  0.
        254    2    1    2    0    0  0.40136399078E+03 -0.10600385893E+03  0.54867854458E+02  0.10036186423E+04  0.91209101879E+03 0.  0.
         23    2    4    4    0    0 -0.27832475540E+03 -0.11905676737E+03  0.38180835341E+01  0.31584689914E+03  0.90030564847E+02 0.  0.
         23    2    4    4    0    0  0.67968874618E+03  0.13052908447E+02  0.51049770924E+02  0.68777174318E+03  0.90976488747E+02 0.  0.
          4    1    3    3  502    0 -0.20539881326E+03  0.55830955044E+02  0.20955546755E+03  0.29869593571E+03  0.00000000000E+00 0. -1.
         -3    1    3    3    0  502 -0.19596517752E+03  0.50172903883E+02  0.10285858378E+03  0.22693514347E+03  0.00000000000E+00 0.  1.
         11    1    5    5    0    0 -0.27448628103E+03 -0.96814075751E+02  0.13303234239E+02  0.29136344963E+03  0.00000000000E+00 0.  1.
        -11    1    5    5    0    0 -0.38384743721E+01 -0.22242691622E+02 -0.94851507050E+01  0.24483449512E+02  0.00000000000E+00 0. -1.
          4    1    6    6  503    0 -0.30229455924E+01 -0.15188148752E+00  0.57368909680E-04  0.30267586696E+01  0.00000000000E+00 0. -1.
         -4    1    6    6    0  503  0.68271169177E+03  0.13204789935E+02  0.51049713555E+02  0.68474498451E+03  0.00000000000E+00 0.  1.
<mgrwt>
<rscale>  0 0.14844894E+04</rscale>
<asrwt>0</asrwt>
<pdfrwt beam="1">  1        2 0.14588705E+00 0.14844894E+04</pdfrwt>
<pdfrwt beam="2">  1       -1 0.89382140E-01 0.14844894E+04</pdfrwt>
<totfact> 0.36862340E+01</totfact>
</mgrwt>
</event>
<event>
12    6  0.1395358E-007  0.1532864E+04  0.7818608E-02  0.8862888E-01
         -1   -1    0    0    0  501 -0.00000000000E+00  0.00000000000E+00  0.19517624849E+03  0.19517624849E+03  0.00000000000E+00 0.  1.
          2   -1    0    0  501    0  0.00000000000E+00 -0.00000000000E+00 -0.30096789595E+04  0.30096789595E+04  0.00000000000E+00 0. -1.
         24    2    1    2    0    0  0.22306755085E+03 -0.43786788173E+03 -0.10978350389E+04  0.12053622430E+04  0.78542664900E+02 0.  0.
        254    2    1    2    0    0 -0.22306755085E+03  0.43786788173E+03 -0.17166676722E+04  0.19994929650E+04  0.89974263342E+03 0.  0.
         23    2    4    4    0    0  0.33316161820E+03  0.15229475162E+03 -0.81735767355E+03  0.90032904826E+03  0.91260470132E+02 0.  0.
         23    2    4    4    0    0 -0.55622916905E+03  0.28557313010E+03 -0.89930999861E+03  0.10991639167E+04  0.91977938382E+02 0.  0.
          4    1    3    3  502    0  0.32940611754E+02 -0.10302260472E+03 -0.31290111369E+03  0.33106773919E+03  0.00000000000E+00 0. -1.
         -3    1    3    3    0  502  0.19012693910E+03 -0.33484527701E+03 -0.78493392520E+03  0.87429450383E+03  0.00000000000E+00 0.  1.
         11    1    5    5    0    0  0.33735572327E+03  0.14141331512E+03 -0.78922625484E+03  0.86987625042E+03  0.00000000000E+00 0.  1.
        -11    1    5    5    0    0 -0.41941050619E+01  0.10881436498E+02 -0.28131418706E+02  0.30452797834E+02  0.00000000000E+00 0. -1.
          4    1    6    6  503    0 -0.20104024086E+02  0.20916364647E+02 -0.78447061248E+02  0.83639748403E+02  0.00000000000E+00 0. -1.
         -4    1    6    6    0  503 -0.53612514497E+03  0.26465676546E+03 -0.82086293736E+03  0.10155241683E+04  0.00000000000E+00 0.  1.
<mgrwt>
<rscale>  0 0.15328638E+04</rscale>
<asrwt>0</asrwt>
<pdfrwt beam="1">  1        2 0.46302753E+00 0.15328638E+04</pdfrwt>
<pdfrwt beam="2">  1       -1 0.30027115E-01 0.15328638E+04</pdfrwt>
<totfact> 0.19331265E+01</totfact>
</mgrwt>
</event>
<event>
12    6  0.1395358E-007  0.1434737E+04  0.7818608E-02  0.8929051E-01
         -1   -1    0    0    0  501 -0.00000000000E+00  0.00000000000E+00  0.11679344328E+04  0.11679344328E+04  0.00000000000E+00 0.  1.
          2   -1    0    0  501    0  0.00000000000E+00 -0.00000000000E+00 -0.44062177072E+03  0.44062177072E+03  0.00000000000E+00 0. -1.
         24    2    1    2    0    0 -0.13900949641E+03  0.37905704272E+03  0.54492457435E+02  0.41506162798E+03  0.79365265563E+02 0.  0.
        254    2    1    2    0    0  0.13900949641E+03 -0.37905704272E+03  0.67282020464E+03  0.11934945755E+04  0.89929660975E+03 0.  0.
         23    2    4    4    0    0 -0.11683405289E+03 -0.42741642890E+02  0.74124460747E+03  0.75694435171E+03  0.89689127138E+02 0.  0.
         23    2    4    4    0    0  0.25584354930E+03 -0.33631539983E+03 -0.68424402825E+02  0.43655022382E+03  0.85616757319E+02 0.  0.
          4    1    3    3  502    0 -0.10916738668E+03  0.18924864815E+03  0.42300815936E+02  0.22253522905E+03  0.00000000000E+00 0. -1.
         -3    1    3    3    0  502 -0.29842109736E+02  0.18980839457E+03  0.12191641499E+02  0.19252639893E+03  0.00000000000E+00 0.  1.
         11    1    5    5    0    0 -0.13491189598E+02  0.18160461999E+02  0.25973024899E+03  0.26071366826E+03  0.00000000000E+00 0. -1.
        -11    1    5    5    0    0 -0.10334286329E+03 -0.60902104888E+02  0.48151435848E+03  0.49623068345E+03  0.00000000000E+00 0.  1.
          3    1    6    6  503    0  0.11860862626E+03 -0.22154355484E+03 -0.25618622167E+02  0.25259823182E+03  0.00000000000E+00 0. -1.
         -3    1    6    6    0  503  0.13723492304E+03 -0.11477184499E+03 -0.42805780658E+02  0.18395199200E+03  0.00000000000E+00 0.  1.
<mgrwt>
<rscale>  0 0.14347367E+04</rscale>
<asrwt>0</asrwt>
<pdfrwt beam="1">  1        2 0.67787965E-01 0.14347367E+04</pdfrwt>
<pdfrwt beam="2">  1       -1 0.17968222E+00 0.14347367E+04</pdfrwt>
<totfact> 0.16549847E+01</totfact>
</mgrwt>
</event>
<event>
12    6  0.1395358E-007  0.1296591E+04  0.7818608E-02  0.9032273E-01
          2   -1    0    0  501    0  0.00000000000E+00  0.00000000000E+00  0.85309459962E+03  0.85309459962E+03  0.00000000000E+00 0. -1.
         -1   -1    0    0    0  501 -0.00000000000E+00 -0.00000000000E+00 -0.49266205606E+03  0.49266205606E+03  0.00000000000E+00 0.  1.
         24    2    1    2    0    0 -0.69755208860E+02 -0.25007867116E+02 -0.23924289760E+03  0.26270901783E+03  0.79294901561E+02 0.  0.
        254    2    1    2    0    0  0.69755208860E+02  0.25007867116E+02  0.59967544116E+03  0.10830476379E+04  0.89882721842E+03 0.  0.
         23    2    4    4    0    0  0.13868617323E+03  0.41121422555E+03  0.12455992442E+03  0.46120724802E+03  0.94159210468E+02 0.  0.
         23    2    4    4    0    0 -0.68930964371E+02 -0.38620635844E+03  0.47511551674E+03  0.62184038984E+03  0.83927868067E+02 0.  0.
          4    1    3    3  502    0 -0.42505559995E+02 -0.31339605946E+02 -0.54607565013E+02  0.75966306268E+02  0.00000000000E+00 0. -1.
         -3    1    3    3    0  502 -0.27249648865E+02  0.63317388308E+01 -0.18463533259E+03  0.18674271156E+03  0.00000000000E+00 0.  1.
         11    1    5    5    0    0  0.14008751839E+03  0.39714085370E+03  0.13650471140E+03  0.44269504935E+03  0.00000000000E+00 0. -1.
        -11    1    5    5    0    0 -0.14013451545E+01  0.14073371851E+02 -0.11944786985E+02  0.18512198670E+02  0.00000000000E+00 0.  1.
          4    1    6    6  503    0 -0.18821726465E+02 -0.93563994933E+01  0.24622721524E+02  0.32374033018E+02  0.00000000000E+00 0.  1.
         -4    1    6    6    0  503 -0.50109237907E+02 -0.37684995894E+03  0.45049279522E+03  0.58946635682E+03  0.00000000000E+00 0. -1.
<mgrwt>
<rscale>  0 0.12965914E+04</rscale>
<asrwt>0</asrwt>
<pdfrwt beam="1">  1        2 0.13124532E+00 0.12965914E+04</pdfrwt>
<pdfrwt beam="2">  1       -1 0.75794162E-01 0.12965914E+04</pdfrwt>
<totfact> 0.61827352E+01</totfact>
</mgrwt>
</event>
<event>
12    6  0.1395358E-007  0.1244868E+04  0.7818608E-02  0.9074466E-01
          2   -1    0    0  501    0  0.00000000000E+00  0.00000000000E+00  0.39737673935E+04  0.39737673935E+04  0.00000000000E+00 0. -1.
         -1   -1    0    0    0  501 -0.00000000000E+00 -0.00000000000E+00 -0.97495351471E+02  0.97495351471E+02  0.00000000000E+00 0.  1.
         24    2    1    2    0    0 -0.15120390461E+03  0.14407311926E+03  0.27687698429E+03  0.35482874600E+03  0.74985932662E+02 0.  0.
        254    2    1    2    0    0  0.15120390461E+03 -0.14407311926E+03  0.35993950578E+04  0.37164339990E+04  0.90145282879E+03 0.  0.
         23    2    4    4    0    0  0.13076540690E+03 -0.25196393198E+03  0.33350208309E+03  0.44740711134E+03  0.91455285191E+02 0.  0.
         23    2    4    4    0    0  0.20438497713E+02  0.10789081272E+03  0.32658929747E+04  0.32690268877E+04  0.91769877943E+02 0.  0.
          2    1    3    3  502    0 -0.61609645303E+02  0.70990675854E+02  0.18363899663E+03  0.20629761399E+03  0.00000000000E+00 0. -1.
         -1    1    3    3    0  502 -0.89594259310E+02  0.73082443409E+02  0.93237987656E+02  0.14853113202E+03  0.00000000000E+00 0.  1.
         11    1    5    5    0    0 -0.34556336299E+01  0.46109000605E+00 -0.38593371411E+01  0.52008163731E+01  0.00000000000E+00 0.  1.
        -11    1    5    5    0    0  0.13422104053E+03 -0.25242502199E+03  0.33736142023E+03  0.44220629497E+03  0.00000000000E+00 0. -1.
          1    1    6    6  503    0  0.56397347624E+01  0.11843025032E+03  0.23837052572E+04  0.23866521078E+04  0.00000000000E+00 0. -1.
         -1    1    6    6    0  503  0.14798762950E+02 -0.10539437599E+02  0.88218771752E+03  0.88237477983E+03  0.00000000000E+00 0.  1.
<mgrwt>
<rscale>  0 0.12448676E+04</rscale>
<asrwt>0</asrwt>
<pdfrwt beam="1">  1        2 0.61134871E+00 0.12448676E+04</pdfrwt>
<pdfrwt beam="2">  1       -1 0.14999288E-01 0.12448676E+04</pdfrwt>
<totfact> 0.13732868E+01</totfact>
</mgrwt>
</event>
<event>
12    6  0.1395358E-007  0.1381449E+04  0.7818608E-02  0.8967357E-01
          2   -1    0    0  501    0  0.00000000000E+00  0.00000000000E+00  0.31837756238E+04  0.31837756238E+04  0.00000000000E+00 0. -1.
         -1   -1    0    0    0  501 -0.00000000000E+00 -0.00000000000E+00 -0.14985362798E+03  0.14985362798E+03  0.00000000000E+00 0.  1.
         24    2    1    2    0    0  0.44739770702E+02  0.31984454173E+03  0.14054203851E+04  0.14441947574E+04  0.78675665492E+02 0.  0.
        254    2    1    2    0    0 -0.44739770702E+02 -0.31984454173E+03  0.16285016106E+04  0.18894344943E+04  0.90202163757E+03 0.  0.
         23    2    4    4    0    0  0.31829348573E+03  0.11650103746E+03  0.87440368094E+03  0.94137643649E+03  0.82003433711E+02 0.  0.
         23    2    4    4    0    0 -0.36303325643E+03 -0.43634557919E+03  0.75409792968E+03  0.94805805786E+03  0.89217620225E+02 0.  0.
          2    1    3    3  502    0 -0.18819870045E+02  0.12572842104E+03  0.59506989243E+03  0.60849815139E+03  0.00000000000E+00 0. -1.
         -1    1    3    3    0  502  0.63559640747E+02  0.19411612069E+03  0.81035049271E+03  0.83569660600E+03  0.00000000000E+00 0.  1.
         11    1    5    5    0    0  0.26211575735E+03  0.12311185462E+03  0.76962779413E+03  0.82230659763E+03  0.00000000000E+00 0. -1.
        -11    1    5    5    0    0  0.56177728378E+02 -0.66108171613E+01  0.10477588681E+03  0.11906983886E+03  0.00000000000E+00 0.  1.
          1    1    6    6  503    0 -0.27201475904E+03 -0.33490269435E+03  0.50584615003E+03  0.66485500022E+03  0.00000000000E+00 0. -1.
         -1    1    6    6    0  503 -0.91018497389E+02 -0.10144288484E+03  0.24825177966E+03  0.28320305763E+03  0.00000000000E+00 0.  1.
<mgrwt>
<rscale>  0 0.13814490E+04</rscale>
<asrwt>0</asrwt>
<pdfrwt beam="1">  1        2 0.48981158E+00 0.13814490E+04</pdfrwt>
<pdfrwt beam="2">  1       -1 0.23054407E-01 0.13814490E+04</pdfrwt>
<totfact> 0.24020502E+01</totfact>
</mgrwt>
</event>
<event>
12    6  0.1395358E-007  0.1503627E+04  0.7818608E-02  0.8882045E-01
          2   -1    0    0  501    0  0.00000000000E+00  0.00000000000E+00  0.62198991665E+03  0.62198991665E+03  0.00000000000E+00 0. -1.
         -1   -1    0    0    0  501 -0.00000000000E+00 -0.00000000000E+00 -0.90873425408E+03  0.90873425408E+03  0.00000000000E+00 0.  1.
         24    2    1    2    0    0 -0.29656599208E+03 -0.13968991065E+03 -0.45030381723E+03  0.56280918164E+03  0.80721671978E+02 0.  0.
        254    2    1    2    0    0  0.29656599208E+03  0.13968991065E+03  0.16355947979E+03  0.96791498909E+03  0.89590349027E+03 0.  0.
         23    2    4    4    0    0  0.54606089216E+03 -0.73281849543E+02  0.25901816165E+03  0.61560179428E+03  0.91227373278E+02 0.  0.
         23    2    4    4    0    0 -0.24949490008E+03  0.21297176020E+03 -0.95458681862E+02  0.35231319481E+03  0.86067133613E+02 0.  0.
          4    1    3    3  502    0 -0.72810885697E+02 -0.73352360988E+02 -0.11997845397E+03  0.15835663345E+03  0.00000000000E+00 0. -1.
         -3    1    3    3    0  502 -0.22375510638E+03 -0.66337549665E+02 -0.33032536325E+03  0.40445254819E+03  0.00000000000E+00 0.  1.
         11    1    5    5    0    0  0.20967814495E+03 -0.44022522526E+02  0.55366744729E+02  0.22128801002E+03  0.00000000000E+00 0.  1.
        -11    1    5    5    0    0  0.33638274722E+03 -0.29259327017E+02  0.20365141692E+03  0.39431378426E+03  0.00000000000E+00 0. -1.
          1    1    6    6  503    0 -0.20891938625E+03  0.19324711129E+03 -0.10970252620E+03  0.30500229544E+03  0.00000000000E+00 0. -1.
         -1    1    6    6    0  503 -0.40575513835E+02  0.19724648908E+02  0.14243844340E+02  0.47310899369E+02  0.00000000000E+00 0.  1.
<mgrwt>
<rscale>  0 0.15036270E+04</rscale>
<asrwt>0</asrwt>
<pdfrwt beam="1">  1        2 0.95690756E-01 0.15036270E+04</pdfrwt>
<pdfrwt beam="2">  1       -1 0.13980527E+00 0.15036270E+04</pdfrwt>
<totfact> 0.22042632E+01</totfact>
</mgrwt>
</event>
<event>
12    6  0.1395358E-007  0.2838826E+04  0.7818608E-02  0.8291315E-01
          2   -1    0    0  501    0  0.00000000000E+00  0.00000000000E+00  0.93940444010E+03  0.93940444010E+03  0.00000000000E+00 0. -1.
         -1   -1    0    0    0  501 -0.00000000000E+00 -0.00000000000E+00 -0.21446922283E+04  0.21446922283E+04  0.00000000000E+00 0.  1.
         24    2    1    2    0    0  0.10123119345E+03 -0.32246233515E+03  0.79393744106E+03  0.86667811506E+03  0.81022112286E+02 0.  0.
        254    2    1    2    0    0 -0.10123119345E+03  0.32246233515E+03 -0.19992252292E+04  0.22174185533E+04  0.89767132695E+03 0.  0.
         23    2    4    4    0    0 -0.12653848186E+03  0.51621843936E+03 -0.62175910372E+03  0.82309679549E+03  0.91708708250E+02 0.  0.
         23    2    4    4    0    0  0.25307288413E+02 -0.19375610421E+03 -0.13774661255E+04  0.13943217578E+04  0.92403195875E+02 0.  0.
          2    1    3    3  502    0  0.93810232971E+01 -0.76591895088E+02  0.26798342633E+03  0.27887172460E+03  0.00000000000E+00 0. -1.
         -1    1    3    3    0  502  0.91850170149E+02 -0.24587044006E+03  0.52595401473E+03  0.58780639046E+03  0.00000000000E+00 0.  1.
         11    1    5    5    0    0 -0.55082517255E+02  0.10159615407E+03 -0.17203394360E+03  0.20724753311E+03  0.00000000000E+00 0. -1.
        -11    1    5    5    0    0 -0.71455964604E+02  0.41462228529E+03 -0.44972516012E+03  0.61584926238E+03  0.00000000000E+00 0.  1.
          2    1    6    6  503    0  0.19423146970E+02 -0.17048066639E+02 -0.41131337498E+03  0.41212448077E+03  0.00000000000E+00 0. -1.
         -2    1    6    6    0  503  0.58841414433E+01 -0.17670803757E+03 -0.96615275053E+03  0.98219727703E+03  0.00000000000E+00 0.  1.
<mgrwt>
<rscale>  0 0.28388261E+04</rscale>
<asrwt>0</asrwt>
<pdfrwt beam="1">  1        2 0.14452376E+00 0.28388261E+04</pdfrwt>
<pdfrwt beam="2">  1       -1 0.32995264E+00 0.28388261E+04</pdfrwt>
<totfact> 0.57464755E-01</totfact>
</mgrwt>
</event>
<event>
12    6  0.1395358E-007  0.1728741E+04  0.7818608E-02  0.8745140E-01
          2   -1    0    0  501    0  0.00000000000E+00  0.00000000000E+00  0.24741103831E+04  0.24741103831E+04  0.00000000000E+00 0. -1.
         -1   -1    0    0    0  501 -0.00000000000E+00 -0.00000000000E+00 -0.30198167890E+03  0.30198167890E+03  0.00000000000E+00 0.  1.
         24    2    1    2    0    0  0.22891414159E+03 -0.53966607200E+03  0.11461365464E+04  0.12904205078E+04  0.88966007667E+02 0.  0.
        254    2    1    2    0    0 -0.22891414159E+03  0.53966607200E+03  0.10259921578E+04  0.14856715541E+04  0.90051035836E+03 0.  0.
         23    2    4    4    0    0 -0.52221813466E+03  0.43510113317E+03  0.91164081291E+03  0.11417655280E+04  0.10254156619E+03 0.  0.
         23    2    4    4    0    0  0.29330399306E+03  0.10456493883E+03  0.11435134485E+03  0.34390602619E+03  0.90741754464E+02 0.  0.
          4    1    3    3  502    0 -0.18983011959E+01 -0.43570524851E+02  0.11711882607E+03  0.12497525196E+03  0.00000000000E+00 0. -1.
         -3    1    3    3    0  502  0.23081244279E+03 -0.49609554715E+03  0.10290177204E+04  0.11654452559E+04  0.00000000000E+00 0.  1.
         11    1    5    5    0    0 -0.38646504139E+03  0.32644315956E+03  0.74787013394E+03  0.90290093691E+03  0.00000000000E+00 0. -1.
        -11    1    5    5    0    0 -0.13575309326E+03  0.10865797361E+03  0.16377067898E+03  0.23886459104E+03  0.00000000000E+00 0.  1.
          3    1    6    6  503    0  0.16622287573E+03  0.96245977918E+02  0.39209757814E+02  0.19603759279E+03  0.00000000000E+00 0. -1.
         -3    1    6    6    0  503  0.12708111734E+03  0.83189609153E+01  0.75141587034E+02  0.14786843340E+03  0.00000000000E+00 0.  1.
<mgrwt>
<rscale>  0 0.17287406E+04</rscale>
<asrwt>0</asrwt>
<pdfrwt beam="1">  1        2 0.38063235E+00 0.17287406E+04</pdfrwt>
<pdfrwt beam="2">  1       -1 0.46458722E-01 0.17287406E+04</pdfrwt>
<totfact> 0.17995155E+01</totfact>
</mgrwt>
</event>
<event>
12    6  0.1395358E-007  0.1679631E+04  0.7818608E-02  0.8773067E-01
         -1   -1    0    0    0  501 -0.00000000000E+00  0.00000000000E+00  0.91861912541E+03  0.91861912541E+03  0.00000000000E+00 0.  1.
          2   -1    0    0  501    0  0.00000000000E+00 -0.00000000000E+00 -0.76777229886E+03  0.76777229886E+03  0.00000000000E+00 0. -1.
         24    2    1    2    0    0  0.33869252969E+03  0.50749583412E+01  0.54512081714E+03  0.64629842877E+03  0.76200845703E+02 0.  0.
        254    2    1    2    0    0 -0.33869252969E+03 -0.50749583412E+01 -0.39427399058E+03  0.10400929955E+04  0.90089015688E+03 0.  0.
         23    2    4    4    0    0 -0.44632725978E+03  0.35382009540E+03 -0.24213654730E+03  0.62553479320E+03  0.90922974215E+02 0.  0.
         23    2    4    4    0    0  0.10763473009E+03 -0.35889505374E+03 -0.15213744328E+03  0.41455820230E+03  0.91223937251E+02 0.  0.
          4    1    3    3  502    0 -0.23457306025E+01  0.35322258842E+01  0.13884351979E+01  0.44617064062E+01  0.00000000000E+00 0. -1.
         -3    1    3    3    0  502  0.34103826030E+03  0.15427324570E+01  0.54373238194E+03  0.64183672237E+03  0.00000000000E+00 0.  1.
         11    1    5    5    0    0 -0.14630151095E+03  0.64254137877E+02 -0.68774883536E+02  0.17396180887E+03  0.00000000000E+00 0.  1.
        -11    1    5    5    0    0 -0.30002574883E+03  0.28956595752E+03 -0.17336166376E+03  0.45157298433E+03  0.00000000000E+00 0. -1.
          3    1    6    6  503    0  0.95406118234E+02 -0.34927498143E+03 -0.12456588132E+03  0.38289946309E+03  0.00000000000E+00 0. -1.
         -3    1    6    6    0  503  0.12228611851E+02 -0.96200723091E+01 -0.27571561963E+02  0.31658739206E+02  0.00000000000E+00 0.  1.
<mgrwt>
<rscale>  0 0.16796313E+04</rscale>
<asrwt>0</asrwt>
<pdfrwt beam="1">  1        2 0.11811881E+00 0.16796313E+04</pdfrwt>
<pdfrwt beam="2">  1       -1 0.14132602E+00 0.16796313E+04</pdfrwt>
<totfact> 0.16185494E+01</totfact>
</mgrwt>
</event>
<event>
12    6  0.1395358E-007  0.2588339E+04  0.7818608E-02  0.8372173E-01
          2   -1    0    0  501    0  0.00000000000E+00  0.00000000000E+00  0.25851810591E+04  0.25851810591E+04  0.00000000000E+00 0. -1.
         -1   -1    0    0    0  501 -0.00000000000E+00 -0.00000000000E+00 -0.64787533001E+03  0.64787533001E+03  0.00000000000E+00 0.  1.
         24    2    1    2    0    0 -0.28226823531E+03  0.11000140252E+04  0.79917796181E+03  0.13909520172E+04  0.79723818890E+02 0.  0.
        254    2    1    2    0    0  0.28226823531E+03 -0.11000140252E+04  0.11381277673E+04  0.18421043719E+04  0.89905922509E+03 0.  0.
         23    2    4    4    0    0 -0.16632898021E+03 -0.62337512039E+03  0.17548663626E+03  0.67469242133E+03  0.90290827438E+02 0.  0.
         23    2    4    4    0    0  0.44859721552E+03 -0.47663890477E+03  0.96264113104E+03  0.11674119506E+04  0.88026177590E+02 0.  0.
          4    1    3    3  502    0 -0.12245154160E+03  0.51930440712E+03  0.42241458276E+03  0.68051857214E+03  0.00000000000E+00 0. -1.
         -3    1    3    3    0  502 -0.15981669372E+03  0.58070961803E+03  0.37676337905E+03  0.71043344506E+03  0.00000000000E+00 0.  1.
         11    1    5    5    0    0 -0.19836148380E+02 -0.42144140013E+02  0.37021726296E+02  0.59499659982E+02  0.00000000000E+00 0. -1.
        -11    1    5    5    0    0 -0.14649283183E+03 -0.58123098037E+03  0.13846490996E+03  0.61519276135E+03  0.00000000000E+00 0.  1.
          4    1    6    6  503    0  0.36273467469E+03 -0.32949718239E+03  0.71886386137E+03  0.87000579803E+03  0.00000000000E+00 0.  1.
         -4    1    6    6    0  503  0.85862540830E+02 -0.14714172238E+03  0.24377726967E+03  0.29740615258E+03  0.00000000000E+00 0. -1.
<mgrwt>
<rscale>  0 0.25883393E+04</rscale>
<asrwt>0</asrwt>
<pdfrwt beam="1">  1        2 0.39772016E+00 0.25883393E+04</pdfrwt>
<pdfrwt beam="2">  1       -1 0.99673129E-01 0.25883393E+04</pdfrwt>
<totfact> 0.30012862E+00</totfact>
</mgrwt>
</event>
<event>
12    6  0.1395358E-007  0.1669237E+04  0.7818608E-02  0.8779107E-01
         -1   -1    0    0    0  501 -0.00000000000E+00  0.00000000000E+00  0.41434123244E+03  0.41434123244E+03  0.00000000000E+00 0.  1.
          2   -1    0    0  501    0  0.00000000000E+00 -0.00000000000E+00 -0.16811940752E+04  0.16811940752E+04  0.00000000000E+00 0. -1.
         24    2    1    2    0    0 -0.11888983725E+03  0.55908358356E+03 -0.63116207308E+03  0.85558273361E+03  0.83348693827E+02 0.  0.
        254    2    1    2    0    0  0.11888983725E+03 -0.55908358356E+03 -0.63569076971E+03  0.12399525740E+04  0.89814830867E+03 0.  0.
         23    2    4    4    0    0  0.19002769058E+03  0.20381998889E+03 -0.17100105898E+03  0.33943850862E+03  0.91236110755E+02 0.  0.
         23    2    4    4    0    0 -0.71137853329E+02 -0.76290357245E+03 -0.46468971072E+03  0.90051406542E+03  0.88919062814E+02 0.  0.
          4    1    3    3  502    0 -0.12959161792E+03  0.46153544111E+03 -0.51748935044E+03  0.70541064541E+03  0.00000000000E+00 0. -1.
         -3    1    3    3    0  502  0.10701780671E+02  0.97548142449E+02 -0.11367272264E+03  0.15017208821E+03  0.00000000000E+00 0.  1.
         11    1    5    5    0    0 -0.11963773661E+01 -0.49727926508E+01  0.40867920576E+01  0.65468965833E+01  0.00000000000E+00 0. -1.
        -11    1    5    5    0    0  0.19122406794E+03  0.20879278154E+03 -0.17508785104E+03  0.33289161204E+03  0.00000000000E+00 0.  1.
          2    1    6    6  503    0 -0.73968653104E+02 -0.72115637766E+03 -0.41414738677E+03  0.83489876071E+03  0.00000000000E+00 0.  1.
         -2    1    6    6    0  503  0.28307997750E+01 -0.41747194790E+02 -0.50542323955E+02  0.65615304700E+02  0.00000000000E+00 0. -1.
<mgrwt>
<rscale>  0 0.16692370E+04</rscale>
<asrwt>0</asrwt>
<pdfrwt beam="1">  1        2 0.25864525E+00 0.16692370E+04</pdfrwt>
<pdfrwt beam="2">  1       -1 0.63744803E-01 0.16692370E+04</pdfrwt>
<totfact> 0.27244872E+01</totfact>
</mgrwt>
</event>
<event>
12    6  0.1395358E-007  0.3126802E+04  0.7818608E-02  0.8208421E-01
         -1   -1    0    0    0  501 -0.00000000000E+00  0.00000000000E+00  0.16513854695E+04  0.16513854695E+04  0.00000000000E+00 0.  1.
          2   -1    0    0  501    0  0.00000000000E+00 -0.00000000000E+00 -0.14801040242E+04  0.14801040242E+04  0.00000000000E+00 0. -1.
         24    2    1    2    0    0 -0.26713624181E+02  0.14100149793E+04  0.35480094873E+03  0.14561817331E+04  0.75668138636E+02 0.  0.
        254    2    1    2    0    0  0.26713624181E+02 -0.14100149793E+04 -0.18351950343E+03  0.16753077606E+04  0.88550597133E+03 0.  0.
         23    2    4    4    0    0 -0.18622063564E+03 -0.14163304196E+04 -0.17689782773E+03  0.14422645005E+04  0.90355217528E+02 0.  0.
         23    2    4    4    0    0  0.21293425982E+03  0.63154403156E+01 -0.66216757000E+01  0.23304326016E+03  0.94257258203E+02 0.  0.
          4    1    3    3  502    0  0.21730474212E+02  0.78317001890E+03  0.18776510134E+03  0.80565701467E+03  0.00000000000E+00 0. -1.
         -3    1    3    3    0  502 -0.48444098392E+02  0.62684496035E+03  0.16703584739E+03  0.65052471844E+03  0.00000000000E+00 0.  1.
         11    1    5    5    0    0 -0.87453465953E+02 -0.53159914614E+03 -0.10725672966E+03  0.54931754655E+03  0.00000000000E+00 0.  1.
        -11    1    5    5    0    0 -0.98767169691E+02 -0.88473127343E+03 -0.69641098074E+02  0.89294695393E+03  0.00000000000E+00 0. -1.
          3    1    6    6  503    0  0.20347015036E+02  0.32276484283E+02 -0.65580668114E+01  0.38714089152E+02  0.00000000000E+00 0. -1.
         -3    1    6    6    0  503  0.19258724479E+03 -0.25961043967E+02 -0.63608888641E-01  0.19432917101E+03  0.00000000000E+00 0.  1.
<mgrwt>
<rscale>  0 0.31268017E+04</rscale>
<asrwt>0</asrwt>
<pdfrwt beam="1">  1        2 0.22770831E+00 0.31268017E+04</pdfrwt>
<pdfrwt beam="2">  1       -1 0.25405930E+00 0.31268017E+04</pdfrwt>
<totfact> 0.82419013E-01</totfact>
</mgrwt>
</event>
<event>
12    6  0.1395358E-007  0.2087829E+04  0.7818608E-02  0.8566624E-01
          2   -1    0    0  501    0  0.00000000000E+00  0.00000000000E+00  0.13155233582E+04  0.13155233582E+04  0.00000000000E+00 0. -1.
         -1   -1    0    0    0  501 -0.00000000000E+00 -0.00000000000E+00 -0.82838326150E+03  0.82838326150E+03  0.00000000000E+00 0.  1.
         24    2    1    2    0    0 -0.45092161043E+03  0.62963910355E+03  0.55623072111E+03  0.95687171189E+03  0.80219439304E+02 0.  0.
        254    2    1    2    0    0  0.45092161043E+03 -0.62963910355E+03 -0.69090624407E+02  0.11870349078E+04  0.89694072184E+03 0.  0.
         23    2    4    4    0    0  0.12716260365E+03 -0.24700956738E+03  0.39993387796E+03  0.49484039690E+03  0.87953723759E+02 0.  0.
         23    2    4    4    0    0  0.32375900678E+03 -0.38262953617E+03 -0.46902450237E+03  0.69219451090E+03  0.89016856126E+02 0.  0.
          2    1    3    3  502    0 -0.13605825160E+03  0.23459322312E+03  0.16027473672E+03  0.31501399872E+03  0.00000000000E+00 0. -1.
         -1    1    3    3    0  502 -0.31486335883E+03  0.39504588043E+03  0.39595598439E+03  0.64185771317E+03  0.00000000000E+00 0.  1.
         11    1    5    5    0    0 -0.43850806549E+01 -0.73429553897E+02  0.10516813614E+03  0.12834120608E+03  0.00000000000E+00 0.  1.
        -11    1    5    5    0    0  0.13154768430E+03 -0.17358001348E+03  0.29476574182E+03  0.36649919083E+03  0.00000000000E+00 0. -1.
          4    1    6    6  503    0  0.17696592498E+03 -0.25869074906E+03 -0.25054768400E+03  0.40126298635E+03  0.00000000000E+00 0. -1.
         -4    1    6    6    0  503  0.14679308180E+03 -0.12393878712E+03 -0.21847681837E+03  0.29093152456E+03  0.00000000000E+00 0.  1.
<mgrwt>
<rscale>  0 0.20878290E+04</rscale>
<asrwt>0</asrwt>
<pdfrwt beam="1">  1        2 0.20238821E+00 0.20878290E+04</pdfrwt>
<pdfrwt beam="2">  1       -1 0.12744358E+00 0.20878290E+04</pdfrwt>
<totfact> 0.90767326E+00</totfact>
</mgrwt>
</event>
<event>
12    6  0.1395358E-007  0.2166588E+04  0.7818608E-02  0.8532465E-01
         -1   -1    0    0    0  501 -0.00000000000E+00  0.00000000000E+00  0.71162937246E+03  0.71162937246E+03  0.00000000000E+00 0.  1.
          2   -1    0    0  501    0  0.00000000000E+00 -0.00000000000E+00 -0.16490692706E+04  0.16490692706E+04  0.00000000000E+00 0. -1.
         24    2    1    2    0    0 -0.31835108978E+03 -0.83010818003E+03 -0.49628252410E+03  0.10210683681E+04  0.76532748806E+02 0.  0.
        254    2    1    2    0    0  0.31835108978E+03  0.83010818003E+03 -0.44115737403E+03  0.13396302750E+04  0.89975687719E+03 0.  0.
         23    2    4    4    0    0  0.29538416690E+03  0.98276604665E+03 -0.50760306408E+03  0.11485194544E+04  0.91406553552E+02 0.  0.
         23    2    4    4    0    0  0.22966922884E+02 -0.15265786662E+03  0.66445690047E+02  0.19111082055E+03  0.90974788926E+02 0.  0.
          2    1    3    3  502    0 -0.28176214985E+03 -0.68114090913E+03 -0.38537738925E+03  0.83178036724E+03  0.00000000000E+00 0. -1.
         -1    1    3    3    0  502 -0.36588939934E+02 -0.14896727089E+03 -0.11090513485E+03  0.18928800084E+03  0.00000000000E+00 0.  1.
         11    1    5    5    0    0  0.12507790766E+03  0.38351185254E+03 -0.15124522627E+03  0.43081427842E+03  0.00000000000E+00 0. -1.
        -11    1    5    5    0    0  0.17030625924E+03  0.59925419411E+03 -0.35635783782E+03  0.71770517601E+03  0.00000000000E+00 0.  1.
          2    1    6    6  503    0  0.47893740649E+02 -0.13447582980E+03  0.71810324203E+02  0.15979449883E+03  0.00000000000E+00 0.  1.
         -2    1    6    6    0  503 -0.24926817766E+02 -0.18182036815E+02 -0.53646341562E+01  0.31316321724E+02  0.00000000000E+00 0. -1.
<mgrwt>
<rscale>  0 0.21665882E+04</rscale>
<asrwt>0</asrwt>
<pdfrwt beam="1">  1        2 0.25370296E+00 0.21665882E+04</pdfrwt>
<pdfrwt beam="2">  1       -1 0.10948144E+00 0.21665882E+04</pdfrwt>
<totfact> 0.84341389E+00</totfact>
</mgrwt>
</event>
<event>
12    6  0.1395358E-007  0.2074146E+04  0.7818608E-02  0.8572719E-01
         -1   -1    0    0    0  501 -0.00000000000E+00  0.00000000000E+00  0.91390208639E+03  0.91390208639E+03  0.00000000000E+00 0.  1.
          2   -1    0    0  501    0  0.00000000000E+00 -0.00000000000E+00 -0.11768438637E+04  0.11768438637E+04  0.00000000000E+00 0. -1.
         24    2    1    2    0    0  0.29554320093E+03  0.40107827170E+03  0.57403819164E+03  0.76437386526E+03  0.80857880111E+02 0.  0.
        254    2    1    2    0    0 -0.29554320093E+03 -0.40107827170E+03 -0.83697996895E+03  0.13263720848E+04  0.90028766255E+03 0.  0.
         23    2    4    4    0    0  0.29918319940E+03 -0.25821795927E+03 -0.27487991058E+03  0.48997465630E+03  0.91263888158E+02 0.  0.
         23    2    4    4    0    0 -0.59472640034E+03 -0.14286031244E+03 -0.56210005837E+03  0.83639742853E+03  0.97445485832E+02 0.  0.
          4    1    3    3  502    0  0.19687740975E+03  0.28766841577E+03  0.34527067269E+03  0.49063802270E+03  0.00000000000E+00 0. -1.
         -3    1    3    3    0  502  0.98665791181E+02  0.11340985593E+03  0.22876751895E+03  0.27373584255E+03  0.00000000000E+00 0.  1.
         11    1    5    5    0    0  0.20402072016E+03 -0.12457889693E+03 -0.13601267295E+03  0.27503418518E+03  0.00000000000E+00 0. -1.
        -11    1    5    5    0    0  0.95162479244E+02 -0.13363906234E+03 -0.13886723763E+03  0.21494047112E+03  0.00000000000E+00 0.  1.
          1    1    6    6  503    0 -0.54581030199E+03 -0.11245099154E+03 -0.53583634200E+03  0.77309423531E+03  0.00000000000E+00 0. -1.
         -1    1    6    6    0  503 -0.48916098345E+02 -0.30409320898E+02 -0.26263716368E+02  0.63303193224E+02  0.00000000000E+00 0.  1.
<mgrwt>
<rscale>  0 0.20741457E+04</rscale>
<asrwt>0</asrwt>
<pdfrwt beam="1">  1        2 0.18105290E+00 0.20741457E+04</pdfrwt>
<pdfrwt beam="2">  1       -1 0.14060032E+00 0.20741457E+04</pdfrwt>
<totfact> 0.85358296E+00</totfact>
</mgrwt>
</event>
<event>
12    6  0.1395358E-007  0.2057036E+04  0.7818608E-02  0.8580409E-01
         -1   -1    0    0    0  501 -0.00000000000E+00  0.00000000000E+00  0.97231491592E+03  0.97231491592E+03  0.00000000000E+00 0.  1.
          2   -1    0    0  501    0  0.00000000000E+00 -0.00000000000E+00 -0.10879694380E+04  0.10879694380E+04  0.00000000000E+00 0. -1.
         24    2    1    2    0    0 -0.64014124148E+03  0.30754209935E+03  0.36571847342E+03  0.80280202905E+03  0.79863284013E+02 0.  0.
        254    2    1    2    0    0  0.64014124148E+03 -0.30754209935E+03 -0.48137299547E+03  0.12574823248E+04  0.91933611078E+03 0.  0.
         23    2    4    4    0    0  0.43895557351E+03 -0.32146702527E+01 -0.69323269373E+03  0.82549053627E+03  0.90392080470E+02 0.  0.
         23    2    4    4    0    0  0.20118566797E+03 -0.30432742910E+03  0.21185969826E+03  0.43199178856E+03  0.92959757621E+02 0.  0.
          2    1    3    3  502    0 -0.38914744181E+03  0.22683674409E+03  0.24619014886E+03  0.51332273409E+03  0.00000000000E+00 0. -1.
         -1    1    3    3    0  502 -0.25099379967E+03  0.80705355260E+02  0.11952832456E+03  0.28947929496E+03  0.00000000000E+00 0.  1.
         11    1    5    5    0    0  0.23947752110E+03  0.30794643534E+02 -0.43384525298E+03  0.49650729775E+03  0.00000000000E+00 0. -1.
        -11    1    5    5    0    0  0.19947805240E+03 -0.34009313786E+02 -0.25938744075E+03  0.32898323853E+03  0.00000000000E+00 0.  1.
          3    1    6    6  503    0  0.19778563778E+03 -0.25509543075E+03  0.15951670972E+03  0.36005335436E+03  0.00000000000E+00 0. -1.
         -3    1    6    6    0  503  0.34000301933E+01 -0.49231998343E+02  0.52342988540E+02  0.71938434203E+02  0.00000000000E+00 0.  1.
<mgrwt>
<rscale>  0 0.20570356E+04</rscale>
<asrwt>0</asrwt>
<pdfrwt beam="1">  1        2 0.16737991E+00 0.20570356E+04</pdfrwt>
<pdfrwt beam="2">  1       -1 0.14958691E+00 0.20570356E+04</pdfrwt>
<totfact> 0.82165733E+00</totfact>
</mgrwt>
</event>
<event>
12    6  0.1395358E-007  0.2670418E+04  0.7818608E-02  0.8344667E-01
         -1   -1    0    0    0  501 -0.00000000000E+00  0.00000000000E+00  0.47965116681E+03  0.47965116681E+03  0.00000000000E+00 0.  1.
          2   -1    0    0  501    0  0.00000000000E+00 -0.00000000000E+00 -0.37168334113E+04  0.37168334113E+04  0.00000000000E+00 0. -1.
         24    2    1    2    0    0  0.11607854804E+04  0.16494240620E+03 -0.12077490494E+04  0.16852001487E+04  0.81319407425E+02 0.  0.
        254    2    1    2    0    0 -0.11607854804E+04 -0.16494240620E+03 -0.20294331951E+04  0.25112844294E+04  0.90184336941E+03 0.  0.
         23    2    4    4    0    0 -0.43765332444E+03  0.34665615189E+03 -0.58060708622E+03  0.81068659522E+03  0.91636494133E+02 0.  0.
         23    2    4    4    0    0 -0.72313215600E+03 -0.51159855810E+03 -0.14488261089E+04  0.17005978341E+04  0.91009340855E+02 0.  0.
          2    1    3    3  502    0  0.54162384789E+03  0.62233893901E+02 -0.61587539600E+03  0.82251562511E+03  0.00000000000E+00 0. -1.
         -1    1    3    3    0  502  0.61916163255E+03  0.10270851230E+03 -0.59187365341E+03  0.86268452364E+03  0.00000000000E+00 0.  1.
         11    1    5    5    0    0 -0.33413284972E+03  0.30593667952E+03 -0.48874718463E+03  0.66642015547E+03  0.00000000000E+00 0.  1.
        -11    1    5    5    0    0 -0.10352047472E+03  0.40719472379E+02 -0.91859901595E+02  0.14426643975E+03  0.00000000000E+00 0. -1.
          2    1    6    6  503    0 -0.44460750243E+01  0.23280823104E+01 -0.20374489219E+02  0.20983502122E+02  0.00000000000E+00 0. -1.
         -2    1    6    6    0  503 -0.71868608097E+03 -0.51392664041E+03 -0.14284516196E+04  0.16796143320E+04  0.00000000000E+00 0.  1.
<mgrwt>
<rscale>  0 0.26704183E+04</rscale>
<asrwt>0</asrwt>
<pdfrwt beam="1">  1        2 0.57182051E+00 0.26704183E+04</pdfrwt>
<pdfrwt beam="2">  1       -1 0.73792490E-01 0.26704183E+04</pdfrwt>
<totfact> 0.10496894E+00</totfact>
</mgrwt>
</event>
<event>
12    6  0.1395358E-007  0.3026402E+04  0.7818608E-02  0.8236232E-01
          2   -1    0    0  501    0  0.00000000000E+00  0.00000000000E+00  0.10975342359E+04  0.10975342359E+04  0.00000000000E+00 0. -1.
         -3   -1    0    0    0  501 -0.00000000000E+00 -0.00000000000E+00 -0.20862922036E+04  0.20862922036E+04  0.00000000000E+00 0.  1.
         24    2    1    2    0    0 -0.45196829298E+03  0.12097102729E+04 -0.95844363835E+03  0.16098454690E+04  0.72896802948E+02 0.  0.
        254    2    1    2    0    0  0.45196829298E+03 -0.12097102729E+04 -0.30314329324E+02  0.15739809705E+04  0.89934579272E+03 0.  0.
         23    2    4    4    0    0  0.18015724177E+03 -0.10046691815E+04  0.32401022578E+03  0.10749016887E+04  0.92812811810E+02 0.  0.
         23    2    4    4    0    0  0.27181105121E+03 -0.20504109141E+03 -0.35432455510E+03  0.49907928182E+03  0.87241861912E+02 0.  0.
          2    1    3    3  502    0 -0.28872247604E+03  0.81885567410E+03 -0.60620484459E+03  0.10589474004E+04  0.00000000000E+00 0. -1.
         -1    1    3    3    0  502 -0.16324581694E+03  0.39085459879E+03 -0.35223879376E+03  0.55089806858E+03  0.00000000000E+00 0.  1.
         11    1    5    5    0    0  0.35712867988E+02 -0.27575825819E+03  0.47785856984E+02  0.28213740275E+03  0.00000000000E+00 0.  1.
        -11    1    5    5    0    0  0.14444437378E+03 -0.72891092328E+03  0.27622436879E+03  0.79276428597E+03  0.00000000000E+00 0. -1.
          1    1    6    6  503    0  0.23993771122E+03 -0.19527007934E+03 -0.34713287296E+03  0.46497498926E+03  0.00000000000E+00 0. -1.
         -1    1    6    6    0  503  0.31873339994E+02 -0.97710120777E+01 -0.71916821447E+01  0.34104292566E+02  0.00000000000E+00 0.  1.
<mgrwt>
<rscale>  0 0.30264019E+04</rscale>
<asrwt>0</asrwt>
<pdfrwt beam="1">  1        2 0.16885142E+00 0.30264019E+04</pdfrwt>
<pdfrwt beam="2">  1       -3 0.32096802E+00 0.30264019E+04</pdfrwt>
<totfact> 0.33903373E-01</totfact>
</mgrwt>
</event>
<event>
12    6  0.1395358E-007  0.2588035E+04  0.7818608E-02  0.8372277E-01
         -1   -1    0    0    0  501 -0.00000000000E+00  0.00000000000E+00  0.56133369465E+03  0.56133369465E+03  0.00000000000E+00 0.  1.
          2   -1    0    0  501    0  0.00000000000E+00 -0.00000000000E+00 -0.29830413949E+04  0.29830413949E+04  0.00000000000E+00 0. -1.
         24    2    1    2    0    0  0.54694315423E+03  0.87723530058E+03 -0.42865232857E+03  0.11218874650E+04  0.78740578808E+02 0.  0.
        254    2    1    2    0    0 -0.54694315423E+03 -0.87723530058E+03 -0.19930553717E+04  0.24224876246E+04  0.90966366864E+03 0.  0.
         23    2    4    4    0    0 -0.28893627867E+03 -0.10185413199E+04 -0.16499483570E+04  0.19625666516E+04  0.91802439603E+02 0.  0.
         23    2    4    4    0    0 -0.25800687555E+03  0.14130601928E+03 -0.34310701467E+03  0.45992097293E+03  0.85263936722E+02 0.  0.
          4    1    3    3  502    0  0.27966150593E+03  0.38295770343E+03 -0.21600226597E+03  0.52107978221E+03  0.00000000000E+00 0. -1.
         -3    1    3    3    0  502  0.26728164829E+03  0.49427759715E+03 -0.21265006260E+03  0.60080768278E+03  0.00000000000E+00 0.  1.
         11    1    5    5    0    0 -0.97350987438E+00 -0.51455781328E+00  0.11490391894E+01  0.15914717332E+01  0.00000000000E+00 0.  1.
        -11    1    5    5    0    0 -0.28796276880E+03 -0.10180267621E+04 -0.16510973962E+04  0.19609751799E+04  0.00000000000E+00 0. -1.
          3    1    6    6  503    0 -0.14527755394E+02  0.38656634669E+02 -0.35981700043E+02  0.54772929616E+02  0.00000000000E+00 0. -1.
         -3    1    6    6    0  503 -0.24347912016E+03  0.10264938461E+03 -0.30712531463E+03  0.40514804331E+03  0.00000000000E+00 0.  1.
<mgrwt>
<rscale>  0 0.25880353E+04</rscale>
<asrwt>0</asrwt>
<pdfrwt beam="1">  1        2 0.45892945E+00 0.25880353E+04</pdfrwt>
<pdfrwt beam="2">  1       -1 0.86359029E-01 0.25880353E+04</pdfrwt>
<totfact> 0.23757004E+00</totfact>
</mgrwt>
</event>
<event>
12    6  0.1395358E-007  0.1724589E+04  0.7818608E-02  0.8747464E-01
         -1   -1    0    0    0  501 -0.00000000000E+00  0.00000000000E+00  0.35174679582E+03  0.35174679582E+03  0.00000000000E+00 0.  1.
          2   -1    0    0  501    0  0.00000000000E+00 -0.00000000000E+00 -0.21138824551E+04  0.21138824551E+04  0.00000000000E+00 0. -1.
         24    2    1    2    0    0 -0.40984401336E+03  0.36329732990E+03 -0.10720164949E+04  0.12064907394E+04  0.80271250664E+02 0.  0.
        254    2    1    2    0    0  0.40984401336E+03 -0.36329732990E+03 -0.69011916438E+03  0.12591385115E+04  0.89956003969E+03 0.  0.
         23    2    4    4    0    0 -0.18143853807E+03 -0.39833710813E+03 -0.36365601957E+03  0.57687827465E+03  0.94606809360E+02 0.  0.
         23    2    4    4    0    0  0.59128255143E+03  0.35039778229E+02 -0.32646314481E+03  0.68226023690E+03  0.89766387096E+02 0.  0.
          2    1    3    3  502    0 -0.24484961571E+03  0.17272241412E+03 -0.63059874022E+03  0.69816841651E+03  0.00000000000E+00 0. -1.
         -1    1    3    3    0  502 -0.16499439765E+03  0.19057491578E+03 -0.44141775472E+03  0.50832232290E+03  0.00000000000E+00 0.  1.
         11    1    5    5    0    0 -0.71365421190E+01 -0.11445746524E+03 -0.90729040201E+02  0.14622995698E+03  0.00000000000E+00 0. -1.
        -11    1    5    5    0    0 -0.17430199595E+03 -0.28387964289E+03 -0.27292697937E+03  0.43064831767E+03  0.00000000000E+00 0.  1.
          4    1    6    6  503    0  0.14003419460E+03  0.46055258612E+02 -0.71346104776E+02  0.16377096559E+03  0.00000000000E+00 0. -1.
         -4    1    6    6    0  503  0.45124835683E+03 -0.11015480383E+02 -0.25511704004E+03  0.51848927131E+03  0.00000000000E+00 0.  1.
<mgrwt>
<rscale>  0 0.17245885E+04</rscale>
<asrwt>0</asrwt>
<pdfrwt beam="1">  1        2 0.32521269E+00 0.17245885E+04</pdfrwt>
<pdfrwt beam="2">  1       -1 0.54114891E-01 0.17245885E+04</pdfrwt>
<totfact> 0.21529992E+01</totfact>
</mgrwt>
</event>
<event>
12    6  0.1395358E-007  0.2236417E+04  0.7818608E-02  0.8503422E-01
         -1   -1    0    0    0  501 -0.00000000000E+00  0.00000000000E+00  0.13411317269E+04  0.13411317269E+04  0.00000000000E+00 0.  1.
          2   -1    0    0  501    0  0.00000000000E+00 -0.00000000000E+00 -0.93233977803E+03  0.93233977803E+03  0.00000000000E+00 0. -1.
         24    2    1    2    0    0  0.48702814501E+03 -0.79146421215E+03  0.91501547500E+02  0.93720012935E+03  0.79746699745E+02 0.  0.
        254    2    1    2    0    0 -0.48702814501E+03  0.79146421215E+03  0.31729040135E+03  0.13362713756E+04  0.90627588360E+03 0.  0.
         23    2    4    4    0    0 -0.38991051855E+03  0.90268557286E+03  0.13892857553E+02  0.98714567379E+03  0.85977403265E+02 0.  0.
         23    2    4    4    0    0 -0.97117626457E+02 -0.11122136071E+03  0.30339754380E+03  0.34912570176E+03  0.89647429422E+02 0.  0.
          4    1    3    3  502    0  0.35022019768E+03 -0.61621845609E+03  0.46071500767E+02  0.71028301097E+03  0.00000000000E+00 0. -1.
         -3    1    3    3    0  502  0.13680794733E+03 -0.17524575606E+03  0.45430046733E+02  0.22691711838E+03  0.00000000000E+00 0.  1.
         11    1    5    5    0    0 -0.16000320302E+03  0.33159413303E+03 -0.33454079479E+02  0.36969564438E+03  0.00000000000E+00 0. -1.
        -11    1    5    5    0    0 -0.22990731553E+03  0.57109143983E+03  0.47346937032E+02  0.61745002942E+03  0.00000000000E+00 0.  1.
          1    1    6    6  503    0 -0.60523500589E+02 -0.44616008541E+02  0.23551468830E+03  0.24722631484E+03  0.00000000000E+00 0. -1.
         -1    1    6    6    0  503 -0.36594125868E+02 -0.66605352168E+02  0.67882855494E+02  0.10189938692E+03  0.00000000000E+00 0.  1.
<mgrwt>
<rscale>  0 0.22364172E+04</rscale>
<asrwt>0</asrwt>
<pdfrwt beam="1">  1        2 0.14343689E+00 0.22364172E+04</pdfrwt>
<pdfrwt beam="2">  1       -1 0.20632796E+00 0.22364172E+04</pdfrwt>
<totfact> 0.39476788E+00</totfact>
</mgrwt>
</event>
<event>
12    6  0.1395358E-007  0.1495325E+04  0.7818608E-02  0.8887568E-01
          2   -1    0    0  501    0  0.00000000000E+00  0.00000000000E+00  0.13222987297E+04  0.13222987297E+04  0.00000000000E+00 0. -1.
         -1   -1    0    0    0  501 -0.00000000000E+00 -0.00000000000E+00 -0.42274786365E+03  0.42274786365E+03  0.00000000000E+00 0.  1.
         24    2    1    2    0    0  0.36520720406E+03 -0.29758700888E+03  0.32215333887E+03  0.57619528005E+03  0.79271036699E+02 0.  0.
        254    2    1    2    0    0 -0.36520720406E+03  0.29758700888E+03  0.57739752716E+03  0.11688513133E+04  0.90049495191E+03 0.  0.
         23    2    4    4    0    0 -0.30674561147E+03  0.35227285901E+03  0.79327388693E+03  0.92534839443E+03  0.93793144924E+02 0.  0.
         23    2    4    4    0    0 -0.58461592593E+02 -0.54685850130E+02 -0.21587635977E+03  0.24350291885E+03  0.79263918452E+02 0.  0.
          4    1    3    3  502    0  0.23935857313E+03 -0.24116830983E+03  0.23148285888E+03  0.41114352014E+03  0.00000000000E+00 0. -1.
         -3    1    3    3    0  502  0.12584863093E+03 -0.56418699052E+02  0.90670479984E+02  0.16505175991E+03  0.00000000000E+00 0.  1.
         11    1    5    5    0    0 -0.18224844009E+03  0.20771174045E+03  0.55604699539E+03  0.62092424829E+03  0.00000000000E+00 0.  1.
        -11    1    5    5    0    0 -0.12449717138E+03  0.14456111856E+03  0.23722689154E+03  0.30442414614E+03  0.00000000000E+00 0. -1.
          3    1    6    6  503    0 -0.39936556095E+02 -0.57990413521E+02 -0.81023498850E+02  0.10734348578E+03  0.00000000000E+00 0. -1.
         -3    1    6    6    0  503 -0.18525036498E+02  0.33045633914E+01 -0.13485286092E+03  0.13615943307E+03  0.00000000000E+00 0.  1.
<mgrwt>
<rscale>  0 0.14953247E+04</rscale>
<asrwt>0</asrwt>
<pdfrwt beam="1">  1        2 0.20343057E+00 0.14953247E+04</pdfrwt>
<pdfrwt beam="2">  1       -1 0.65038134E-01 0.14953247E+04</pdfrwt>
<totfact> 0.42368445E+01</totfact>
</mgrwt>
</event>
<event>
12    6  0.1395358E-007  0.2803909E+04  0.7818608E-02  0.8302056E-01
         -1   -1    0    0    0  501 -0.00000000000E+00  0.00000000000E+00  0.75613612325E+03  0.75613612325E+03  0.00000000000E+00 0.  1.
          2   -1    0    0  501    0  0.00000000000E+00 -0.00000000000E+00 -0.25993690019E+04  0.25993690019E+04  0.00000000000E+00 0. -1.
         24    2    1    2    0    0  0.11751363268E+04 -0.37714444620E+03 -0.53346524488E+03  0.13468982597E+04  0.79789940984E+02 0.  0.
        254    2    1    2    0    0 -0.11751363268E+04  0.37714444620E+03 -0.13097676338E+04  0.20086068654E+04  0.89209134382E+03 0.  0.
         23    2    4    4    0    0 -0.55170764803E+03  0.40809119794E+03 -0.11763679796E+04  0.13648793462E+04  0.90190085594E+02 0.  0.
         23    2    4    4    0    0 -0.62342867873E+03 -0.30946751740E+02 -0.13339965414E+03  0.64372751923E+03  0.83478334799E+02 0.  0.
          2    1    3    3  502    0  0.78945085116E+03 -0.23749462798E+03 -0.31842644369E+03  0.88376000405E+03  0.00000000000E+00 0. -1.
         -1    1    3    3    0  502  0.38568547561E+03 -0.13964981822E+03 -0.21503880119E+03  0.46313825564E+03  0.00000000000E+00 0.  1.
         11    1    5    5    0    0 -0.55127711717E+03  0.41133552707E+03 -0.11745682920E+04  0.13611443892E+04  0.00000000000E+00 0.  1.
        -11    1    5    5    0    0 -0.43053085629E+00 -0.32443291311E+01 -0.17996876524E+01  0.37349570246E+01  0.00000000000E+00 0. -1.
          2    1    6    6  503    0 -0.40459767508E+03 -0.14676942476E+02 -0.12656707829E+03  0.42418618156E+03  0.00000000000E+00 0. -1.
         -2    1    6    6    0  503 -0.21883100365E+03 -0.16269809264E+02 -0.68325758500E+01  0.21954133767E+03  0.00000000000E+00 0.  1.
<mgrwt>
<rscale>  0 0.28039093E+04</rscale>
<asrwt>0</asrwt>
<pdfrwt beam="1">  1        2 0.39990292E+00 0.28039093E+04</pdfrwt>
<pdfrwt beam="2">  1       -1 0.11632864E+00 0.28039093E+04</pdfrwt>
<totfact> 0.20103701E+00</totfact>
</mgrwt>
</event>
<event>
12    6  0.1395358E-007  0.1183798E+04  0.7818608E-02  0.9127157E-01
          2   -1    0    0  501    0  0.00000000000E+00  0.00000000000E+00  0.20851840471E+04  0.20851840471E+04  0.00000000000E+00 0. -1.
         -1   -1    0    0    0  501 -0.00000000000E+00 -0.00000000000E+00 -0.16801607207E+03  0.16801607207E+03  0.00000000000E+00 0.  1.
         24    2    1    2    0    0  0.87004431543E+02  0.21660462627E+03  0.31181779886E+03  0.39759863070E+03  0.79793459720E+02 0.  0.
        254    2    1    2    0    0 -0.87004431543E+02 -0.21660462627E+03  0.16053501762E+04  0.18556014885E+04  0.90089975064E+03 0.  0.
         23    2    4    4    0    0  0.12462302402E+02  0.27036067410E+03  0.11170671708E+04  0.11529585029E+04  0.90686505198E+02 0.  0.
         23    2    4    4    0    0 -0.99466733945E+02 -0.48696530038E+03  0.48828300538E+03  0.70264298559E+03  0.90873741715E+02 0.  0.
          4    1    3    3  502    0  0.90690033135E+01  0.50329811824E+02  0.12769755983E+03  0.13755727377E+03  0.00000000000E+00 0. -1.
         -3    1    3    3    0  502  0.77935428229E+02  0.16627481445E+03  0.18412023903E+03  0.26004135693E+03  0.00000000000E+00 0.  1.
         11    1    5    5    0    0 -0.29634118464E+02  0.20259915233E+03  0.76098678917E+03  0.78805170566E+03  0.00000000000E+00 0. -1.
        -11    1    5    5    0    0  0.42096420866E+02  0.67761521768E+02  0.35608038166E+03  0.36490679726E+03  0.00000000000E+00 0.  1.
          4    1    6    6  503    0 -0.28518668220E+01 -0.12694188475E+03  0.81411686866E+02  0.15083182027E+03  0.00000000000E+00 0. -1.
         -4    1    6    6    0  503 -0.96614867123E+02 -0.36002341563E+03  0.40687131851E+03  0.55181116532E+03  0.00000000000E+00 0.  1.
<mgrwt>
<rscale>  0 0.11837980E+04</rscale>
<asrwt>0</asrwt>
<pdfrwt beam="1">  1        2 0.32079753E+00 0.11837980E+04</pdfrwt>
<pdfrwt beam="2">  1       -1 0.25848628E-01 0.11837980E+04</pdfrwt>
<totfact> 0.89309706E+01</totfact>
</mgrwt>
</event>
<event>
12    6  0.1395358E-007  0.2127591E+04  0.7818608E-02  0.8549186E-01
          2   -1    0    0  501    0  0.00000000000E+00  0.00000000000E+00  0.27585607484E+04  0.27585607484E+04  0.00000000000E+00 0. -1.
         -1   -1    0    0    0  501 -0.00000000000E+00 -0.00000000000E+00 -0.41023608344E+03  0.41023608344E+03  0.00000000000E+00 0.  1.
         24    2    1    2    0    0  0.66578108908E+03 -0.17141790653E+03  0.17629032816E+04  0.18939625294E+04  0.81348172476E+02 0.  0.
        254    2    1    2    0    0 -0.66578108908E+03  0.17141790653E+03  0.58542138335E+03  0.12748343024E+04  0.89990874280E+03 0.  0.
         23    2    4    4    0    0 -0.16181771705E+03  0.21406401135E+03  0.69449983457E+03  0.75015698927E+03  0.91635767152E+02 0.  0.
         23    2    4    4    0    0 -0.50396337203E+03 -0.42646104821E+02 -0.10907845122E+03  0.52467731318E+03  0.87122923789E+02 0.  0.
          2    1    3    3  502    0  0.40613190016E+03 -0.12717709911E+03  0.99690222094E+03  0.10839424214E+04  0.00000000000E+00 0. -1.
         -1    1    3    3    0  502  0.25964918892E+03 -0.44240807413E+02  0.76600106064E+03  0.81002010793E+03  0.00000000000E+00 0.  1.
         11    1    5    5    0    0 -0.69732966271E+02  0.64141930988E+02  0.14529426588E+03  0.17345690414E+03  0.00000000000E+00 0. -1.
        -11    1    5    5    0    0 -0.92084750782E+02  0.14992208036E+03  0.54920556869E+03  0.57670008513E+03  0.00000000000E+00 0.  1.
          3    1    6    6  503    0 -0.29988196607E+03 -0.56501365780E+01 -0.25341303500E+02  0.30100381937E+03  0.00000000000E+00 0. -1.
         -3    1    6    6    0  503 -0.20408140596E+03 -0.36995968243E+02 -0.83737147719E+02  0.22367349381E+03  0.00000000000E+00 0.  1.
<mgrwt>
<rscale>  0 0.21275913E+04</rscale>
<asrwt>0</asrwt>
<pdfrwt beam="1">  1        2 0.42439395E+00 0.21275913E+04</pdfrwt>
<pdfrwt beam="2">  1       -1 0.63113245E-01 0.21275913E+04</pdfrwt>
<totfact> 0.65318673E+00</totfact>
</mgrwt>
</event>
<event>
12    6  0.1395358E-007  0.1436488E+04  0.7818608E-02  0.8927822E-01
         -1   -1    0    0    0  501 -0.00000000000E+00  0.00000000000E+00  0.54748305678E+03  0.54748305678E+03  0.00000000000E+00 0.  1.
          2   -1    0    0  501    0  0.00000000000E+00 -0.00000000000E+00 -0.94226604585E+03  0.94226604585E+03  0.00000000000E+00 0. -1.
         24    2    1    2    0    0 -0.21669595964E+03 -0.29738310210E+03  0.11306074020E+03  0.39298121831E+03  0.79105364136E+02 0.  0.
        254    2    1    2    0    0  0.21669595964E+03  0.29738310210E+03 -0.50784372927E+03  0.10967678843E+04  0.89977813397E+03 0.  0.
         23    2    4    4    0    0 -0.33533181884E+03  0.10311453227E+03 -0.96427714459E+02  0.37504931619E+03  0.91014559079E+02 0.  0.
         23    2    4    4    0    0  0.55202777848E+03  0.19426856983E+03 -0.41141601482E+03  0.72171856814E+03  0.95601301826E+02 0.  0.
          2    1    3    3  502    0 -0.98575007178E+02 -0.18926926218E+03  0.40634389339E+02  0.21723498623E+03  0.00000000000E+00 0. -1.
         -1    1    3    3    0  502 -0.11812095246E+03 -0.10811383992E+03  0.72426350862E+02  0.17574623208E+03  0.00000000000E+00 0.  1.
         11    1    5    5    0    0 -0.14090777527E+03  0.42665612937E+02  0.55581712341E+01  0.14733040734E+03  0.00000000000E+00 0.  1.
        -11    1    5    5    0    0 -0.19442404357E+03  0.60448919332E+02 -0.10198588569E+03  0.22771890885E+03  0.00000000000E+00 0. -1.
          3    1    6    6  503    0  0.13928425328E+02  0.85069089513E+01  0.42347304334E+01  0.16861241765E+02  0.00000000000E+00 0. -1.
         -3    1    6    6    0  503  0.53809935315E+03  0.18576166088E+03 -0.41565074525E+03  0.70485732637E+03  0.00000000000E+00 0.  1.
<mgrwt>
<rscale>  0 0.14364884E+04</rscale>
<asrwt>0</asrwt>
<pdfrwt beam="1">  1        2 0.14496401E+00 0.14364884E+04</pdfrwt>
<pdfrwt beam="2">  1       -1 0.84228163E-01 0.14364884E+04</pdfrwt>
<totfact> 0.42507511E+01</totfact>
</mgrwt>
</event>
<event>
12    6  0.1395358E-007  0.2636794E+04  0.7818608E-02  0.8355809E-01
         -1   -1    0    0    0  501 -0.00000000000E+00  0.00000000000E+00  0.60706110393E+03  0.60706110393E+03  0.00000000000E+00 0.  1.
          2   -1    0    0  501    0  0.00000000000E+00 -0.00000000000E+00 -0.28632548844E+04  0.28632548844E+04  0.00000000000E+00 0. -1.
         24    2    1    2    0    0 -0.65555536745E+03  0.90351218431E+03 -0.56254707716E+03  0.12525538234E+04  0.79653998498E+02 0.  0.
        254    2    1    2    0    0  0.65555536745E+03 -0.90351218431E+03 -0.16936467033E+04  0.22177621649E+04  0.89662855054E+03 0.  0.
         23    2    4    4    0    0  0.98791126388E+02 -0.34451402188E+03 -0.27932917653E+02  0.37242466716E+03  0.97315399072E+02 0.  0.
         23    2    4    4    0    0  0.55676424106E+03 -0.55899816243E+03 -0.16657137856E+04  0.18453374978E+04  0.90568754530E+02 0.  0.
          2    1    3    3  502    0 -0.35113642040E+03  0.54430050984E+03 -0.34477738490E+03  0.73377876495E+03  0.00000000000E+00 0. -1.
         -1    1    3    3    0  502 -0.30441894705E+03  0.35921167447E+03 -0.21776969226E+03  0.51877505844E+03  0.00000000000E+00 0.  1.
         11    1    5    5    0    0  0.50201997107E+02 -0.16817144351E+03  0.35050624285E+02  0.17897044781E+03  0.00000000000E+00 0. -1.
        -11    1    5    5    0    0  0.48589129281E+02 -0.17634257836E+03 -0.62983541938E+02  0.19345421935E+03  0.00000000000E+00 0.  1.
          1    1    6    6  503    0  0.26059700018E+03 -0.32297023442E+03 -0.90147786791E+03  0.99241267382E+03  0.00000000000E+00 0. -1.
         -1    1    6    6    0  503  0.29616724088E+03 -0.23602792802E+03 -0.76423591772E+03  0.85292482395E+03  0.00000000000E+00 0.  1.
<mgrwt>
<rscale>  0 0.26367940E+04</rscale>
<asrwt>0</asrwt>
<pdfrwt beam="1">  1        2 0.44050075E+00 0.26367940E+04</pdfrwt>
<pdfrwt beam="2">  1       -1 0.93394016E-01 0.26367940E+04</pdfrwt>
<totfact> 0.23599503E+00</totfact>
</mgrwt>
</event>
<event>
12    6  0.1395358E-007  0.1323482E+04  0.7818608E-02  0.9011148E-01
         -1   -1    0    0    0  501 -0.00000000000E+00  0.00000000000E+00  0.38666001387E+03  0.38666001387E+03  0.00000000000E+00 0.  1.
          2   -1    0    0  501    0  0.00000000000E+00 -0.00000000000E+00 -0.11325228869E+04  0.11325228869E+04  0.00000000000E+00 0. -1.
         24    2    1    2    0    0  0.28786145178E+03 -0.18557858092E+03 -0.12168043681E+03  0.37211930401E+03  0.79768556448E+02 0.  0.
        254    2    1    2    0    0 -0.28786145178E+03  0.18557858092E+03 -0.62418243624E+03  0.11470635968E+04  0.89935952557E+03 0.  0.
         23    2    4    4    0    0  0.11555029742E+02 -0.25843743714E+02  0.20940907627E+03  0.23203718135E+03  0.95852357843E+02 0.  0.
         23    2    4    4    0    0 -0.29941648152E+03  0.21142232463E+03 -0.83359151251E+03  0.91502641543E+03  0.89715675537E+02 0.  0.
          2    1    3    3  502    0  0.24900120929E+03 -0.13428970169E+03 -0.12118861588E+03  0.30776940528E+03  0.00000000000E+00 0. -1.
         -1    1    3    3    0  502  0.38860242497E+02 -0.51288879228E+02 -0.49182093102E+00  0.64349898735E+02  0.00000000000E+00 0.  1.
         11    1    5    5    0    0  0.14249990249E+02 -0.52353475306E+02  0.62652477424E+02  0.82881128889E+02  0.00000000000E+00 0.  1.
        -11    1    5    5    0    0 -0.26949605071E+01  0.26509731592E+02  0.14675659885E+03  0.14915605246E+03  0.00000000000E+00 0. -1.
          2    1    6    6  503    0 -0.24583564380E+03  0.12558473655E+03 -0.59992604664E+03  0.66039227074E+03  0.00000000000E+00 0. -1.
         -2    1    6    6    0  503 -0.53580837724E+02  0.85837588086E+02 -0.23366546587E+03  0.25463414468E+03  0.00000000000E+00 0.  1.
<mgrwt>
<rscale>  0 0.13234822E+04</rscale>
<asrwt>0</asrwt>
<pdfrwt beam="1">  1        2 0.17423429E+00 0.13234822E+04</pdfrwt>
<pdfrwt beam="2">  1       -1 0.59486157E-01 0.13234822E+04</pdfrwt>
<totfact> 0.66517616E+01</totfact>
</mgrwt>
</event>
<event>
12    6  0.1395358E-007  0.1246765E+04  0.7818608E-02  0.9072880E-01
         -1   -1    0    0    0  501 -0.00000000000E+00  0.00000000000E+00  0.17596294687E+04  0.17596294687E+04  0.00000000000E+00 0.  1.
          2   -1    0    0  501    0  0.00000000000E+00 -0.00000000000E+00 -0.22084509414E+03  0.22084509414E+03  0.00000000000E+00 0. -1.
         24    2    1    2    0    0  0.25871490194E+03 -0.12899324841E+03  0.42970794802E+03  0.52369262026E+03  0.77668406036E+02 0.  0.
        254    2    1    2    0    0 -0.25871490194E+03  0.12899324841E+03  0.11090764265E+04  0.14567819426E+04  0.89921657552E+03 0.  0.
         23    2    4    4    0    0  0.21247152631E+03 -0.78362978710E+02  0.16770166368E+02  0.24599978505E+03  0.94603117498E+02 0.  0.
         23    2    4    4    0    0 -0.47118642825E+03  0.20735622712E+03  0.10923062602E+04  0.12107821575E+04  0.88584490087E+02 0.  0.
          4    1    3    3  502    0  0.21292598564E+03 -0.99433944812E+02  0.28702813097E+03  0.37095785840E+03  0.00000000000E+00 0. -1.
         -3    1    3    3    0  502  0.45788916304E+02 -0.29559303601E+02  0.14267981705E+03  0.15273476186E+03  0.00000000000E+00 0.  1.
         11    1    5    5    0    0  0.31164450914E+02  0.14077825939E+02  0.24936427993E+02  0.42322968055E+02  0.00000000000E+00 0.  1.
        -11    1    5    5    0    0  0.18130707540E+03 -0.92440804649E+02 -0.81662616252E+01  0.20367681700E+03  0.00000000000E+00 0. -1.
          1    1    6    6  503    0 -0.46526750881E+03  0.21096030806E+03  0.10894654898E+04  0.12032926326E+04  0.00000000000E+00 0. -1.
         -1    1    6    6    0  503 -0.59189194428E+01 -0.36040809368E+01  0.28407703970E+01  0.74895248994E+01  0.00000000000E+00 0.  1.
<mgrwt>
<rscale>  0 0.12467647E+04</rscale>
<asrwt>0</asrwt>
<pdfrwt beam="1">  1        2 0.33976169E-01 0.12467647E+04</pdfrwt>
<pdfrwt beam="2">  1       -1 0.27071222E+00 0.12467647E+04</pdfrwt>
<totfact> 0.89524527E+00</totfact>
</mgrwt>
</event>
<event>
12    6  0.1395358E-007  0.1553316E+04  0.7818608E-02  0.8849753E-01
         -3   -1    0    0    0  501 -0.00000000000E+00  0.00000000000E+00  0.35106528277E+03  0.35106528277E+03  0.00000000000E+00 0.  1.
          4   -1    0    0  501    0  0.00000000000E+00 -0.00000000000E+00 -0.17181916565E+04  0.17181916565E+04  0.00000000000E+00 0. -1.
         24    2    1    2    0    0 -0.51079952424E+03 -0.20391569832E+01 -0.43428786976E+03  0.67556891632E+03  0.82867935590E+02 0.  0.
        254    2    1    2    0    0  0.51079952424E+03  0.20391569832E+01 -0.93283850399E+03  0.13936880230E+04  0.90069879469E+03 0.  0.
         23    2    4    4    0    0 -0.51299098350E+02 -0.47675619698E+01  0.14593708554E+03  0.17370646219E+03  0.78879496271E+02 0.  0.
         23    2    4    4    0    0  0.56209862259E+03  0.68067189530E+01 -0.10787755895E+04  0.12199815608E+04  0.92720241491E+02 0.  0.
          4    1    3    3  502    0 -0.37761612497E+03 -0.36735030859E+02 -0.30599144281E+03  0.48741580134E+03  0.00000000000E+00 0. -1.
         -3    1    3    3    0  502 -0.13318339927E+03  0.34695873876E+02 -0.12829642695E+03  0.18815311498E+03  0.00000000000E+00 0.  1.
         11    1    5    5    0    0 -0.25412069386E+02  0.36707013481E+02  0.80099373342E+02  0.91701078069E+02  0.00000000000E+00 0.  1.
        -11    1    5    5    0    0 -0.25887028964E+02 -0.41474575450E+02  0.65837712194E+02  0.82005384117E+02  0.00000000000E+00 0. -1.
          1    1    6    6  503    0  0.48069874101E+03  0.32557496947E+02 -0.87153009091E+03  0.99583932920E+03  0.00000000000E+00 0. -1.
         -1    1    6    6    0  503  0.81399881577E+02 -0.25750777994E+02 -0.20724549861E+03  0.22414223159E+03  0.00000000000E+00 0.  1.
<mgrwt>
<rscale>  0 0.15533157E+04</rscale>
<asrwt>0</asrwt>
<pdfrwt beam="1">  1        4 0.26433718E+00 0.15533157E+04</pdfrwt>
<pdfrwt beam="2">  1       -3 0.54010043E-01 0.15533157E+04</pdfrwt>
<totfact> 0.38392065E-01</totfact>
</mgrwt>
</event>
<event>
12    6  0.1395358E-007  0.2623846E+04  0.7818608E-02  0.8360146E-01
         -1   -1    0    0    0  501 -0.00000000000E+00  0.00000000000E+00  0.16038343173E+04  0.16038343173E+04  0.00000000000E+00 0.  1.
          2   -1    0    0  501    0  0.00000000000E+00 -0.00000000000E+00 -0.10731421352E+04  0.10731421352E+04  0.00000000000E+00 0. -1.
         24    2    1    2    0    0  0.94471867207E+03 -0.57246593548E+03  0.58186119609E+03  0.12512297887E+04  0.82479791149E+02 0.  0.
        254    2    1    2    0    0 -0.94471867207E+03  0.57246593548E+03 -0.51169013999E+02  0.14257466639E+04  0.89995814621E+03 0.  0.
         23    2    4    4    0    0 -0.32124704369E+03  0.68843598400E+03  0.93377290999E+02  0.76954402496E+03  0.79592215313E+02 0.  0.
         23    2    4    4    0    0 -0.62347162838E+03 -0.11597004852E+03 -0.14454630500E+03  0.65620263891E+03  0.86846677980E+02 0.  0.
          2    1    3    3  502    0  0.46892568931E+03 -0.24317522718E+03  0.30216700050E+03  0.60854777084E+03  0.00000000000E+00 0. -1.
         -1    1    3    3    0  502  0.47579298276E+03 -0.32929070829E+03  0.27969419560E+03  0.64268201784E+03  0.00000000000E+00 0.  1.
         11    1    5    5    0    0 -0.66037352961E+02  0.99454052891E+02  0.37902835059E+02  0.12525440323E+03  0.00000000000E+00 0. -1.
        -11    1    5    5    0    0 -0.25520969072E+03  0.58898193111E+03  0.55474455940E+02  0.64428962173E+03  0.00000000000E+00 0.  1.
          2    1    6    6  503    0 -0.24914549687E+03 -0.89224171141E+02 -0.52469561390E+02  0.26979156065E+03  0.00000000000E+00 0.  1.
         -2    1    6    6    0  503 -0.37432613151E+03 -0.26745877383E+02 -0.92076743608E+02  0.38641107826E+03  0.00000000000E+00 0. -1.
<mgrwt>
<rscale>  0 0.26238462E+04</rscale>
<asrwt>0</asrwt>
<pdfrwt beam="1">  1        2 0.16509879E+00 0.26238462E+04</pdfrwt>
<pdfrwt beam="2">  1       -1 0.24674374E+00 0.26238462E+04</pdfrwt>
<totfact> 0.16680557E+00</totfact>
</mgrwt>
</event>
<event>
12    6  0.1395358E-007  0.2264574E+04  0.7818608E-02  0.8492022E-01
         -1   -1    0    0    0  501 -0.00000000000E+00  0.00000000000E+00  0.11242570577E+04  0.11242570577E+04  0.00000000000E+00 0.  1.
          2   -1    0    0  501    0  0.00000000000E+00 -0.00000000000E+00 -0.11403741979E+04  0.11403741979E+04  0.00000000000E+00 0. -1.
         24    2    1    2    0    0 -0.54611437885E+03 -0.77478051464E+03  0.80497885111E+02  0.95429542131E+03  0.75326495783E+02 0.  0.
        254    2    1    2    0    0  0.54611437885E+03  0.77478051464E+03 -0.96615025369E+02  0.13103358343E+04  0.89951085311E+03 0.  0.
         23    2    4    4    0    0  0.11458916252E+03  0.74670985947E+03  0.18844422945E+03  0.78378664534E+03  0.90022149524E+02 0.  0.
         23    2    4    4    0    0  0.43152521633E+03  0.28070655169E+02 -0.28505925482E+03  0.52654918895E+03  0.94832988050E+02 0.  0.
          2    1    3    3  502    0 -0.30183943201E+03 -0.45451336964E+03  0.12140539602E+02  0.54574429782E+03  0.00000000000E+00 0. -1.
         -1    1    3    3    0  502 -0.24427494684E+03 -0.32026714501E+03  0.68357345510E+02  0.40855112349E+03  0.00000000000E+00 0.  1.
         11    1    5    5    0    0 -0.15292863215E+02  0.10026272298E+03  0.26323545842E+02  0.10478270063E+03  0.00000000000E+00 0. -1.
        -11    1    5    5    0    0  0.12988202574E+03  0.64644713649E+03  0.16212068360E+03  0.67900394471E+03  0.00000000000E+00 0.  1.
          2    1    6    6  503    0  0.15029344250E+02  0.33777302601E+01  0.73397135111E+01  0.17063459342E+02  0.00000000000E+00 0. -1.
         -2    1    6    6    0  503  0.41649587208E+03  0.24692924909E+02 -0.29239896833E+03  0.50948572961E+03  0.00000000000E+00 0.  1.
<mgrwt>
<rscale>  0 0.22645739E+04</rscale>
<asrwt>0</asrwt>
<pdfrwt beam="1">  1        2 0.17544218E+00 0.22645739E+04</pdfrwt>
<pdfrwt beam="2">  1       -1 0.17296262E+00 0.22645739E+04</pdfrwt>
<totfact> 0.49929322E+00</totfact>
</mgrwt>
</event>
<event>
12    6  0.1395358E-007  0.2261169E+04  0.7818608E-02  0.8493391E-01
         -1   -1    0    0    0  501 -0.00000000000E+00  0.00000000000E+00  0.51778290963E+03  0.51778290963E+03  0.00000000000E+00 0.  1.
          2   -1    0    0  501    0  0.00000000000E+00 -0.00000000000E+00 -0.24686438431E+04  0.24686438431E+04  0.00000000000E+00 0. -1.
         24    2    1    2    0    0  0.17213077375E+03 -0.80978137360E+03 -0.20918937758E+03  0.85753844125E+03  0.78975352035E+02 0.  0.
        254    2    1    2    0    0 -0.17213077375E+03  0.80978137360E+03 -0.17416715559E+04  0.21288883115E+04  0.90187069908E+03 0.  0.
         23    2    4    4    0    0  0.36052061714E+03  0.38611314050E+03 -0.75083517975E+03  0.92334447953E+03  0.98757724162E+02 0.  0.
         23    2    4    4    0    0 -0.53265139089E+03  0.42366823310E+03 -0.99083637613E+03  0.12055438319E+04  0.91470927137E+02 0.  0.
          2    1    3    3  502    0  0.37843996601E+02 -0.36636170942E+03 -0.95066054820E+02  0.38038220909E+03  0.00000000000E+00 0. -1.
         -1    1    3    3    0  502  0.13428677715E+03 -0.44341966417E+03 -0.11412332276E+03  0.47715623216E+03  0.00000000000E+00 0.  1.
         11    1    5    5    0    0  0.12633608166E+03  0.14375693387E+03 -0.35644941627E+03  0.40457761669E+03  0.00000000000E+00 0. -1.
        -11    1    5    5    0    0  0.23418453548E+03  0.24235620662E+03 -0.39438576348E+03  0.51876686284E+03  0.00000000000E+00 0.  1.
          4    1    6    6  503    0 -0.33163633663E+03  0.26198151295E+03 -0.53524267729E+03  0.68198364826E+03  0.00000000000E+00 0. -1.
         -4    1    6    6    0  503 -0.20101505426E+03  0.16168672015E+03 -0.45559369884E+03  0.52356018368E+03  0.00000000000E+00 0.  1.
<mgrwt>
<rscale>  0 0.22611692E+04</rscale>
<asrwt>0</asrwt>
<pdfrwt beam="1">  1        2 0.37979136E+00 0.22611692E+04</pdfrwt>
<pdfrwt beam="2">  1       -1 0.79658910E-01 0.22611692E+04</pdfrwt>
<totfact> 0.59129788E+00</totfact>
</mgrwt>
</event>
<event>
12    6  0.1460591E-007  0.3723153E+04  0.7818608E-02  0.8062850E-01
         -1   -1    0    0    0  501 -0.00000000000E+00  0.00000000000E+00  0.19689194045E+04  0.19689194045E+04  0.00000000000E+00 0.  1.
          2   -1    0    0  501    0  0.00000000000E+00 -0.00000000000E+00 -0.17600855683E+04  0.17600855683E+04  0.00000000000E+00 0. -1.
         24    2    1    2    0    0 -0.15889189115E+04  0.61481418730E+03  0.50766612078E+03  0.17790097588E+04  0.67015218709E+02 0.  0.
        254    2    1    2    0    0  0.15889189115E+04 -0.61481418730E+03 -0.29883228455E+03  0.19499952140E+04  0.90028929119E+03 0.  0.
         23    2    4    4    0    0  0.17419644458E+03 -0.42155694434E+03 -0.22697053070E+03  0.51751940087E+03  0.90862807818E+02 0.  0.
         23    2    4    4    0    0  0.14147224669E+04 -0.19325724297E+03 -0.71861753853E+02  0.14324758131E+04  0.89637174089E+02 0.  0.
          4    1    3    3  502    0 -0.68444670290E+03  0.29724904597E+03  0.23666328113E+03  0.78283701565E+03  0.00000000000E+00 0. -1.
         -3    1    3    3    0  502 -0.90447220863E+03  0.31756514133E+03  0.27100283966E+03  0.99617274319E+03  0.00000000000E+00 0.  1.
         11    1    5    5    0    0  0.10133254679E+03 -0.25737622639E+03 -0.18586917680E+03  0.33325389395E+03  0.00000000000E+00 0. -1.
        -11    1    5    5    0    0  0.72863897790E+02 -0.16418071795E+03 -0.41101353904E+02  0.18426550692E+03  0.00000000000E+00 0.  1.
          1    1    6    6  503    0  0.12426355996E+04 -0.19654704955E+03 -0.51239302991E+02  0.12591264600E+04  0.00000000000E+00 0. -1.
         -1    1    6    6    0  503  0.17208686732E+03  0.32898065765E+01 -0.20622450863E+02  0.17334935307E+03  0.00000000000E+00 0.  1.
<mgrwt>
<rscale>  0 0.37231528E+04</rscale>
<asrwt>0</asrwt>
<pdfrwt beam="1">  1        2 0.27078239E+00 0.37231528E+04</pdfrwt>
<pdfrwt beam="2">  1       -1 0.30291068E+00 0.37231528E+04</pdfrwt>
<totfact> 0.26364048E-01</totfact>
</mgrwt>
</event>
<event>
12    6  0.1395358E-007  0.2003433E+04  0.7818608E-02  0.8605017E-01
          2   -1    0    0  501    0  0.00000000000E+00  0.00000000000E+00  0.20641590967E+04  0.20641590967E+04  0.00000000000E+00 0. -1.
         -1   -1    0    0    0  501 -0.00000000000E+00 -0.00000000000E+00 -0.48612348593E+03  0.48612348593E+03  0.00000000000E+00 0.  1.
         24    2    1    2    0    0 -0.15384485503E+03  0.63833053945E+03  0.12074381435E+04  0.13762684732E+04  0.71231474464E+02 0.  0.
        254    2    1    2    0    0  0.15384485503E+03 -0.63833053945E+03  0.37059746724E+03  0.11740141094E+04  0.89990695593E+03 0.  0.
         23    2    4    4    0    0  0.29618610758E+03 -0.34694234833E+03 -0.20305449206E+03  0.50761499358E+03  0.91360010793E+02 0.  0.
         23    2    4    4    0    0 -0.14234125255E+03 -0.29138819112E+03  0.57365195931E+03  0.66639911582E+03  0.99212403690E+02 0.  0.
          2    1    3    3  502    0 -0.26912636241E+02  0.60942534179E+02  0.16368298896E+03  0.17672125887E+03  0.00000000000E+00 0. -1.
         -1    1    3    3    0  502 -0.12693221879E+03  0.57738800527E+03  0.10437551545E+04  0.11995472143E+04  0.00000000000E+00 0.  1.
         11    1    5    5    0    0  0.12218554500E+03 -0.85169813740E+02 -0.43798970519E+02  0.15524675326E+03  0.00000000000E+00 0. -1.
        -11    1    5    5    0    0  0.17400056258E+03 -0.26177253459E+03 -0.15925552155E+03  0.35236824032E+03  0.00000000000E+00 0.  1.
          1    1    6    6  503    0 -0.11390962914E+03 -0.16777228262E+03  0.27292666319E+03  0.34001750824E+03  0.00000000000E+00 0. -1.
         -1    1    6    6    0  503 -0.28431623408E+02 -0.12361590850E+03  0.30072529612E+03  0.32638160758E+03  0.00000000000E+00 0.  1.
<mgrwt>
<rscale>  0 0.20034333E+04</rscale>
<asrwt>0</asrwt>
<pdfrwt beam="1">  1        2 0.31756293E+00 0.20034333E+04</pdfrwt>
<pdfrwt beam="2">  1       -1 0.74788230E-01 0.20034333E+04</pdfrwt>
<totfact> 0.11701898E+01</totfact>
</mgrwt>
</event>
<event>
12    6  0.1395358E-007  0.2584058E+04  0.7818608E-02  0.8373637E-01
         -1   -1    0    0    0  501 -0.00000000000E+00  0.00000000000E+00  0.16334402477E+04  0.16334402477E+04  0.00000000000E+00 0.  1.
          2   -1    0    0  501    0  0.00000000000E+00 -0.00000000000E+00 -0.10219772825E+04  0.10219772825E+04  0.00000000000E+00 0. -1.
         24    2    1    2    0    0 -0.67144058182E+03  0.62858351960E+03 -0.39994989082E+03  0.10062394793E+04  0.81291319007E+02 0.  0.
        254    2    1    2    0    0  0.67144058182E+03 -0.62858351960E+03  0.10114128561E+04  0.16491780509E+04  0.92243296889E+03 0.  0.
         23    2    4    4    0    0  0.69872944220E+03 -0.51835748077E+03  0.11505021820E+04  0.14454748410E+04  0.93941119321E+02 0.  0.
         23    2    4    4    0    0 -0.27288860380E+02 -0.11022603883E+03 -0.13908932590E+03  0.20370320992E+03  0.96201328563E+02 0.  0.
          4    1    3    3  502    0 -0.46090962909E+03  0.40622134508E+03 -0.30310768932E+03  0.68507498766E+03  0.00000000000E+00 0. -1.
         -3    1    3    3    0  502 -0.21053095272E+03  0.22236217452E+03 -0.96842201508E+02  0.32116449166E+03  0.00000000000E+00 0.  1.
         11    1    5    5    0    0  0.36213590433E+03 -0.22844583327E+03  0.62104941390E+03  0.75434228733E+03  0.00000000000E+00 0. -1.
        -11    1    5    5    0    0  0.33659353786E+03 -0.28991164751E+03  0.52945276808E+03  0.69113255366E+03  0.00000000000E+00 0.  1.
          3    1    6    6  503    0 -0.55609381045E+02 -0.34182775683E+02 -0.80380458567E+02  0.10354652835E+03  0.00000000000E+00 0.  1.
         -3    1    6    6    0  503  0.28320520664E+02 -0.76043263148E+02 -0.58708867329E+02  0.10015668157E+03  0.00000000000E+00 0. -1.
<mgrwt>
<rscale>  0 0.25840579E+04</rscale>
<asrwt>0</asrwt>
<pdfrwt beam="1">  1        2 0.15722727E+00 0.25840579E+04</pdfrwt>
<pdfrwt beam="2">  1       -1 0.25129850E+00 0.25840579E+04</pdfrwt>
<totfact> 0.16833106E+00</totfact>
</mgrwt>
</event>
<event>
12    6  0.1395358E-007  0.1503919E+04  0.7818608E-02  0.8881851E-01
          2   -1    0    0  501    0  0.00000000000E+00  0.00000000000E+00  0.17416390553E+04  0.17416390553E+04  0.00000000000E+00 0. -1.
         -1   -1    0    0    0  501 -0.00000000000E+00 -0.00000000000E+00 -0.32466130907E+03  0.32466130907E+03  0.00000000000E+00 0.  1.
         24    2    1    2    0    0  0.32324589060E+03 -0.35005755279E+03  0.51290857958E+03  0.70467028396E+03  0.80354228533E+02 0.  0.
        254    2    1    2    0    0 -0.32324589060E+03  0.35005755279E+03  0.90406916666E+03  0.13616300804E+04  0.89981510419E+03 0.  0.
         23    2    4    4    0    0 -0.58255219332E+03  0.14954795114E+03  0.32418663420E+03  0.68945900910E+03  0.92331488653E+02 0.  0.
         23    2    4    4    0    0  0.25930630273E+03  0.20050960164E+03  0.57988253246E+03  0.67217107132E+03  0.90035207987E+02 0.  0.
          4    1    3    3  502    0  0.27594289599E+03 -0.32578402545E+03  0.47878589710E+03  0.64149485450E+03  0.00000000000E+00 0. -1.
         -3    1    3    3    0  502  0.47302994610E+02 -0.24273527332E+02  0.34122682475E+02  0.63175429460E+02  0.00000000000E+00 0.  1.
         11    1    5    5    0    0 -0.51511431085E+03  0.14307706964E+03  0.31649738445E+03  0.62127642436E+03  0.00000000000E+00 0.  1.
        -11    1    5    5    0    0 -0.67437882474E+02  0.64708815054E+01  0.76892497428E+01  0.68182584738E+02  0.00000000000E+00 0. -1.
          3    1    6    6  503    0  0.10278784217E+03  0.11599165786E+03  0.33882495250E+03  0.37258791396E+03  0.00000000000E+00 0. -1.
         -3    1    6    6    0  503  0.15651846056E+03  0.84517943786E+02  0.24105757996E+03  0.29958315736E+03  0.00000000000E+00 0.  1.
<mgrwt>
<rscale>  0 0.15039186E+04</rscale>
<asrwt>0</asrwt>
<pdfrwt beam="1">  1        2 0.26794446E+00 0.15039186E+04</pdfrwt>
<pdfrwt beam="2">  1       -1 0.49947895E-01 0.15039186E+04</pdfrwt>
<totfact> 0.41146229E+01</totfact>
</mgrwt>
</event>
<event>
12    6  0.1395358E-007  0.1783850E+04  0.7818608E-02  0.8714935E-01
          2   -1    0    0  501    0  0.00000000000E+00  0.00000000000E+00  0.17611307029E+04  0.17611307029E+04  0.00000000000E+00 0. -1.
         -1   -1    0    0    0  501 -0.00000000000E+00 -0.00000000000E+00 -0.45171563532E+03  0.45171563532E+03  0.00000000000E+00 0.  1.
         24    2    1    2    0    0 -0.61519111895E+03 -0.15510904302E+03  0.72568424260E+03  0.96722106326E+03  0.79875135007E+02 0.  0.
        254    2    1    2    0    0  0.61519111895E+03  0.15510904302E+03  0.58373082502E+03  0.12456252750E+04  0.89906713964E+03 0.  0.
         23    2    4    4    0    0  0.83599446598E+03  0.17512687341E+03  0.42409129592E+03  0.95779524053E+03  0.89230748970E+02 0.  0.
         23    2    4    4    0    0 -0.22080334703E+03 -0.20017830382E+02  0.15963952910E+03  0.28783003448E+03  0.90589833334E+02 0.  0.
          2    1    3    3  502    0 -0.19922159106E+03 -0.33347797773E+02  0.28291402358E+03  0.34762287425E+03  0.00000000000E+00 0. -1.
         -1    1    3    3    0  502 -0.41596952788E+03 -0.12176124525E+03  0.44277021902E+03  0.61959818901E+03  0.00000000000E+00 0.  1.
         11    1    5    5    0    0  0.39270048343E+03  0.37016814907E+02  0.19034002777E+03  0.43796488494E+03  0.00000000000E+00 0.  1.
        -11    1    5    5    0    0  0.44329398255E+03  0.13811005850E+03  0.23375126816E+03  0.51983035558E+03  0.00000000000E+00 0. -1.
          3    1    6    6  503    0 -0.51718496493E+02 -0.44950169131E+02  0.48775986304E+02  0.84109556082E+02  0.00000000000E+00 0. -1.
         -3    1    6    6    0  503 -0.16908485054E+03  0.24932338749E+02  0.11086354279E+03  0.20372047839E+03  0.00000000000E+00 0.  1.
<mgrwt>
<rscale>  0 0.17838501E+04</rscale>
<asrwt>0</asrwt>
<pdfrwt beam="1">  1        2 0.27094318E+00 0.17838501E+04</pdfrwt>
<pdfrwt beam="2">  1       -1 0.69494714E-01 0.17838501E+04</pdfrwt>
<totfact> 0.20447032E+01</totfact>
</mgrwt>
</event>
<event>
12    6  0.1395358E-007  0.2360945E+04  0.7818608E-02  0.8454272E-01
          2   -1    0    0  501    0  0.00000000000E+00  0.00000000000E+00  0.14552205009E+04  0.14552205009E+04  0.00000000000E+00 0. -1.
         -1   -1    0    0    0  501 -0.00000000000E+00 -0.00000000000E+00 -0.95759744531E+03  0.95759744531E+03  0.00000000000E+00 0.  1.
         24    2    1    2    0    0  0.69723983571E+03 -0.29128549604E+03  0.89313083793E+03  0.11726714530E+04  0.80529585884E+02 0.  0.
        254    2    1    2    0    0 -0.69723983571E+03  0.29128549604E+03 -0.39550778230E+03  0.12401464933E+04  0.90030344342E+03 0.  0.
         23    2    4    4    0    0 -0.23765081246E+03 -0.21217575948E+03 -0.44120838637E+03  0.55086188843E+03  0.85366962878E+02 0.  0.
         23    2    4    4    0    0 -0.45958902325E+03  0.50346125551E+03  0.45700604062E+02  0.68928460485E+03  0.91265629789E+02 0.  0.
          4    1    3    3  502    0  0.56981854135E+03 -0.22451467850E+03  0.67570167650E+03  0.91196094573E+03  0.00000000000E+00 0. -1.
         -3    1    3    3    0  502  0.12742129437E+03 -0.66770817541E+02  0.21742916144E+03  0.26071050722E+03  0.00000000000E+00 0.  1.
         11    1    5    5    0    0 -0.68414971472E+02 -0.11559166875E+03 -0.19713735444E+03  0.23854806376E+03  0.00000000000E+00 0. -1.
        -11    1    5    5    0    0 -0.16923584099E+03 -0.96584090730E+02 -0.24407103192E+03  0.31231382467E+03  0.00000000000E+00 0.  1.
          1    1    6    6  503    0 -0.36576106330E+03  0.39931068441E+03 -0.10625241732E+01  0.54150836288E+03  0.00000000000E+00 0. -1.
         -1    1    6    6    0  503 -0.93827959949E+02  0.10415057110E+03  0.46763128235E+02  0.14777624197E+03  0.00000000000E+00 0.  1.
<mgrwt>
<rscale>  0 0.23609451E+04</rscale>
<asrwt>0</asrwt>
<pdfrwt beam="1">  1        2 0.22388008E+00 0.23609451E+04</pdfrwt>
<pdfrwt beam="2">  1       -1 0.14732268E+00 0.23609451E+04</pdfrwt>
<totfact> 0.50651638E+00</totfact>
</mgrwt>
</event>
<event>
12    6  0.1395358E-007  0.1973276E+04  0.7818608E-02  0.8619218E-01
         -1   -1    0    0    0  501 -0.00000000000E+00  0.00000000000E+00  0.90734326905E+03  0.90734326905E+03  0.00000000000E+00 0.  1.
          2   -1    0    0  501    0  0.00000000000E+00 -0.00000000000E+00 -0.10728628629E+04  0.10728628629E+04  0.00000000000E+00 0. -1.
         24    2    1    2    0    0 -0.60369483183E+03 -0.45151560502E+03  0.13206718586E+03  0.76917986213E+03  0.76695027088E+02 0.  0.
        254    2    1    2    0    0  0.60369483183E+03  0.45151560502E+03 -0.29758677975E+03  0.12110262699E+04  0.89984050990E+03 0.  0.
         23    2    4    4    0    0  0.62626566440E+03  0.66318711605E+03 -0.13190093082E+03  0.92602056970E+03  0.89946687797E+02 0.  0.
         23    2    4    4    0    0 -0.22570832576E+02 -0.21167151103E+03 -0.16568584893E+03  0.28500570016E+03  0.91990094696E+02 0.  0.
          2    1    3    3  502    0 -0.48494391699E+03 -0.32283861544E+03  0.96769042281E+02  0.59055873695E+03  0.00000000000E+00 0. -1.
         -1    1    3    3    0  502 -0.11875091484E+03 -0.12867698958E+03  0.35298143578E+02  0.17862112518E+03  0.00000000000E+00 0.  1.
         11    1    5    5    0    0  0.15561301591E+03  0.20446934914E+03 -0.67414793661E+02  0.26564615537E+03  0.00000000000E+00 0. -1.
        -11    1    5    5    0    0  0.47065264849E+03  0.45871776691E+03 -0.64486137159E+02  0.66037441433E+03  0.00000000000E+00 0.  1.
          2    1    6    6  503    0  0.30360987260E+01 -0.64459780663E+02 -0.10601235157E+03  0.12410841996E+03  0.00000000000E+00 0.  1.
         -2    1    6    6    0  503 -0.25606931302E+02 -0.14721173037E+03 -0.59673497354E+02  0.16089728020E+03  0.00000000000E+00 0. -1.
<mgrwt>
<rscale>  0 0.19732764E+04</rscale>
<asrwt>0</asrwt>
<pdfrwt beam="1">  1        2 0.16505583E+00 0.19732764E+04</pdfrwt>
<pdfrwt beam="2">  1       -1 0.13959127E+00 0.19732764E+04</pdfrwt>
<totfact> 0.10159235E+01</totfact>
</mgrwt>
</event>
<event>
12    6  0.1395358E-007  0.1895803E+04  0.7818608E-02  0.8656948E-01
         -1   -1    0    0    0  501 -0.00000000000E+00  0.00000000000E+00  0.41521208772E+03  0.41521208772E+03  0.00000000000E+00 0.  1.
          2   -1    0    0  501    0  0.00000000000E+00 -0.00000000000E+00 -0.21639960201E+04  0.21639960201E+04  0.00000000000E+00 0. -1.
         24    2    1    2    0    0 -0.34434882521E+03 -0.56880965605E+03 -0.10916395643E+04  0.12811313662E+04  0.86603122753E+02 0.  0.
        254    2    1    2    0    0  0.34434882521E+03  0.56880965605E+03 -0.65714436805E+03  0.12980767416E+04  0.90057979566E+03 0.  0.
         23    2    4    4    0    0  0.33600392126E+03 -0.16125552022E+03 -0.21260494931E+03  0.43840674409E+03  0.89986837305E+02 0.  0.
         23    2    4    4    0    0  0.83449039487E+01  0.73006517627E+03 -0.44453941874E+03  0.85966999750E+03  0.91391524563E+02 0.  0.
          4    1    3    3  502    0 -0.20538367731E+03 -0.25583737765E+03 -0.53940293747E+03  0.63134043722E+03  0.00000000000E+00 0. -1.
         -3    1    3    3    0  502 -0.13896514789E+03 -0.31297227840E+03 -0.55223662685E+03  0.64979092900E+03  0.00000000000E+00 0.  1.
         11    1    5    5    0    0  0.13168110061E+03 -0.61980263734E+02 -0.13455574545E+03  0.19820876364E+03  0.00000000000E+00 0. -1.
        -11    1    5    5    0    0  0.20432282065E+03 -0.99275256489E+02 -0.78049203862E+02  0.24019798045E+03  0.00000000000E+00 0.  1.
          3    1    6    6  503    0 -0.12026116483E+02  0.31131827995E+02 -0.49494696004E+01  0.33738930648E+02  0.00000000000E+00 0. -1.
         -3    1    6    6    0  503  0.20371020432E+02  0.69893334827E+03 -0.43958994914E+03  0.82593106685E+03  0.00000000000E+00 0.  1.
<mgrwt>
<rscale>  0 0.18958031E+04</rscale>
<asrwt>0</asrwt>
<pdfrwt beam="1">  1        2 0.33292247E+00 0.18958031E+04</pdfrwt>
<pdfrwt beam="2">  1       -1 0.63878783E-01 0.18958031E+04</pdfrwt>
<totfact> 0.14345165E+01</totfact>
</mgrwt>
</event>
<event>
12    6  0.1395358E-007  0.1653224E+04  0.7818608E-02  0.8788502E-01
         -1   -1    0    0    0  501 -0.00000000000E+00  0.00000000000E+00  0.42667088815E+03  0.42667088815E+03  0.00000000000E+00 0.  1.
          2   -1    0    0  501    0  0.00000000000E+00 -0.00000000000E+00 -0.16014386745E+04  0.16014386745E+04  0.00000000000E+00 0. -1.
         24    2    1    2    0    0  0.43404553149E+03  0.82982986434E+02  0.42379378614E+02  0.45117192227E+03  0.80488460475E+02 0.  0.
        254    2    1    2    0    0 -0.43404553149E+03 -0.82982986434E+02 -0.12171471649E+04  0.15769376403E+04  0.90000188944E+03 0.  0.
         23    2    4    4    0    0 -0.44058173433E+03 -0.28607987451E+03 -0.12433773653E+04  0.13529034845E+04  0.91687549020E+02 0.  0.
         23    2    4    4    0    0  0.65362028370E+01  0.20309688808E+03  0.26230200334E+02  0.22403415587E+03  0.90621254080E+02 0.  0.
          2    1    3    3  502    0  0.20806824110E+03  0.25946616709E+02 -0.17888768420E+02  0.21044150709E+03  0.00000000000E+00 0. -1.
         -1    1    3    3    0  502  0.22597729040E+03  0.57036369725E+02  0.60268147034E+02  0.24073041518E+03  0.00000000000E+00 0.  1.
         11    1    5    5    0    0 -0.24382302918E+03 -0.21163040167E+03 -0.75912077272E+03  0.82492511421E+03  0.00000000000E+00 0.  1.
        -11    1    5    5    0    0 -0.19675870515E+03 -0.74449472845E+02 -0.48425659253E+03  0.52797837026E+03  0.00000000000E+00 0. -1.
          4    1    6    6  503    0 -0.26482902200E+02  0.77669686031E+02  0.44015622842E+02  0.93119811487E+02  0.00000000000E+00 0. -1.
         -4    1    6    6    0  503  0.33019105037E+02  0.12542720205E+03 -0.17785422508E+02  0.13091434438E+03  0.00000000000E+00 0.  1.
<mgrwt>
<rscale>  0 0.16532238E+04</rscale>
<asrwt>0</asrwt>
<pdfrwt beam="1">  1        2 0.24637518E+00 0.16532238E+04</pdfrwt>
<pdfrwt beam="2">  1       -1 0.65641675E-01 0.16532238E+04</pdfrwt>
<totfact> 0.28491375E+01</totfact>
</mgrwt>
</event>
<event>
12    6  0.1395358E-007  0.2933162E+04  0.7818608E-02  0.8263079E-01
         -1   -1    0    0    0  501 -0.00000000000E+00  0.00000000000E+00  0.10125376418E+04  0.10125376418E+04  0.00000000000E+00 0.  1.
          2   -1    0    0  501    0  0.00000000000E+00 -0.00000000000E+00 -0.21242263686E+04  0.21242263686E+04  0.00000000000E+00 0. -1.
         24    2    1    2    0    0 -0.67551290485E+03 -0.97215845405E+03 -0.11453411794E+04  0.16491667265E+04  0.80837677397E+02 0.  0.
        254    2    1    2    0    0  0.67551290485E+03  0.97215845405E+03  0.33652452725E+02  0.14875972839E+04  0.90022410936E+03 0.  0.
         23    2    4    4    0    0  0.44324885109E+03 -0.90227547568E+01 -0.10732968284E+03  0.46514439984E+03  0.91042285704E+02 0.  0.
         23    2    4    4    0    0  0.23226405376E+03  0.98118120881E+03  0.14098213556E+03  0.10224528841E+04  0.94184830970E+02 0.  0.
          2    1    3    3  502    0 -0.18010601189E+03 -0.28096374744E+03 -0.37135666050E+03  0.49928405963E+03  0.00000000000E+00 0. -1.
         -1    1    3    3    0  502 -0.49540689296E+03 -0.69119470661E+03 -0.77398451894E+03  0.11498826669E+04  0.00000000000E+00 0.  1.
         11    1    5    5    0    0  0.10003858889E+02 -0.14102296428E+02  0.41012342286E+01  0.17769976910E+02  0.00000000000E+00 0.  1.
        -11    1    5    5    0    0  0.43324499220E+03  0.50795416710E+01 -0.11143091706E+03  0.44737442293E+03  0.00000000000E+00 0. -1.
          3    1    6    6  503    0  0.68434937977E+02  0.14343657224E+03  0.15799636847E+02  0.15970917167E+03  0.00000000000E+00 0.  1.
         -3    1    6    6    0  503  0.16382911578E+03  0.83774463657E+03  0.12518249871E+03  0.86274371239E+03  0.00000000000E+00 0. -1.
<mgrwt>
<rscale>  0 0.29331615E+04</rscale>
<asrwt>0</asrwt>
<pdfrwt beam="1">  1        2 0.32680405E+00 0.29331615E+04</pdfrwt>
<pdfrwt beam="2">  1       -1 0.15577502E+00 0.29331615E+04</pdfrwt>
<totfact> 0.17548216E+00</totfact>
</mgrwt>
</event>
<event>
12    6  0.1395358E-007  0.3442247E+04  0.7818608E-02  0.8127615E-01
          2   -1    0    0  501    0  0.00000000000E+00  0.00000000000E+00  0.22720336449E+04  0.22720336449E+04  0.00000000000E+00 0. -1.
         -1   -1    0    0    0  501 -0.00000000000E+00 -0.00000000000E+00 -0.13037946851E+04  0.13037946851E+04  0.00000000000E+00 0.  1.
         24    2    1    2    0    0 -0.55030717293E+03  0.10076552310E+04  0.16075105033E+04  0.19770547613E+04  0.80302314630E+02 0.  0.
        254    2    1    2    0    0  0.55030717293E+03 -0.10076552310E+04 -0.63927154345E+03  0.15987735687E+04  0.91060516613E+03 0.  0.
         23    2    4    4    0    0  0.49503664775E+03 -0.15825799558E+03 -0.50852894821E+03  0.73295587982E+03  0.92280847558E+02 0.  0.
         23    2    4    4    0    0  0.55270525184E+02 -0.84939723543E+03 -0.13074259524E+03  0.86581768889E+03  0.89532952955E+02 0.  0.
          4    1    3    3  502    0 -0.40461203409E+03  0.73223729319E+03  0.12304765940E+04  0.14879364906E+04  0.00000000000E+00 0. -1.
         -3    1    3    3    0  502 -0.14569513884E+03  0.27541793782E+03  0.37703390924E+03  0.48911827064E+03  0.00000000000E+00 0.  1.
         11    1    5    5    0    0  0.64402443373E+02 -0.36591815830E+02 -0.11637790908E+03  0.13795090946E+03  0.00000000000E+00 0.  1.
        -11    1    5    5    0    0  0.43063420438E+03 -0.12166617975E+03 -0.39215103912E+03  0.59500497036E+03  0.00000000000E+00 0. -1.
          3    1    6    6  503    0  0.35607803138E+02 -0.75208005739E+03 -0.14097978462E+03  0.76600759006E+03  0.00000000000E+00 0. -1.
         -3    1    6    6    0  503  0.19662722045E+02 -0.97317178047E+02  0.10237189375E+02  0.99810098826E+02  0.00000000000E+00 0.  1.
<mgrwt>
<rscale>  0 0.34422466E+04</rscale>
<asrwt>0</asrwt>
<pdfrwt beam="1">  1        2 0.34954364E+00 0.34422466E+04</pdfrwt>
<pdfrwt beam="2">  1       -1 0.20058380E+00 0.34422466E+04</pdfrwt>
<totfact> 0.65808629E-01</totfact>
</mgrwt>
</event>
<event>
12    6  0.1395358E-007  0.3272787E+04  0.7818608E-02  0.8169855E-01
          2   -1    0    0  501    0  0.00000000000E+00  0.00000000000E+00  0.20529909797E+04  0.20529909797E+04  0.00000000000E+00 0. -1.
         -1   -1    0    0    0  501 -0.00000000000E+00 -0.00000000000E+00 -0.13043327263E+04  0.13043327263E+04  0.00000000000E+00 0.  1.
         24    2    1    2    0    0  0.11325248043E+04 -0.99901681312E+03  0.41537655892E+03  0.15683578690E+04  0.81004285958E+02 0.  0.
        254    2    1    2    0    0 -0.11325248043E+04  0.99901681312E+03  0.33328169452E+03  0.17889658370E+04  0.89926361702E+03 0.  0.
         23    2    4    4    0    0 -0.11821980168E+04  0.58534336598E+03  0.32622792761E+03  0.13625725298E+04  0.99800957459E+02 0.  0.
         23    2    4    4    0    0  0.49673212466E+02  0.41367344714E+03  0.70537669098E+01  0.42639330728E+03  0.90378913233E+02 0.  0.
          2    1    3    3  502    0  0.67564583507E+03 -0.59363095719E+03  0.20607333425E+03  0.92269237932E+03  0.00000000000E+00 0. -1.
         -1    1    3    3    0  502  0.45687896925E+03 -0.40538585593E+03  0.20930322467E+03  0.64566548970E+03  0.00000000000E+00 0.  1.
         11    1    5    5    0    0 -0.11755950825E+04  0.57339253832E+03  0.32881914274E+03  0.13486752128E+04  0.00000000000E+00 0. -1.
        -11    1    5    5    0    0 -0.66029342957E+01  0.11950827651E+02 -0.25912151264E+01  0.13897316960E+02  0.00000000000E+00 0.  1.
          4    1    6    6  503    0  0.56237692089E+01  0.23504473201E+03  0.42792140613E+02  0.23897451773E+03  0.00000000000E+00 0. -1.
         -4    1    6    6    0  503  0.44049443257E+02  0.17862871513E+03 -0.35738373703E+02  0.18741878955E+03  0.00000000000E+00 0.  1.
<mgrwt>
<rscale>  0 0.32727868E+04</rscale>
<asrwt>0</asrwt>
<pdfrwt beam="1">  1        2 0.31584477E+00 0.32727868E+04</pdfrwt>
<pdfrwt beam="2">  1       -1 0.20066657E+00 0.32727868E+04</pdfrwt>
<totfact> 0.88496281E-01</totfact>
</mgrwt>
</event>
<event>
12    6  0.1395358E-007  0.1294332E+04  0.7818608E-02  0.9034072E-01
          2   -1    0    0  501    0  0.00000000000E+00  0.00000000000E+00  0.10906314674E+03  0.10906314674E+03  0.00000000000E+00 0. -1.
         -1   -1    0    0    0  501 -0.00000000000E+00 -0.00000000000E+00 -0.38401973667E+04  0.38401973667E+04  0.00000000000E+00 0.  1.
         24    2    1    2    0    0  0.24849453156E+03  0.20629881661E+03 -0.11196669408E+04  0.11680571419E+04  0.79966833963E+02 0.  0.
        254    2    1    2    0    0 -0.24849453156E+03 -0.20629881661E+03 -0.26114672792E+04  0.27812033716E+04  0.90056765970E+03 0.  0.
         23    2    4    4    0    0 -0.34240674970E+03  0.27086483753E+03 -0.14955346917E+04  0.15606363260E+04  0.91387008771E+02 0.  0.
         23    2    4    4    0    0  0.93912218146E+02 -0.47716365414E+03 -0.11159325875E+04  0.12205670456E+04  0.89295662920E+02 0.  0.
          2    1    3    3  502    0  0.10367188710E+03  0.53636892394E+02 -0.50691872839E+03  0.52018398053E+03  0.00000000000E+00 0. -1.
         -1    1    3    3    0  502  0.14482264445E+03  0.15266192422E+03 -0.61274821237E+03  0.64787316137E+03  0.00000000000E+00 0.  1.
         11    1    5    5    0    0 -0.98407011931E+02  0.13406641093E+03 -0.56352809177E+03  0.58755565928E+03  0.00000000000E+00 0.  1.
        -11    1    5    5    0    0 -0.24399973777E+03  0.13679842660E+03 -0.93200659994E+03  0.97308066669E+03  0.00000000000E+00 0. -1.
          1    1    6    6  503    0  0.37147417887E+02 -0.12226188862E+03 -0.20839355521E+03  0.24444994154E+03  0.00000000000E+00 0. -1.
         -1    1    6    6    0  503  0.56764800259E+02 -0.35490176552E+03 -0.90753903230E+03  0.97611710407E+03  0.00000000000E+00 0.  1.
<mgrwt>
<rscale>  0 0.12943323E+04</rscale>
<asrwt>0</asrwt>
<pdfrwt beam="1">  1        2 0.16778946E-01 0.12943323E+04</pdfrwt>
<pdfrwt beam="2">  1       -1 0.59079957E+00 0.12943323E+04</pdfrwt>
<totfact> 0.18640794E-01</totfact>
</mgrwt>
</event>
<event>
12    6  0.1395358E-007  0.2323859E+04  0.7818608E-02  0.8468573E-01
          2   -1    0    0  501    0  0.00000000000E+00  0.00000000000E+00  0.34541789256E+04  0.34541789256E+04  0.00000000000E+00 0. -1.
         -1   -1    0    0    0  501 -0.00000000000E+00 -0.00000000000E+00 -0.39085414272E+03  0.39085414272E+03  0.00000000000E+00 0.  1.
         24    2    1    2    0    0 -0.60371027339E+03  0.75447217485E+03  0.16313699068E+04  0.18977005823E+04  0.78774174754E+02 0.  0.
        254    2    1    2    0    0  0.60371027339E+03 -0.75447217485E+03  0.14319548761E+04  0.19473324860E+04  0.89884074616E+03 0.  0.
         23    2    4    4    0    0  0.42699752575E+03  0.31870776096E+02  0.22139780610E+03  0.49021818263E+03  0.89186572262E+02 0.  0.
         23    2    4    4    0    0  0.17671274764E+03 -0.78634295095E+03  0.12105570700E+04  0.14571143033E+04  0.90393814058E+02 0.  0.
          2    1    3    3  502    0 -0.19451771075E+03  0.30384505110E+03  0.61283124116E+03  0.71114069284E+03  0.00000000000E+00 0. -1.
         -1    1    3    3    0  502 -0.40919256264E+03  0.45062712375E+03  0.10185386656E+04  0.11865598895E+04  0.00000000000E+00 0.  1.
         11    1    5    5    0    0  0.19342156098E+03  0.55041796057E+02  0.12278764251E+03  0.23562322618E+03  0.00000000000E+00 0. -1.
        -11    1    5    5    0    0  0.23357596478E+03 -0.23171019960E+02  0.98610163584E+02  0.25459495645E+03  0.00000000000E+00 0.  1.
          2    1    6    6  503    0  0.13323122557E+03 -0.43454606250E+03  0.73077960545E+03  0.86059262816E+03  0.00000000000E+00 0. -1.
         -2    1    6    6    0  503  0.43481522069E+02 -0.35179688844E+03  0.47977746454E+03  0.59652167518E+03  0.00000000000E+00 0.  1.
<mgrwt>
<rscale>  0 0.23238590E+04</rscale>
<asrwt>0</asrwt>
<pdfrwt beam="1">  1        2 0.53141212E+00 0.23238590E+04</pdfrwt>
<pdfrwt beam="2">  1       -1 0.60131409E-01 0.23238590E+04</pdfrwt>
<totfact> 0.25316081E+00</totfact>
</mgrwt>
</event>
<event>
12    6  0.1395358E-007  0.1715263E+04  0.7818608E-02  0.8752707E-01
         -1   -1    0    0    0  501 -0.00000000000E+00  0.00000000000E+00  0.35295874266E+03  0.35295874266E+03  0.00000000000E+00 0.  1.
          2   -1    0    0  501    0  0.00000000000E+00 -0.00000000000E+00 -0.20839042188E+04  0.20839042188E+04  0.00000000000E+00 0. -1.
         24    2    1    2    0    0 -0.55408097384E+03  0.27447874872E+03 -0.61616032172E+03  0.87670732198E+03  0.81350336712E+02 0.  0.
        254    2    1    2    0    0  0.55408097384E+03 -0.27447874872E+03 -0.11147851544E+04  0.15601556394E+04  0.89944169893E+03 0.  0.
         23    2    4    4    0    0  0.36540249052E+03  0.24301002828E+03 -0.20497191661E+03  0.49285430830E+03  0.91208709496E+02 0.  0.
         23    2    4    4    0    0  0.18867848332E+03 -0.51748877700E+03 -0.90981323776E+03  0.10673013311E+04  0.89318528065E+02 0.  0.
          4    1    3    3  502    0 -0.38972216834E+03  0.15060053057E+03 -0.41776452186E+03  0.59083930474E+03  0.00000000000E+00 0. -1.
         -3    1    3    3    0  502 -0.16435880550E+03  0.12387821815E+03 -0.19839579986E+03  0.28586801724E+03  0.00000000000E+00 0.  1.
         11    1    5    5    0    0  0.93213770298E+01  0.11828940837E+02  0.88871197051E+01  0.17486932485E+02  0.00000000000E+00 0. -1.
        -11    1    5    5    0    0  0.35608111349E+03  0.23118108744E+03 -0.21385903632E+03  0.47536737582E+03  0.00000000000E+00 0.  1.
          2    1    6    6  503    0 -0.45243337580E+01 -0.75322083914E+02 -0.12031660745E+03  0.14202102643E+03  0.00000000000E+00 0. -1.
         -2    1    6    6    0  503  0.19320281708E+03 -0.44216669308E+03 -0.78949663032E+03  0.92528030471E+03  0.00000000000E+00 0.  1.
<mgrwt>
<rscale>  0 0.17152635E+04</rscale>
<asrwt>0</asrwt>
<pdfrwt beam="1">  1        2 0.32060066E+00 0.17152635E+04</pdfrwt>
<pdfrwt beam="2">  1       -1 0.54301344E-01 0.17152635E+04</pdfrwt>
<totfact> 0.22244508E+01</totfact>
</mgrwt>
</event>
<event>
12    6  0.1395358E-007  0.2363520E+04  0.7818608E-02  0.8453289E-01
          2   -1    0    0  501    0  0.00000000000E+00  0.00000000000E+00  0.17650896337E+04  0.17650896337E+04  0.00000000000E+00 0. -1.
         -1   -1    0    0    0  501 -0.00000000000E+00 -0.00000000000E+00 -0.79121022816E+03  0.79121022816E+03  0.00000000000E+00 0.  1.
         24    2    1    2    0    0  0.70914348214E+03 -0.58485617421E+03 -0.32642475696E+02  0.92312193156E+03  0.78405015936E+02 0.  0.
        254    2    1    2    0    0 -0.70914348214E+03  0.58485617421E+03  0.10065218813E+04  0.16331779303E+04  0.89957914151E+03 0.  0.
         23    2    4    4    0    0 -0.50880772962E+03  0.69604696741E+03  0.10711469209E+04  0.13781513180E+04  0.92620961963E+02 0.  0.
         23    2    4    4    0    0 -0.20033575252E+03 -0.11119079319E+03 -0.64625039602E+02  0.25502661235E+03  0.91456935397E+02 0.  0.
          4    1    3    3  502    0  0.56310452725E+03 -0.43466985498E+03 -0.16338959555E+01  0.71135593134E+03  0.00000000000E+00 0. -1.
         -3    1    3    3    0  502  0.14603895490E+03 -0.15018631923E+03 -0.31008579741E+02  0.21176600022E+03  0.00000000000E+00 0.  1.
         11    1    5    5    0    0 -0.12150853812E+03  0.23859658605E+03  0.33360282584E+03  0.42776570821E+03  0.00000000000E+00 0.  1.
        -11    1    5    5    0    0 -0.38729919151E+03  0.45745038136E+03  0.73754409502E+03  0.95038560976E+03  0.00000000000E+00 0. -1.
          1    1    6    6  503    0 -0.11554501581E+03 -0.11235635505E+03 -0.32916746797E+02  0.16449350570E+03  0.00000000000E+00 0. -1.
         -1    1    6    6    0  503 -0.84790736711E+02  0.11655618523E+01 -0.31708292805E+02  0.90533106646E+02  0.00000000000E+00 0.  1.
<mgrwt>
<rscale>  0 0.23635202E+04</rscale>
<asrwt>0</asrwt>
<pdfrwt beam="1">  1        2 0.27155225E+00 0.23635202E+04</pdfrwt>
<pdfrwt beam="2">  1       -1 0.12172465E+00 0.23635202E+04</pdfrwt>
<totfact> 0.55376429E+00</totfact>
</mgrwt>
</event>
<event>
12    6  0.1395358E-007  0.2520628E+04  0.7818608E-02  0.8395673E-01
          2   -1    0    0  501    0  0.00000000000E+00  0.00000000000E+00  0.11372099459E+04  0.11372099459E+04  0.00000000000E+00 0. -1.
         -1   -1    0    0    0  501 -0.00000000000E+00 -0.00000000000E+00 -0.13967439270E+04  0.13967439270E+04  0.00000000000E+00 0.  1.
         24    2    1    2    0    0  0.43969686105E+03  0.86830400710E+03  0.39601201641E+03  0.10538562992E+04  0.80637484837E+02 0.  0.
        254    2    1    2    0    0 -0.43969686105E+03 -0.86830400710E+03 -0.65554599754E+03  0.14800975737E+04  0.90203275678E+03 0.  0.
         23    2    4    4    0    0  0.30651563048E+02 -0.77176785984E+03 -0.61072374021E+03  0.98894240131E+03  0.91969769179E+02 0.  0.
         23    2    4    4    0    0 -0.47034842410E+03 -0.96536147260E+02 -0.44822257330E+02  0.49115517235E+03  0.93153104081E+02 0.  0.
          4    1    3    3  502    0  0.18785898986E+03  0.45987185220E+03  0.19763546412E+03  0.53463342319E+03  0.00000000000E+00 0. -1.
         -3    1    3    3    0  502  0.25183787118E+03  0.40843215490E+03  0.19837655229E+03  0.51922287605E+03  0.00000000000E+00 0.  1.
         11    1    5    5    0    0  0.44954344485E+02 -0.18373174095E+03 -0.13402272055E+03  0.23181961812E+03  0.00000000000E+00 0. -1.
        -11    1    5    5    0    0 -0.14302781437E+02 -0.58803611889E+03 -0.47670101966E+03  0.75712278319E+03  0.00000000000E+00 0.  1.
          3    1    6    6  503    0 -0.43231469451E+03 -0.70232609918E+02 -0.60901151541E+02  0.44219629673E+03  0.00000000000E+00 0. -1.
         -3    1    6    6    0  503 -0.38033729585E+02 -0.26303537343E+02  0.16078894211E+02  0.48958875620E+02  0.00000000000E+00 0.  1.
<mgrwt>
<rscale>  0 0.25206278E+04</rscale>
<asrwt>0</asrwt>
<pdfrwt beam="1">  1        2 0.17495538E+00 0.25206278E+04</pdfrwt>
<pdfrwt beam="2">  1       -1 0.21488368E+00 0.25206278E+04</pdfrwt>
<totfact> 0.24988537E+00</totfact>
</mgrwt>
</event>
<event>
12    6  0.1395358E-007  0.1751280E+04  0.7818608E-02  0.8732646E-01
         -3   -1    0    0    0  501 -0.00000000000E+00  0.00000000000E+00  0.71861122349E+03  0.71861122349E+03  0.00000000000E+00 0.  1.
          2   -1    0    0  501    0  0.00000000000E+00 -0.00000000000E+00 -0.10669824477E+04  0.10669824477E+04  0.00000000000E+00 0. -1.
         24    2    1    2    0    0 -0.48239397415E+03 -0.60111769655E+02 -0.55352656180E+03  0.74102962927E+03  0.80099224086E+02 0.  0.
        254    2    1    2    0    0  0.48239397415E+03  0.60111769655E+02  0.20515533759E+03  0.10445640419E+04  0.90150316359E+03 0.  0.
         23    2    4    4    0    0 -0.14917298383E+03 -0.17209267268E+03 -0.14067365447E+03  0.28264033054E+03  0.90708391487E+02 0.  0.
         23    2    4    4    0    0  0.63156695799E+03  0.23220444234E+03  0.34582899206E+03  0.76192371137E+03  0.90190491397E+02 0.  0.
          2    1    3    3  502    0 -0.43323426406E+03 -0.67485705224E+02 -0.52387532660E+03  0.68314830438E+03  0.00000000000E+00 0. -1.
         -1    1    3    3    0  502 -0.49159710095E+02  0.73739355698E+01 -0.29651235197E+02  0.57881324891E+02  0.00000000000E+00 0.  1.
         11    1    5    5    0    0  0.18264207815E+00  0.56466107204E+01  0.58309887535E+01  0.81189901220E+01  0.00000000000E+00 0. -1.
        -11    1    5    5    0    0 -0.14935562591E+03 -0.17773928340E+03 -0.14650464323E+03  0.27452134041E+03  0.00000000000E+00 0.  1.
          1    1    6    6  503    0  0.23059962002E+03  0.48380238808E+02  0.91533196924E+02  0.25277491647E+03  0.00000000000E+00 0. -1.
         -1    1    6    6    0  503  0.40096733797E+03  0.18382420353E+03  0.25429579513E+03  0.50914879490E+03  0.00000000000E+00 0.  1.
<mgrwt>
<rscale>  0 0.17512802E+04</rscale>
<asrwt>0</asrwt>
<pdfrwt beam="1">  1        2 0.16415115E+00 0.17512802E+04</pdfrwt>
<pdfrwt beam="2">  1       -3 0.11055557E+00 0.17512802E+04</pdfrwt>
<totfact> 0.94511664E+00</totfact>
</mgrwt>
</event>
<event>
12    6  0.1395358E-007  0.1745340E+04  0.7818608E-02  0.8735920E-01
          2   -1    0    0  501    0  0.00000000000E+00  0.00000000000E+00  0.53141790254E+03  0.53141790254E+03  0.00000000000E+00 0. -1.
         -1   -1    0    0    0  501 -0.00000000000E+00 -0.00000000000E+00 -0.14330581962E+04  0.14330581962E+04  0.00000000000E+00 0.  1.
         24    2    1    2    0    0 -0.22184406237E+03  0.29811521605E+03 -0.92578280681E+03  0.10008128116E+04  0.80405276307E+02 0.  0.
        254    2    1    2    0    0  0.22184406237E+03 -0.29811521605E+03  0.24142513127E+02  0.96366328714E+03  0.88880627810E+03 0.  0.
         23    2    4    4    0    0 -0.28152170566E+03 -0.26438676879E+03  0.16671952682E+03  0.43029880968E+03  0.90591559864E+02 0.  0.
         23    2    4    4    0    0  0.50336576803E+03 -0.33728447265E+02 -0.14257701369E+03  0.53336447746E+03  0.98156795019E+02 0.  0.
          2    1    3    3  502    0 -0.14398010829E+02  0.48392712559E+02 -0.18995830452E+03  0.19655359269E+03  0.00000000000E+00 0. -1.
         -1    1    3    3    0  502 -0.20744605154E+03  0.24972250349E+03 -0.73582450229E+03  0.80425921892E+03  0.00000000000E+00 0.  1.
         11    1    5    5    0    0 -0.19032452170E+03 -0.20747978879E+03  0.15699464735E+03  0.32236408859E+03  0.00000000000E+00 0. -1.
        -11    1    5    5    0    0 -0.91197183965E+02 -0.56906979994E+02  0.97248794671E+01  0.10793472109E+03  0.00000000000E+00 0.  1.
          4    1    6    6  503    0  0.30650990933E+03 -0.11837945855E+01 -0.13149930140E+03  0.33352929730E+03  0.00000000000E+00 0. -1.
         -4    1    6    6    0  503  0.19685585870E+03 -0.32544652679E+02 -0.11077712289E+02  0.19983518017E+03  0.00000000000E+00 0.  1.
<mgrwt>
<rscale>  0 0.17453398E+04</rscale>
<asrwt>0</asrwt>
<pdfrwt beam="1">  1        2 0.81756600E-01 0.17453398E+04</pdfrwt>
<pdfrwt beam="2">  1       -1 0.22047049E+00 0.17453398E+04</pdfrwt>
<totfact> 0.67861545E+00</totfact>
</mgrwt>
</event>
<event>
12    6  0.1395358E-007  0.2561204E+04  0.7818608E-02  0.8381500E-01
          2   -1    0    0  501    0  0.00000000000E+00  0.00000000000E+00  0.14785730217E+04  0.14785730217E+04  0.00000000000E+00 0. -1.
         -1   -1    0    0    0  501 -0.00000000000E+00 -0.00000000000E+00 -0.11091376989E+04  0.11091376989E+04  0.00000000000E+00 0.  1.
         24    2    1    2    0    0  0.22352729407E+03  0.10535477143E+04 -0.15226215842E+03  0.10909680203E+04  0.84262797357E+02 0.  0.
        254    2    1    2    0    0 -0.22352729407E+03 -0.10535477143E+04  0.52169748123E+03  0.14967427002E+04  0.89896785890E+03 0.  0.
         23    2    4    4    0    0 -0.56066095411E+03 -0.65053401385E+03  0.25533237970E+03  0.90071742455E+03  0.92531325116E+02 0.  0.
         23    2    4    4    0    0  0.33713366004E+03 -0.40301370043E+03  0.26636510153E+03  0.59602527569E+03  0.90645543098E+02 0.  0.
          2    1    3    3  502    0  0.18779980446E+03  0.91747786392E+03 -0.10409536886E+03  0.94226866824E+03  0.00000000000E+00 0. -1.
         -1    1    3    3    0  502  0.35727489615E+02  0.13606985036E+03 -0.48166789569E+02  0.14869935208E+03  0.00000000000E+00 0.  1.
         11    1    5    5    0    0 -0.11037256019E+03 -0.90045782889E+02  0.67477572639E+02  0.15761842490E+03  0.00000000000E+00 0. -1.
        -11    1    5    5    0    0 -0.45028839391E+03 -0.56048823096E+03  0.18785480706E+03  0.74309899965E+03  0.00000000000E+00 0.  1.
          2    1    6    6  503    0  0.20931752885E+03 -0.29975507012E+03  0.15261630499E+03  0.39618009351E+03  0.00000000000E+00 0. -1.
         -2    1    6    6    0  503  0.12781613119E+03 -0.10325863031E+03  0.11374879654E+03  0.19984518218E+03  0.00000000000E+00 0.  1.
<mgrwt>
<rscale>  0 0.25612037E+04</rscale>
<asrwt>0</asrwt>
<pdfrwt beam="1">  1        2 0.22747277E+00 0.25612037E+04</pdfrwt>
<pdfrwt beam="2">  1       -1 0.17063657E+00 0.25612037E+04</pdfrwt>
<totfact> 0.32117776E+00</totfact>
</mgrwt>
</event>
<event>
12    6  0.1395358E-007  0.2357396E+04  0.7818608E-02  0.8455628E-01
          2   -1    0    0  501    0  0.00000000000E+00  0.00000000000E+00  0.13364656951E+04  0.13364656951E+04  0.00000000000E+00 0. -1.
         -1   -1    0    0    0  501 -0.00000000000E+00 -0.00000000000E+00 -0.10395548213E+04  0.10395548213E+04  0.00000000000E+00 0.  1.
         24    2    1    2    0    0  0.72998712580E+03  0.68198477985E+03  0.17826736565E+02  0.10023268793E+04  0.79730399988E+02 0.  0.
        254    2    1    2    0    0 -0.72998712580E+03 -0.68198477985E+03  0.27908413728E+03  0.13736936371E+04  0.90064521820E+03 0.  0.
         23    2    4    4    0    0 -0.47282841359E+03 -0.53776217683E+03 -0.24801081367E+03  0.76277424461E+03  0.86950083530E+02 0.  0.
         23    2    4    4    0    0 -0.25715871221E+03 -0.14422260302E+03  0.52709495095E+03  0.61091939246E+03  0.91992685968E+02 0.  0.
          2    1    3    3  502    0  0.35624830372E+03  0.38404516238E+03  0.22920880780E+02  0.52433663559E+03  0.00000000000E+00 0. -1.
         -1    1    3    3    0  502  0.37373882208E+03  0.29793961747E+03 -0.50941442147E+01  0.47799024373E+03  0.00000000000E+00 0.  1.
         11    1    5    5    0    0 -0.31300710237E+03 -0.30461117037E+03 -0.17742607471E+03  0.47142488611E+03  0.00000000000E+00 0.  1.
        -11    1    5    5    0    0 -0.15982131121E+03 -0.23315100646E+03 -0.70584738959E+02  0.29134935851E+03  0.00000000000E+00 0. -1.
          3    1    6    6  503    0 -0.40265393613E+02 -0.20774447057E+02  0.16531683503E+03  0.17141334696E+03  0.00000000000E+00 0. -1.
         -3    1    6    6    0  503 -0.21689331860E+03 -0.12344815596E+03  0.36177811592E+03  0.43950604549E+03  0.00000000000E+00 0.  1.
<mgrwt>
<rscale>  0 0.23573963E+04</rscale>
<asrwt>0</asrwt>
<pdfrwt beam="1">  1        2 0.20561011E+00 0.23573963E+04</pdfrwt>
<pdfrwt beam="2">  1       -1 0.15993151E+00 0.23573963E+04</pdfrwt>
<totfact> 0.47367678E+00</totfact>
</mgrwt>
</event>
<event>
12    6  0.1395358E-007  0.2741446E+04  0.7818608E-02  0.8321681E-01
          2   -1    0    0  501    0  0.00000000000E+00  0.00000000000E+00  0.17734233511E+04  0.17734233511E+04  0.00000000000E+00 0. -1.
         -1   -1    0    0    0  501 -0.00000000000E+00 -0.00000000000E+00 -0.10594656864E+04  0.10594656864E+04  0.00000000000E+00 0.  1.
         24    2    1    2    0    0  0.19906851835E+03  0.11275070846E+04 -0.11919638471E+03  0.11541847572E+04  0.83869987136E+02 0.  0.
        254    2    1    2    0    0 -0.19906851835E+03 -0.11275070846E+04  0.83315404938E+03  0.16787042803E+04  0.90166617424E+03 0.  0.
         23    2    4    4    0    0  0.19761410919E+03 -0.95959073376E+03  0.40250830787E+03  0.10627260735E+04  0.86649044680E+02 0.  0.
         23    2    4    4    0    0 -0.39668262754E+03 -0.16791635086E+03  0.43064574151E+03  0.61597820677E+03  0.91762675741E+02 0.  0.
          4    1    3    3  502    0  0.31437761472E+02  0.37299003281E+03 -0.58952358544E+02  0.37892648100E+03  0.00000000000E+00 0. -1.
         -3    1    3    3    0  502  0.16763075688E+03  0.75451705180E+03 -0.60244026168E+02  0.77525827619E+03  0.00000000000E+00 0.  1.
         11    1    5    5    0    0  0.19380613657E+03 -0.78680881647E+03  0.34320420964E+03  0.88001026231E+03  0.00000000000E+00 0. -1.
        -11    1    5    5    0    0  0.38079726260E+01 -0.17278191729E+03  0.59304098230E+02  0.18271581120E+03  0.00000000000E+00 0.  1.
          1    1    6    6  503    0 -0.22199277886E+03 -0.60893889769E+02  0.17971009032E+03  0.29203523116E+03  0.00000000000E+00 0. -1.
         -1    1    6    6    0  503 -0.17468984868E+03 -0.10702246109E+03  0.25093565118E+03  0.32394297561E+03  0.00000000000E+00 0.  1.
<mgrwt>
<rscale>  0 0.27414457E+04</rscale>
<asrwt>0</asrwt>
<pdfrwt beam="1">  1        2 0.27283436E+00 0.27414457E+04</pdfrwt>
<pdfrwt beam="2">  1       -1 0.16299472E+00 0.27414457E+04</pdfrwt>
<totfact> 0.24645645E+00</totfact>
</mgrwt>
</event>
<event>
12    6  0.1395358E-007  0.1507687E+04  0.7818608E-02  0.8879358E-01
         -1   -1    0    0    0  501 -0.00000000000E+00  0.00000000000E+00  0.59620641197E+03  0.59620641197E+03  0.00000000000E+00 0.  1.
          2   -1    0    0  501    0  0.00000000000E+00 -0.00000000000E+00 -0.95315925974E+03  0.95315925974E+03  0.00000000000E+00 0. -1.
         24    2    1    2    0    0  0.17890108367E+03  0.40275953150E+03  0.78992838746E+02  0.45483113023E+03  0.80066537973E+02 0.  0.
        254    2    1    2    0    0 -0.17890108367E+03 -0.40275953150E+03 -0.43594568651E+03  0.10945345415E+04  0.90207338002E+03 0.  0.
         23    2    4    4    0    0  0.18633487870E+03 -0.45124991142E+03 -0.50615972321E+03  0.70889678637E+03  0.89385786050E+02 0.  0.
         23    2    4    4    0    0 -0.36523596238E+03  0.48490379924E+02  0.70214036703E+02  0.38563775510E+03  0.89654013028E+02 0.  0.
          2    1    3    3  502    0  0.59723481617E+02  0.21630964841E+03  0.17099056547E+02  0.22505362914E+03  0.00000000000E+00 0. -1.
         -1    1    3    3    0  502  0.11917760206E+03  0.18644988308E+03  0.61893782199E+02  0.22977750109E+03  0.00000000000E+00 0.  1.
         11    1    5    5    0    0  0.84045857118E+02 -0.10105974276E+03 -0.12927520349E+03  0.18436066810E+03  0.00000000000E+00 0. -1.
        -11    1    5    5    0    0  0.10228902158E+03 -0.35019016866E+03 -0.37688451972E+03  0.52453611827E+03  0.00000000000E+00 0.  1.
          1    1    6    6  503    0 -0.24260553106E+03  0.34273166033E+02  0.29110541826E+01  0.24503176905E+03  0.00000000000E+00 0. -1.
         -1    1    6    6    0  503 -0.12263043132E+03  0.14217213891E+02  0.67302982521E+02  0.14060598605E+03  0.00000000000E+00 0.  1.
<mgrwt>
<rscale>  0 0.15076865E+04</rscale>
<asrwt>0</asrwt>
<pdfrwt beam="1">  1        2 0.14663989E+00 0.15076865E+04</pdfrwt>
<pdfrwt beam="2">  1       -1 0.91724064E-01 0.15076865E+04</pdfrwt>
<totfact> 0.34492068E+01</totfact>
</mgrwt>
</event>
<event>
12    6  0.1395358E-007  0.1750594E+04  0.7818608E-02  0.8733023E-01
          2   -1    0    0  501    0  0.00000000000E+00  0.00000000000E+00  0.34941428816E+04  0.34941428816E+04  0.00000000000E+00 0. -1.
         -3   -1    0    0    0  501 -0.00000000000E+00 -0.00000000000E+00 -0.21926548696E+03  0.21926548696E+03  0.00000000000E+00 0.  1.
         24    2    1    2    0    0 -0.79302052636E+02  0.70386962863E+02 -0.13324411882E+03  0.18678641510E+03  0.76759556865E+02 0.  0.
        254    2    1    2    0    0  0.79302052636E+02 -0.70386962863E+02  0.34081215135E+04  0.35266219535E+04  0.90029273684E+03 0.  0.
         23    2    4    4    0    0 -0.37939436583E+03 -0.21582924721E+02  0.10109189531E+04  0.10837976657E+04  0.90853414433E+02 0.  0.
         23    2    4    4    0    0  0.45869641847E+03 -0.48804038142E+02  0.23972025604E+04  0.24428242878E+04  0.89588766882E+02 0.  0.
          2    1    3    3  502    0  0.11948589084E+02 -0.45360331335E+01 -0.11487470411E+02  0.17184480036E+02  0.00000000000E+00 0. -1.
         -1    1    3    3    0  502 -0.91250641720E+02  0.74922995997E+02 -0.12175664841E+03  0.16960193506E+03  0.00000000000E+00 0.  1.
         11    1    5    5    0    0 -0.16292104249E+03 -0.39089620855E+02  0.34845293931E+03  0.38664029208E+03  0.00000000000E+00 0. -1.
        -11    1    5    5    0    0 -0.21647332334E+03  0.17506696133E+02  0.66246601381E+03  0.69715737361E+03  0.00000000000E+00 0.  1.
          4    1    6    6  503    0 -0.22898824745E+01  0.50895030730E+01  0.37212348188E+02  0.37628519250E+02  0.00000000000E+00 0. -1.
         -4    1    6    6    0  503  0.46098630094E+03 -0.53893541215E+02  0.23599902122E+04  0.24051957686E+04  0.00000000000E+00 0.  1.
<mgrwt>
<rscale>  0 0.17505941E+04</rscale>
<asrwt>0</asrwt>
<pdfrwt beam="1">  1        2 0.53756040E+00 0.17505941E+04</pdfrwt>
<pdfrwt beam="2">  1       -3 0.33733154E-01 0.17505941E+04</pdfrwt>
<totfact> 0.44205200E+00</totfact>
</mgrwt>
</event>
<event>
12    6  0.1395358E-007  0.2390563E+04  0.7818608E-02  0.8443045E-01
          2   -1    0    0  501    0  0.00000000000E+00  0.00000000000E+00  0.98119947852E+03  0.98119947852E+03  0.00000000000E+00 0. -1.
         -1   -1    0    0    0  501 -0.00000000000E+00 -0.00000000000E+00 -0.14560727612E+04  0.14560727612E+04  0.00000000000E+00 0.  1.
         24    2    1    2    0    0 -0.94346182100E+03  0.37810283869E+03 -0.79026029304E+02  0.10227015119E+04  0.81186851720E+02 0.  0.
        254    2    1    2    0    0  0.94346182100E+03 -0.37810283869E+03 -0.39584725340E+03  0.14145707278E+04  0.90068492364E+03 0.  0.
         23    2    4    4    0    0 -0.12207662534E+03  0.70900483965E+02  0.33714767819E+02  0.17770665511E+03  0.10253481664E+03 0.  0.
         23    2    4    4    0    0  0.10655384463E+04 -0.44900332266E+03 -0.42956202122E+03  0.12368640727E+04  0.91285485670E+02 0.  0.
          2    1    3    3  502    0 -0.27756186661E+03  0.12771725853E+03 -0.57874644665E+02  0.31096906987E+03  0.00000000000E+00 0. -1.
         -1    1    3    3    0  502 -0.66589995440E+03  0.25038558016E+03 -0.21151384640E+02  0.71173244207E+03  0.00000000000E+00 0.  1.
         11    1    5    5    0    0 -0.13123508249E+03  0.34086655990E+02  0.18552920347E+02  0.13685305201E+03  0.00000000000E+00 0. -1.
        -11    1    5    5    0    0  0.91584571496E+01  0.36813827975E+02  0.15161847473E+02  0.40853603101E+02  0.00000000000E+00 0.  1.
          4    1    6    6  503    0  0.10037090976E+04 -0.39837626704E+03 -0.40372651337E+03  0.11528793086E+04  0.00000000000E+00 0. -1.
         -4    1    6    6    0  503  0.61829348759E+02 -0.50627055619E+02 -0.25835507854E+02  0.83984764062E+02  0.00000000000E+00 0.  1.
<mgrwt>
<rscale>  0 0.23905630E+04</rscale>
<asrwt>0</asrwt>
<pdfrwt beam="1">  1        2 0.15095377E+00 0.23905630E+04</pdfrwt>
<pdfrwt beam="2">  1       -1 0.22401119E+00 0.23905630E+04</pdfrwt>
<totfact> 0.27498926E+00</totfact>
</mgrwt>
</event>
<event>
12    6  0.1395358E-007  0.1567509E+04  0.7818608E-02  0.8840761E-01
         -1   -1    0    0    0  501 -0.00000000000E+00  0.00000000000E+00  0.27213279994E+03  0.27213279994E+03  0.00000000000E+00 0.  1.
          2   -1    0    0  501    0  0.00000000000E+00 -0.00000000000E+00 -0.22572463111E+04  0.22572463111E+04  0.00000000000E+00 0. -1.
         24    2    1    2    0    0  0.47852919661E+03 -0.15081571467E+03 -0.44099190799E+03  0.67272345842E+03  0.79670677148E+02 0.  0.
        254    2    1    2    0    0 -0.47852919661E+03  0.15081571467E+03 -0.15441216032E+04  0.18566556526E+04  0.90062373679E+03 0.  0.
         23    2    4    4    0    0  0.18051817501E+03  0.28065054475E+03 -0.41437307837E+03  0.53897911151E+03  0.86266417525E+02 0.  0.
         23    2    4    4    0    0 -0.65904737162E+03 -0.12983483008E+03 -0.11297485248E+04  0.13176765411E+04  0.93483777057E+02 0.  0.
          2    1    3    3  502    0  0.27946523855E+03 -0.49632031732E+02 -0.26633507095E+03  0.38922811840E+03  0.00000000000E+00 0. -1.
         -1    1    3    3    0  502  0.19906395806E+03 -0.10118368294E+03 -0.17465683704E+03  0.28349534002E+03  0.00000000000E+00 0.  1.
         11    1    5    5    0    0  0.57772689969E+02  0.94603887985E+02 -0.20562907180E+03  0.23360414059E+03  0.00000000000E+00 0. -1.
        -11    1    5    5    0    0  0.12274548504E+03  0.18604665676E+03 -0.20874400656E+03  0.30537497092E+03  0.00000000000E+00 0.  1.
          3    1    6    6  503    0 -0.24657220143E+03 -0.91842451833E+02 -0.40710756006E+03  0.48473647679E+03  0.00000000000E+00 0. -1.
         -3    1    6    6    0  503 -0.41247517019E+03 -0.37992378246E+02 -0.72264096477E+03  0.83294006434E+03  0.00000000000E+00 0.  1.
<mgrwt>
<rscale>  0 0.15675085E+04</rscale>
<asrwt>0</asrwt>
<pdfrwt beam="1">  1        2 0.34726866E+00 0.15675085E+04</pdfrwt>
<pdfrwt beam="2">  1       -1 0.41866585E-01 0.15675085E+04</pdfrwt>
<totfact> 0.29425331E+01</totfact>
</mgrwt>
</event>
<event>
12    6  0.1395358E-007  0.5161937E+04  0.7818608E-02  0.7804001E-01
          2   -1    0    0  501    0  0.00000000000E+00  0.00000000000E+00  0.20248858290E+04  0.20248858290E+04  0.00000000000E+00 0. -1.
         -1   -1    0    0    0  501 -0.00000000000E+00 -0.00000000000E+00 -0.32897653265E+04  0.32897653265E+04  0.00000000000E+00 0.  1.
         24    2    1    2    0    0  0.14848848465E+04 -0.16657886931E+04  0.54536511085E+03  0.22985811315E+04  0.79480415214E+02 0.  0.
        254    2    1    2    0    0 -0.14848848465E+04  0.16657886931E+04 -0.18102446084E+04  0.30160700241E+04  0.91649215531E+03 0.  0.
         23    2    4    4    0    0 -0.14385020065E+04  0.17097179687E+04 -0.18418405379E+04  0.28970704869E+04  0.90649233966E+02 0.  0.
         23    2    4    4    0    0 -0.46382839938E+02 -0.43929275646E+02  0.31595929505E+02  0.11899953720E+03  0.95296579122E+02 0.  0.
          2    1    3    3  502    0  0.56860560349E+03 -0.69290362763E+03  0.20523651281E+03  0.91953781635E+03  0.00000000000E+00 0. -1.
         -1    1    3    3    0  502  0.91627924299E+03 -0.97288506546E+03  0.34012859804E+03  0.13790433151E+04  0.00000000000E+00 0.  1.
         11    1    5    5    0    0 -0.11384918271E+04  0.14033865027E+04 -0.14689709614E+04  0.23288479989E+04  0.00000000000E+00 0.  1.
        -11    1    5    5    0    0 -0.30001017941E+03  0.30633146602E+03 -0.37286957644E+03  0.56822248799E+03  0.00000000000E+00 0. -1.
          2    1    6    6  503    0  0.42113215732E+01 -0.37188293969E+02  0.51968768717E+02  0.64042621431E+02  0.00000000000E+00 0. -1.
         -2    1    6    6    0  503 -0.50594161512E+02 -0.67409816774E+01 -0.20372839212E+02  0.54956915767E+02  0.00000000000E+00 0.  1.
<mgrwt>
<rscale>  0 0.51619373E+04</rscale>
<asrwt>0</asrwt>
<pdfrwt beam="1">  1        2 0.31152090E+00 0.51619373E+04</pdfrwt>
<pdfrwt beam="2">  1       -1 0.50611774E+00 0.51619373E+04</pdfrwt>
<totfact> 0.72678525E-03</totfact>
</mgrwt>
</event>
<event>
12    6  0.1395358E-007  0.1708221E+04  0.7818608E-02  0.8756689E-01
         -1   -1    0    0    0  501 -0.00000000000E+00  0.00000000000E+00  0.37324164565E+03  0.37324164565E+03  0.00000000000E+00 0.  1.
          2   -1    0    0  501    0  0.00000000000E+00 -0.00000000000E+00 -0.19545104733E+04  0.19545104733E+04  0.00000000000E+00 0. -1.
         24    2    1    2    0    0 -0.45632141263E+03 -0.74684398964E+02 -0.23590413823E+02  0.47145800397E+03  0.88933406640E+02 0.  0.
        254    2    1    2    0    0  0.45632141263E+03  0.74684398964E+02 -0.15576784138E+04  0.18562941150E+04  0.89758498724E+03 0.  0.
         23    2    4    4    0    0  0.29178283894E+03 -0.37111629297E+03 -0.10543280566E+04  0.11585792481E+04  0.88508164054E+02 0.  0.
         23    2    4    4    0    0  0.16453857368E+03  0.44580069193E+03 -0.50335035722E+03  0.69771486690E+03  0.87368496785E+02 0.  0.
          4    1    3    3  502    0 -0.16899698134E+03 -0.70440832572E+02 -0.18913851639E+02  0.18406418548E+03  0.00000000000E+00 0. -1.
         -3    1    3    3    0  502 -0.28732443129E+03 -0.42435663914E+01 -0.46765621846E+01  0.28739381849E+03  0.00000000000E+00 0.  1.
         11    1    5    5    0    0  0.16157391583E+03 -0.13795548742E+03 -0.50052157892E+03  0.54374598642E+03  0.00000000000E+00 0. -1.
        -11    1    5    5    0    0  0.13020892312E+03 -0.23316080555E+03 -0.55380647769E+03  0.61483326165E+03  0.00000000000E+00 0.  1.
          3    1    6    6  503    0  0.36699513666E+01 -0.37518966449E+01 -0.27611496900E+01  0.59303641607E+01  0.00000000000E+00 0. -1.
         -3    1    6    6    0  503  0.16086862232E+03  0.44955258858E+03 -0.50058920753E+03  0.69178450274E+03  0.00000000000E+00 0.  1.
<mgrwt>
<rscale>  0 0.17082210E+04</rscale>
<asrwt>0</asrwt>
<pdfrwt beam="1">  1        2 0.30069392E+00 0.17082210E+04</pdfrwt>
<pdfrwt beam="2">  1       -1 0.57421791E-01 0.17082210E+04</pdfrwt>
<totfact> 0.23560774E+01</totfact>
</mgrwt>
</event>
<event>
12    6  0.1395358E-007  0.1223971E+04  0.7818608E-02  0.9092129E-01
          2   -1    0    0  501    0  0.00000000000E+00  0.00000000000E+00  0.43294430634E+03  0.43294430634E+03  0.00000000000E+00 0. -1.
         -1   -1    0    0    0  501 -0.00000000000E+00 -0.00000000000E+00 -0.86506867350E+03  0.86506867350E+03  0.00000000000E+00 0.  1.
         24    2    1    2    0    0 -0.18325341665E+03  0.61980509232E+02 -0.30339127751E+03  0.36869231478E+03  0.80401228024E+02 0.  0.
        254    2    1    2    0    0  0.18325341665E+03 -0.61980509232E+02 -0.12873308965E+03  0.92932066506E+03  0.89980069565E+03 0.  0.
         23    2    4    4    0    0  0.52945379142E+02 -0.30004530690E+03 -0.41632759751E+03  0.52400240093E+03  0.91757552090E+02 0.  0.
         23    2    4    4    0    0  0.13030803751E+03  0.23806479767E+03  0.28759450786E+03  0.40531826413E+03  0.88978996162E+02 0.  0.
          2    1    3    3  502    0 -0.41340474875E+02 -0.71832593121E+01 -0.11773852651E+03  0.12499197855E+03  0.00000000000E+00 0. -1.
         -1    1    3    3    0  502 -0.14191294178E+03  0.69163768544E+02 -0.18565275100E+03  0.24370033623E+03  0.00000000000E+00 0.  1.
         11    1    5    5    0    0 -0.44510604474E+01 -0.13422827128E+03 -0.12255422826E+03  0.18181468482E+03  0.00000000000E+00 0.  1.
        -11    1    5    5    0    0  0.57396439590E+02 -0.16581703562E+03 -0.29377336924E+03  0.34218771611E+03  0.00000000000E+00 0. -1.
          4    1    6    6  503    0  0.11134473118E+03  0.11228851359E+03  0.16822621598E+03  0.23088182949E+03  0.00000000000E+00 0. -1.
         -4    1    6    6    0  503  0.18963306331E+02  0.12577628408E+03  0.11936829187E+03  0.17443643464E+03  0.00000000000E+00 0.  1.
<mgrwt>
<rscale>  0 0.12239715E+04</rscale>
<asrwt>0</asrwt>
<pdfrwt beam="1">  1        2 0.66606817E-01 0.12239715E+04</pdfrwt>
<pdfrwt beam="2">  1       -1 0.13308749E+00 0.12239715E+04</pdfrwt>
<totfact> 0.39157837E+01</totfact>
</mgrwt>
</event>
<event>
12    6  0.1395358E-007  0.4011600E+04  0.7818608E-02  0.8002211E-01
         -1   -1    0    0    0  501 -0.00000000000E+00  0.00000000000E+00  0.15096181759E+04  0.15096181759E+04  0.00000000000E+00 0.  1.
          2   -1    0    0  501    0  0.00000000000E+00 -0.00000000000E+00 -0.26650672596E+04  0.26650672596E+04  0.00000000000E+00 0. -1.
         24    2    1    2    0    0 -0.18163414199E+04 -0.56724564837E+03 -0.60566340756E+03  0.19981261704E+04  0.69399209775E+02 0.  0.
        254    2    1    2    0    0  0.18163414199E+04  0.56724564837E+03 -0.54978567606E+03  0.21765592651E+04  0.90237584490E+03 0.  0.
         23    2    4    4    0    0  0.48091668830E+03  0.37334483862E+03  0.17752279760E+03  0.64092501111E+03  0.92753957282E+02 0.  0.
         23    2    4    4    0    0  0.13354247316E+04  0.19390080974E+03 -0.72730847367E+03  0.15356342540E+04  0.90764575804E+02 0.  0.
          4    1    3    3  502    0 -0.78195609311E+03 -0.26723993441E+03 -0.23522462861E+03  0.85918748827E+03  0.00000000000E+00 0. -1.
         -3    1    3    3    0  502 -0.10343853268E+04 -0.30000571395E+03 -0.37043877895E+03  0.11389386821E+04  0.00000000000E+00 0.  1.
         11    1    5    5    0    0  0.11530708769E+03  0.13708437849E+03  0.71666936177E+02  0.19293522498E+03  0.00000000000E+00 0.  1.
        -11    1    5    5    0    0  0.36560960061E+03  0.23626046013E+03  0.10585586143E+03  0.44798978613E+03  0.00000000000E+00 0. -1.
          2    1    6    6  503    0  0.11056544972E+04  0.13557457399E+03 -0.62654946360E+03  0.12780518623E+04  0.00000000000E+00 0. -1.
         -2    1    6    6    0  503  0.22977023443E+03  0.58326235754E+02 -0.10075901006E+03  0.25758239170E+03  0.00000000000E+00 0.  1.
<mgrwt>
<rscale>  0 0.40116002E+04</rscale>
<asrwt>0</asrwt>
<pdfrwt beam="1">  1        2 0.41001034E+00 0.40116002E+04</pdfrwt>
<pdfrwt beam="2">  1       -1 0.23224895E+00 0.40116002E+04</pdfrwt>
<totfact> 0.22750227E-01</totfact>
</mgrwt>
</event>
<event>
12    6  0.1395358E-007  0.1366662E+04  0.7818608E-02  0.8978310E-01
         -1   -1    0    0    0  501 -0.00000000000E+00  0.00000000000E+00  0.28769395699E+03  0.28769395699E+03  0.00000000000E+00 0.  1.
          2   -1    0    0  501    0  0.00000000000E+00 -0.00000000000E+00 -0.16230497092E+04  0.16230497092E+04  0.00000000000E+00 0. -1.
         24    2    1    2    0    0  0.32614212111E+03 -0.13271080897E+03 -0.57993515548E+03  0.68305822490E+03  0.79138562389E+02 0.  0.
        254    2    1    2    0    0 -0.32614212111E+03  0.13271080897E+03 -0.75542059668E+03  0.12276854413E+04  0.90142688156E+03 0.  0.
         23    2    4    4    0    0 -0.51260914717E+03 -0.20692912481E+03 -0.35735644762E+03  0.66452848197E+03  0.91140947105E+02 0.  0.
         23    2    4    4    0    0  0.18646702605E+03  0.33963993377E+03 -0.39806414907E+03  0.56315695929E+03  0.92549757443E+02 0.  0.
          4    1    3    3  502    0  0.42061654202E+02 -0.79821053522E+01 -0.12723413206E+03  0.13424388672E+03  0.00000000000E+00 0. -1.
         -3    1    3    3    0  502  0.28408046691E+03 -0.12472870361E+03 -0.45270102343E+03  0.54881433818E+03  0.00000000000E+00 0.  1.
         11    1    5    5    0    0 -0.33024241979E+03 -0.10310950211E+03 -0.18120051193E+03  0.39054481277E+03  0.00000000000E+00 0.  1.
        -11    1    5    5    0    0 -0.18236672738E+03 -0.10381962270E+03 -0.17615593569E+03  0.27398366920E+03  0.00000000000E+00 0. -1.
          1    1    6    6  503    0  0.12259879869E+03  0.17426166243E+03 -0.16059546714E+03  0.26681172481E+03  0.00000000000E+00 0. -1.
         -1    1    6    6    0  503  0.63868227367E+02  0.16537827135E+03 -0.23746868192E+03  0.29634523447E+03  0.00000000000E+00 0.  1.
<mgrwt>
<rscale>  0 0.13666625E+04</rscale>
<asrwt>0</asrwt>
<pdfrwt beam="1">  1        2 0.24969995E+00 0.13666625E+04</pdfrwt>
<pdfrwt beam="2">  1       -1 0.44260610E-01 0.13666625E+04</pdfrwt>
<totfact> 0.60776646E+01</totfact>
</mgrwt>
</event>
<event>
12    6  0.1395358E-007  0.1309853E+04  0.7818608E-02  0.9021788E-01
          4   -1    0    0  501    0  0.00000000000E+00  0.00000000000E+00  0.39730256881E+03  0.39730256881E+03  0.00000000000E+00 0. -1.
         -3   -1    0    0    0  501 -0.00000000000E+00 -0.00000000000E+00 -0.10796026546E+04  0.10796026546E+04  0.00000000000E+00 0.  1.
         24    2    1    2    0    0 -0.26806602404E+03  0.20865018172E+03 -0.20686390287E+03  0.40563392244E+03  0.79698890487E+02 0.  0.
        254    2    1    2    0    0  0.26806602404E+03 -0.20865018172E+03 -0.47543618295E+03  0.10712713010E+04  0.89787991664E+03 0.  0.
         23    2    4    4    0    0  0.43962239483E+03 -0.45853384581E+03 -0.28618536472E+03  0.70237917997E+03  0.88956796701E+02 0.  0.
         23    2    4    4    0    0 -0.17155637079E+03  0.24988366409E+03 -0.18925081823E+03  0.36889212103E+03  0.91608355616E+02 0.  0.
          4    1    3    3  502    0 -0.85172671327E+02  0.10264774096E+03 -0.50194933382E+02  0.14251482029E+03  0.00000000000E+00 0. -1.
         -3    1    3    3    0  502 -0.18289335271E+03  0.10600244076E+03 -0.15666896949E+03  0.26311910214E+03  0.00000000000E+00 0.  1.
         11    1    5    5    0    0  0.26886210348E+03 -0.33229908953E+03 -0.21454074304E+03  0.47826482832E+03  0.00000000000E+00 0.  1.
        -11    1    5    5    0    0  0.17076029135E+03 -0.12623475629E+03 -0.71644621681E+02  0.22411435164E+03  0.00000000000E+00 0. -1.
          3    1    6    6  503    0 -0.11644377833E+03  0.88928398134E+02 -0.87842127052E+02  0.17083223581E+03  0.00000000000E+00 0. -1.
         -3    1    6    6    0  503 -0.55112592459E+02  0.16095526596E+03 -0.10140869117E+03  0.19805988522E+03  0.00000000000E+00 0.  1.
<mgrwt>
<rscale>  0 0.13098533E+04</rscale>
<asrwt>0</asrwt>
<pdfrwt beam="1">  1        4 0.61123473E-01 0.13098533E+04</pdfrwt>
<pdfrwt beam="2">  1       -3 0.16609272E+00 0.13098533E+04</pdfrwt>
<totfact> 0.13908460E+00</totfact>
</mgrwt>
</event>
<event>
12    6  0.1395358E-007  0.2145960E+04  0.7818608E-02  0.8541264E-01
         -1   -1    0    0    0  501 -0.00000000000E+00  0.00000000000E+00  0.46272641990E+03  0.46272641990E+03  0.00000000000E+00 0.  1.
          2   -1    0    0  501    0  0.00000000000E+00 -0.00000000000E+00 -0.24880484852E+04  0.24880484852E+04  0.00000000000E+00 0. -1.
         24    2    1    2    0    0 -0.41952652884E+03  0.39089287622E+03  0.86606717781E+02  0.58526592889E+03  0.78966669357E+02 0.  0.
        254    2    1    2    0    0  0.41952652884E+03 -0.39089287622E+03 -0.21119287831E+04  0.23655089762E+04  0.89810343649E+03 0.  0.
         23    2    4    4    0    0  0.42099548378E+02  0.21507041893E+03 -0.16275307296E+03  0.28766685877E+03  0.90752420371E+02 0.  0.
         23    2    4    4    0    0  0.37742698046E+03 -0.60596329515E+03 -0.19491757101E+04  0.20778421174E+04  0.92191514894E+02 0.  0.
          4    1    3    3  502    0 -0.25820779687E+03  0.18765693083E+03  0.41176975472E+02  0.32184147241E+03  0.00000000000E+00 0. -1.
         -3    1    3    3    0  502 -0.16131873196E+03  0.20323594540E+03  0.45429742309E+02  0.26342445648E+03  0.00000000000E+00 0.  1.
         11    1    5    5    0    0  0.68336035791E+02  0.14851947381E+03 -0.94709779534E+02  0.18893858851E+03  0.00000000000E+00 0. -1.
        -11    1    5    5    0    0 -0.26236487413E+02  0.66550945119E+02 -0.68043293422E+02  0.98728270256E+02  0.00000000000E+00 0.  1.
          1    1    6    6  503    0  0.29037236138E+03 -0.42291078611E+03 -0.14924823575E+04  0.15781866901E+04  0.00000000000E+00 0. -1.
         -1    1    6    6    0  503  0.87054619076E+02 -0.18305250905E+03 -0.45669335262E+03  0.49965542737E+03  0.00000000000E+00 0.  1.
<mgrwt>
<rscale>  0 0.21459597E+04</rscale>
<asrwt>0</asrwt>
<pdfrwt beam="1">  1        2 0.38277670E+00 0.21459597E+04</pdfrwt>
<pdfrwt beam="2">  1       -1 0.71188679E-01 0.21459597E+04</pdfrwt>
<totfact> 0.73664756E+00</totfact>
</mgrwt>
</event>
<event>
12    6  0.1395358E-007  0.2547602E+04  0.7818608E-02  0.8386221E-01
          2   -1    0    0  501    0  0.00000000000E+00  0.00000000000E+00  0.12702552698E+04  0.12702552698E+04  0.00000000000E+00 0. -1.
         -1   -1    0    0    0  501 -0.00000000000E+00 -0.00000000000E+00 -0.12773568680E+04  0.12773568680E+04  0.00000000000E+00 0.  1.
         24    2    1    2    0    0  0.24093574306E+03 -0.53859033005E+03 -0.94735989469E+03  0.11190090820E+04  0.80999873855E+02 0.  0.
        254    2    1    2    0    0 -0.24093574306E+03  0.53859033005E+03  0.94025829648E+03  0.14286030558E+04  0.89927273449E+03 0.  0.
         23    2    4    4    0    0 -0.19781361066E+03 -0.58751197654E+02  0.76590866606E+03  0.79841775588E+03  0.90955485697E+02 0.  0.
         23    2    4    4    0    0 -0.43122132395E+02  0.59734152770E+03  0.17434963042E+03  0.63018529990E+03  0.89773601713E+02 0.  0.
          2    1    3    3  502    0  0.18629878739E+02 -0.59916914794E+02 -0.61583080311E+02  0.87918057535E+02  0.00000000000E+00 0. -1.
         -1    1    3    3    0  502  0.22230586432E+03 -0.47867341525E+03 -0.88577681438E+03  0.10310910244E+04  0.00000000000E+00 0.  1.
         11    1    5    5    0    0 -0.13664792181E+03 -0.12570256213E+01  0.55107751323E+03  0.56776813950E+03  0.00000000000E+00 0. -1.
        -11    1    5    5    0    0 -0.61165688853E+02 -0.57494172033E+02  0.21483115283E+03  0.23064961638E+03  0.00000000000E+00 0.  1.
          1    1    6    6  503    0 -0.11650811779E+02  0.44780402391E+03  0.94684605070E+02  0.45785298916E+03  0.00000000000E+00 0. -1.
         -1    1    6    6    0  503 -0.31471320615E+02  0.14953750379E+03  0.79665025347E+02  0.17233231074E+03  0.00000000000E+00 0.  1.
<mgrwt>
<rscale>  0 0.25476022E+04</rscale>
<asrwt>0</asrwt>
<pdfrwt beam="1">  1        2 0.19542389E+00 0.25476022E+04</pdfrwt>
<pdfrwt beam="2">  1       -1 0.19651644E+00 0.25476022E+04</pdfrwt>
<totfact> 0.27716494E+00</totfact>
</mgrwt>
</event>
<event>
12    6  0.1395358E-007  0.1934023E+04  0.7818608E-02  0.8638104E-01
         -1   -1    0    0    0  501 -0.00000000000E+00  0.00000000000E+00  0.33059321274E+03  0.33059321274E+03  0.00000000000E+00 0.  1.
          2   -1    0    0  501    0  0.00000000000E+00 -0.00000000000E+00 -0.28285853869E+04  0.28285853869E+04  0.00000000000E+00 0. -1.
         24    2    1    2    0    0  0.37912024210E+03  0.64867703522E+03 -0.86332321171E+03  0.11475126269E+04  0.83331908331E+02 0.  0.
        254    2    1    2    0    0 -0.37912024210E+03 -0.64867703522E+03 -0.16346689624E+04  0.20116659728E+04  0.90007961604E+03 0.  0.
         23    2    4    4    0    0  0.63924726966E+02 -0.29803208289E+03 -0.13219293017E+04  0.13595621243E+04  0.89457241727E+02 0.  0.
         23    2    4    4    0    0 -0.44304496907E+03 -0.35064495233E+03 -0.31273966075E+03  0.65210384843E+03  0.90513018515E+02 0.  0.
          4    1    3    3  502    0  0.24153835035E+03  0.48081649913E+03 -0.59038370952E+03  0.79879797508E+03  0.00000000000E+00 0. -1.
         -3    1    3    3    0  502  0.13758189175E+03  0.16786053609E+03 -0.27293950219E+03  0.34871465178E+03  0.00000000000E+00 0.  1.
         11    1    5    5    0    0  0.31747033718E+02 -0.24710676925E+03 -0.91970747129E+03  0.95285437623E+03  0.00000000000E+00 0. -1.
        -11    1    5    5    0    0  0.32177693248E+02 -0.50925313638E+02 -0.40222183040E+03  0.40670774810E+03  0.00000000000E+00 0.  1.
          1    1    6    6  503    0 -0.38599670506E+03 -0.33954624210E+03 -0.27962255117E+03  0.58521267754E+03  0.00000000000E+00 0. -1.
         -1    1    6    6    0  503 -0.57048264012E+02 -0.11098710235E+02 -0.33117109576E+02  0.66891170885E+02  0.00000000000E+00 0.  1.
<mgrwt>
<rscale>  0 0.19340229E+04</rscale>
<asrwt>0</asrwt>
<pdfrwt beam="1">  1        2 0.43516700E+00 0.19340229E+04</pdfrwt>
<pdfrwt beam="2">  1       -1 0.50860492E-01 0.19340229E+04</pdfrwt>
<totfact> 0.91959834E+00</totfact>
</mgrwt>
</event>
<event>
12    6  0.1395358E-007  0.1592609E+04  0.7818608E-02  0.8825101E-01
          2   -1    0    0  501    0  0.00000000000E+00  0.00000000000E+00  0.51283304643E+03  0.51283304643E+03  0.00000000000E+00 0. -1.
         -1   -1    0    0    0  501 -0.00000000000E+00 -0.00000000000E+00 -0.12364670580E+04  0.12364670580E+04  0.00000000000E+00 0.  1.
         24    2    1    2    0    0 -0.32505552620E+03  0.29290311559E+03 -0.59067219588E+03  0.73942736130E+03  0.80036550458E+02 0.  0.
        254    2    1    2    0    0  0.32505552620E+03 -0.29290311559E+03 -0.13296181568E+03  0.10098727431E+04  0.90039479266E+03 0.  0.
         23    2    4    4    0    0 -0.13503078232E+03 -0.40718931449E+03  0.13255847279E+03  0.45829646000E+03  0.91801124901E+02 0.  0.
         23    2    4    4    0    0  0.46008630852E+03  0.11428619890E+03 -0.26552028847E+03  0.55157628313E+03  0.94840001944E+02 0.  0.
          2    1    3    3  502    0 -0.88806957752E+02  0.13155526593E+03 -0.21007703792E+03  0.26329797873E+03  0.00000000000E+00 0. -1.
         -1    1    3    3    0  502 -0.23624856845E+03  0.16134784966E+03 -0.38059515796E+03  0.47612938257E+03  0.00000000000E+00 0.  1.
         11    1    5    5    0    0 -0.10548283661E+03 -0.17295218049E+03  0.58432712631E+02  0.21083990956E+03  0.00000000000E+00 0. -1.
        -11    1    5    5    0    0 -0.29547945710E+02 -0.23423713400E+03  0.74125760163E+02  0.24745655045E+03  0.00000000000E+00 0.  1.
          3    1    6    6  503    0  0.27972516454E+03  0.51878376411E+02 -0.10868210082E+03  0.30454775103E+03  0.00000000000E+00 0. -1.
         -3    1    6    6    0  503  0.18036114398E+03  0.62407822486E+02 -0.15683818765E+03  0.24702853210E+03  0.00000000000E+00 0.  1.
<mgrwt>
<rscale>  0 0.15926094E+04</rscale>
<asrwt>0</asrwt>
<pdfrwt beam="1">  1        2 0.78897392E-01 0.15926094E+04</pdfrwt>
<pdfrwt beam="2">  1       -1 0.19022570E+00 0.15926094E+04</pdfrwt>
<totfact> 0.11541423E+01</totfact>
</mgrwt>
</event>
<event>
12    6  0.1395358E-007  0.3654713E+04  0.7818608E-02  0.8078073E-01
          2   -1    0    0  501    0  0.00000000000E+00  0.00000000000E+00  0.79107179111E+03  0.79107179111E+03  0.00000000000E+00 0. -1.
         -1   -1    0    0    0  501 -0.00000000000E+00 -0.00000000000E+00 -0.42211499978E+04  0.42211499978E+04  0.00000000000E+00 0.  1.
         24    2    1    2    0    0 -0.15582937907E+04  0.10069694907E+03 -0.25855375634E+04  0.30215417729E+04  0.79314437822E+02 0.  0.
        254    2    1    2    0    0  0.15582937907E+04 -0.10069694907E+03 -0.84454064331E+03  0.19906800160E+04  0.90063234144E+03 0.  0.
         23    2    4    4    0    0  0.38718121861E+02  0.12809127890E+03  0.94971502374E+02  0.18722493972E+03  0.90150557947E+02 0.  0.
         23    2    4    4    0    0  0.15195756688E+04 -0.22878822797E+03 -0.93951214568E+03  0.18034550763E+04  0.91174963222E+02 0.  0.
          4    1    3    3  502    0 -0.17743654664E+03  0.33158778351E+02 -0.27387558760E+03  0.32801077748E+03  0.00000000000E+00 0. -1.
         -3    1    3    3    0  502 -0.13808572440E+04  0.67538170719E+02 -0.23116619758E+04  0.26935309954E+04  0.00000000000E+00 0.  1.
         11    1    5    5    0    0 -0.27773416789E+02  0.29710473386E+02  0.37436934195E+02  0.55277472364E+02  0.00000000000E+00 0. -1.
        -11    1    5    5    0    0  0.66491538650E+02  0.98380805515E+02  0.57534568179E+02  0.13194746735E+03  0.00000000000E+00 0.  1.
          4    1    6    6  503    0  0.13808997454E+04 -0.22707445043E+03 -0.83312535602E+03  0.16286634925E+04  0.00000000000E+00 0. -1.
         -4    1    6    6    0  503  0.13867592338E+03 -0.17137775447E+01 -0.10638678966E+03  0.17479158382E+03  0.00000000000E+00 0.  1.
<mgrwt>
<rscale>  0 0.36547135E+04</rscale>
<asrwt>0</asrwt>
<pdfrwt beam="1">  1        2 0.12170336E+00 0.36547135E+04</pdfrwt>
<pdfrwt beam="2">  1       -1 0.64940768E+00 0.36547135E+04</pdfrwt>
<totfact> 0.94707407E-03</totfact>
</mgrwt>
</event>
<event>
12    6  0.1395358E-007  0.2620175E+04  0.7818608E-02  0.8361380E-01
         -1   -1    0    0    0  501 -0.00000000000E+00  0.00000000000E+00  0.13103062970E+04  0.13103062970E+04  0.00000000000E+00 0.  1.
          2   -1    0    0  501    0  0.00000000000E+00 -0.00000000000E+00 -0.13098687309E+04  0.13098687309E+04  0.00000000000E+00 0. -1.
         24    2    1    2    0    0  0.72844199488E+01  0.10985840432E+04 -0.35459012602E+03  0.11572299397E+04  0.80666059553E+02 0.  0.
        254    2    1    2    0    0 -0.72844199488E+01 -0.10985840432E+04  0.35502769212E+03  0.14629450882E+04  0.89845629059E+03 0.  0.
         23    2    4    4    0    0 -0.42706368827E+03 -0.71352195845E+03  0.14186744293E+03  0.84820182082E+03  0.88447602815E+02 0.  0.
         23    2    4    4    0    0  0.41977926832E+03 -0.38506208475E+03  0.21316024919E+03  0.61474326736E+03  0.89356307570E+02 0.  0.
          4    1    3    3  502    0 -0.47868007419E+01  0.35524530957E+03 -0.15391983679E+03  0.38718659532E+03  0.00000000000E+00 0. -1.
         -3    1    3    3    0  502  0.12071220691E+02  0.74333873363E+03 -0.20067028923E+03  0.77004334441E+03  0.00000000000E+00 0.  1.
         11    1    5    5    0    0 -0.30043853515E+03 -0.45912906908E+03  0.57055335815E+02  0.55165036646E+03  0.00000000000E+00 0.  1.
        -11    1    5    5    0    0 -0.12662515313E+03 -0.25439288937E+03  0.84812107110E+02  0.29655145436E+03  0.00000000000E+00 0. -1.
          2    1    6    6  503    0  0.14730689539E+03 -0.80345976687E+02  0.58764049545E+02  0.17778641939E+03  0.00000000000E+00 0. -1.
         -2    1    6    6    0  503  0.27247237293E+03 -0.30471610807E+03  0.15439619965E+03  0.43695684797E+03  0.00000000000E+00 0.  1.
<mgrwt>
<rscale>  0 0.26201750E+04</rscale>
<asrwt>0</asrwt>
<pdfrwt beam="1">  1        2 0.20151827E+00 0.26201750E+04</pdfrwt>
<pdfrwt beam="2">  1       -1 0.20158558E+00 0.26201750E+04</pdfrwt>
<totfact> 0.24089822E+00</totfact>
</mgrwt>
</event>
<event>
12    6  0.1395358E-007  0.1786926E+04  0.7818608E-02  0.8713283E-01
          2   -1    0    0  501    0  0.00000000000E+00  0.00000000000E+00  0.18507580983E+04  0.18507580983E+04  0.00000000000E+00 0. -1.
         -1   -1    0    0    0  501 -0.00000000000E+00 -0.00000000000E+00 -0.43132384365E+03  0.43132384365E+03  0.00000000000E+00 0.  1.
         24    2    1    2    0    0  0.38354948723E+03 -0.48266679821E+03  0.82960182208E+03  0.10367914228E+04  0.81362299918E+02 0.  0.
        254    2    1    2    0    0 -0.38354948723E+03  0.48266679821E+03  0.58983243255E+03  0.12452905192E+04  0.90706600167E+03 0.  0.
         23    2    4    4    0    0  0.17612397511E+03 -0.14137127533E+03  0.63151978270E+02  0.25114179784E+03  0.89880688505E+02 0.  0.
         23    2    4    4    0    0 -0.55967346233E+03  0.62403807355E+03  0.52668045428E+03  0.99414872132E+03  0.91002623690E+02 0.  0.
          4    1    3    3  502    0  0.12473980174E+03 -0.10533975586E+03  0.24503103246E+03  0.29444301516E+03  0.00000000000E+00 0. -1.
         -3    1    3    3    0  502  0.25880968548E+03 -0.37732704235E+03  0.58457078962E+03  0.74234840760E+03  0.00000000000E+00 0.  1.
         11    1    5    5    0    0  0.16991306597E+03 -0.10617552314E+03  0.74318781417E+02  0.21369832235E+03  0.00000000000E+00 0. -1.
        -11    1    5    5    0    0  0.62109091352E+01 -0.35195752189E+02 -0.11166803147E+02  0.37443475493E+02  0.00000000000E+00 0.  1.
          4    1    6    6  503    0 -0.48466268519E+03  0.49940458145E+03  0.41038330403E+03  0.80790922177E+03  0.00000000000E+00 0. -1.
         -4    1    6    6    0  503 -0.75010777139E+02  0.12463349210E+03  0.11629715025E+03  0.18623949956E+03  0.00000000000E+00 0.  1.
<mgrwt>
<rscale>  0 0.17869260E+04</rscale>
<asrwt>0</asrwt>
<pdfrwt beam="1">  1        2 0.28473201E+00 0.17869260E+04</pdfrwt>
<pdfrwt beam="2">  1       -1 0.66357515E-01 0.17869260E+04</pdfrwt>
<totfact> 0.20030440E+01</totfact>
</mgrwt>
</event>
<event>
12    6  0.1395358E-007  0.2110571E+04  0.7818608E-02  0.8556601E-01
          2   -1    0    0  501    0  0.00000000000E+00  0.00000000000E+00  0.30254976301E+04  0.30254976301E+04  0.00000000000E+00 0. -1.
         -1   -1    0    0    0  501 -0.00000000000E+00 -0.00000000000E+00 -0.36808076279E+03  0.36808076279E+03  0.00000000000E+00 0.  1.
         24    2    1    2    0    0  0.68130582240E+03  0.44739425712E+03  0.15457542449E+04  0.17484395085E+04  0.57838432590E+02 0.  0.
        254    2    1    2    0    0 -0.68130582240E+03 -0.44739425712E+03  0.11116626224E+04  0.16451388844E+04  0.89796933019E+03 0.  0.
         23    2    4    4    0    0 -0.18573719243E+02 -0.26048965866E+03  0.86444393814E+03  0.90758255429E+03  0.90790557597E+02 0.  0.
         23    2    4    4    0    0 -0.66273210316E+03 -0.18690459846E+03  0.24721868429E+03  0.73755633012E+03  0.93408204984E+02 0.  0.
          4    1    3    3  502    0  0.58232861638E+03  0.38545868453E+03  0.13647346449E+04  0.15330315280E+04  0.00000000000E+00 0. -1.
         -3    1    3    3    0  502  0.98977206026E+02  0.61935572594E+02  0.18101960003E+03  0.21540798049E+03  0.00000000000E+00 0.  1.
         11    1    5    5    0    0  0.19761714416E+02 -0.11258693245E+02  0.48610166528E+02  0.53667791273E+02  0.00000000000E+00 0.  1.
        -11    1    5    5    0    0 -0.38335433658E+02 -0.24923096542E+03  0.81583377161E+03  0.85391476301E+03  0.00000000000E+00 0. -1.
          3    1    6    6  503    0 -0.58302735925E+03 -0.18342260203E+03  0.19243708763E+03  0.64077826529E+03  0.00000000000E+00 0. -1.
         -3    1    6    6    0  503 -0.79704743911E+02 -0.34819964233E+01  0.54781596650E+02  0.96778064832E+02  0.00000000000E+00 0.  1.
<mgrwt>
<rscale>  0 0.21105710E+04</rscale>
<asrwt>0</asrwt>
<pdfrwt beam="1">  1        2 0.46546116E+00 0.21105710E+04</pdfrwt>
<pdfrwt beam="2">  1       -1 0.56627812E-01 0.21105710E+04</pdfrwt>
<totfact> 0.55601659E+00</totfact>
</mgrwt>
</event>
<event>
12    6  0.1395358E-007  0.1424314E+04  0.7818608E-02  0.8936404E-01
         -1   -1    0    0    0  501 -0.00000000000E+00  0.00000000000E+00  0.87335118942E+03  0.87335118942E+03  0.00000000000E+00 0.  1.
          2   -1    0    0  501    0  0.00000000000E+00 -0.00000000000E+00 -0.58071452260E+03  0.58071452260E+03  0.00000000000E+00 0. -1.
         24    2    1    2    0    0 -0.33831880241E+03  0.20291118119E+03 -0.64959417629E+02  0.40757990087E+03  0.79177586055E+02 0.  0.
        254    2    1    2    0    0  0.33831880241E+03 -0.20291118119E+03  0.35759608445E+03  0.10464858112E+04  0.90090234422E+03 0.  0.
         23    2    4    4    0    0  0.11140450362E+03 -0.46055550988E+03 -0.72349843911E+02  0.48793299437E+03  0.91223713853E+02 0.  0.
         23    2    4    4    0    0  0.22691429879E+03  0.25764432869E+03  0.42994592836E+03  0.55855281679E+03  0.96213557904E+02 0.  0.
          2    1    3    3  502    0 -0.21299635009E+03  0.12748467281E+03 -0.79341173929E+02  0.26060469841E+03  0.00000000000E+00 0. -1.
         -1    1    3    3    0  502 -0.12532245233E+03  0.75426508379E+02  0.14381756301E+02  0.14697520246E+03  0.00000000000E+00 0.  1.
         11    1    5    5    0    0  0.23826013731E+02 -0.28534851282E+03 -0.34205526136E+02  0.28837730618E+03  0.00000000000E+00 0.  1.
        -11    1    5    5    0    0  0.87578489893E+02 -0.17520699706E+03 -0.38144317775E+02  0.19955568819E+03  0.00000000000E+00 0. -1.
          3    1    6    6  503    0 -0.60510839655E+01  0.22295474690E+02  0.46367887682E+02  0.51804293422E+02  0.00000000000E+00 0. -1.
         -3    1    6    6    0  503  0.23296538276E+03  0.23534885400E+03  0.38357804068E+03  0.50674852337E+03  0.00000000000E+00 0.  1.
<mgrwt>
<rscale>  0 0.14243142E+04</rscale>
<asrwt>0</asrwt>
<pdfrwt beam="1">  1        2 0.89340696E-01 0.14243142E+04</pdfrwt>
<pdfrwt beam="2">  1       -1 0.13436172E+00 0.14243142E+04</pdfrwt>
<totfact> 0.26717711E+01</totfact>
</mgrwt>
</event>
<event>
12    6  0.1395358E-007  0.1924641E+04  0.7818608E-02  0.8642687E-01
         -1   -1    0    0    0  501 -0.00000000000E+00  0.00000000000E+00  0.53093632841E+03  0.53093632841E+03  0.00000000000E+00 0.  1.
          2   -1    0    0  501    0  0.00000000000E+00 -0.00000000000E+00 -0.17442023322E+04  0.17442023322E+04  0.00000000000E+00 0. -1.
         24    2    1    2    0    0 -0.50092134009E+03  0.23771680109E+03  0.12051323792E+03  0.57352524589E+03  0.83524252009E+02 0.  0.
        254    2    1    2    0    0  0.50092134009E+03 -0.23771680109E+03 -0.13337792417E+04  0.17016134148E+04  0.89949412511E+03 0.  0.
         23    2    4    4    0    0 -0.16650818550E+03  0.14677436899E+03 -0.13921295241E+03  0.27727247439E+03  0.90730853100E+02 0.  0.
         23    2    4    4    0    0  0.66742952559E+03 -0.38449117008E+03 -0.11945662893E+04  0.14243409404E+04  0.91993822106E+02 0.  0.
          4    1    3    3  502    0 -0.16066144365E+03  0.48514982809E+02  0.69299750820E+01  0.16796972223E+03  0.00000000000E+00 0. -1.
         -3    1    3    3    0  502 -0.34025989645E+03  0.18920181828E+03  0.11358326284E+03  0.40555552366E+03  0.00000000000E+00 0.  1.
         11    1    5    5    0    0 -0.12748196835E+03  0.87563020803E+02 -0.13654097964E+03  0.20630650496E+03  0.00000000000E+00 0. -1.
        -11    1    5    5    0    0 -0.39026217150E+02  0.59211348185E+02 -0.26719727716E+01  0.70965969432E+02  0.00000000000E+00 0.  1.
          3    1    6    6  503    0  0.58825999329E+03 -0.30154561484E+03 -0.10140813874E+04  0.12105125517E+04  0.00000000000E+00 0. -1.
         -3    1    6    6    0  503  0.79169532302E+02 -0.82945555240E+02 -0.18048490196E+03  0.21382838870E+03  0.00000000000E+00 0.  1.
<mgrwt>
<rscale>  0 0.19246406E+04</rscale>
<asrwt>0</asrwt>
<pdfrwt beam="1">  1        2 0.26833882E+00 0.19246406E+04</pdfrwt>
<pdfrwt beam="2">  1       -1 0.81682512E-01 0.19246406E+04</pdfrwt>
<totfact> 0.14718483E+01</totfact>
</mgrwt>
</event>
<event>
12    6  0.1395358E-007  0.1654158E+04  0.7818608E-02  0.8787950E-01
         -1   -1    0    0    0  501 -0.00000000000E+00  0.00000000000E+00  0.49146120914E+03  0.49146120914E+03  0.00000000000E+00 0.  1.
          2   -1    0    0  501    0  0.00000000000E+00 -0.00000000000E+00 -0.13918902037E+04  0.13918902037E+04  0.00000000000E+00 0. -1.
         24    2    1    2    0    0  0.32242424218E+03  0.43089230986E+03 -0.54931727225E+03  0.77321991957E+03  0.80585381931E+02 0.  0.
        254    2    1    2    0    0 -0.32242424218E+03 -0.43089230986E+03 -0.35111172233E+03  0.11101314933E+04  0.90525516634E+03 0.  0.
         23    2    4    4    0    0 -0.39834445487E+03  0.74839630839E+02  0.93298722033E+02  0.42633607587E+03  0.93693772391E+02 0.  0.
         23    2    4    4    0    0  0.75920212692E+02 -0.50573194070E+03 -0.44441044437E+03  0.68379541742E+03  0.92449203787E+02 0.  0.
          2    1    3    3  502    0  0.26295606669E+03  0.30784979164E+03 -0.37626810036E+03  0.55271608496E+03  0.00000000000E+00 0. -1.
         -1    1    3    3    0  502  0.59468175491E+02  0.12304251822E+03 -0.17304917189E+03  0.22050383461E+03  0.00000000000E+00 0.  1.
         11    1    5    5    0    0 -0.39809778601E+02  0.13646744004E+02 -0.18286408625E+02  0.45885126507E+02  0.00000000000E+00 0.  1.
        -11    1    5    5    0    0 -0.35853467627E+03  0.61192886836E+02  0.11158513066E+03  0.38045094936E+03  0.00000000000E+00 0. -1.
          1    1    6    6  503    0  0.35922721520E+02 -0.46707348479E+02 -0.50210093398E+02  0.77414932683E+02  0.00000000000E+00 0. -1.
         -1    1    6    6    0  503  0.39997491172E+02 -0.45902459223E+03 -0.39420035097E+03  0.60638048474E+03  0.00000000000E+00 0.  1.
<mgrwt>
<rscale>  0 0.16541584E+04</rscale>
<asrwt>0</asrwt>
<pdfrwt beam="1">  1        2 0.21413695E+00 0.16541584E+04</pdfrwt>
<pdfrwt beam="2">  1       -1 0.75609418E-01 0.16541584E+04</pdfrwt>
<totfact> 0.27984104E+01</totfact>
</mgrwt>
</event>
<event>
12    6  0.1395358E-007  0.2430305E+04  0.7818608E-02  0.8428244E-01
         -1   -1    0    0    0  501 -0.00000000000E+00  0.00000000000E+00  0.98636494249E+03  0.98636494249E+03  0.00000000000E+00 0.  1.
          2   -1    0    0  501    0  0.00000000000E+00 -0.00000000000E+00 -0.14970071231E+04  0.14970071231E+04  0.00000000000E+00 0. -1.
         24    2    1    2    0    0  0.83583479866E+02  0.97584033488E+03 -0.59539139108E+03  0.11501703929E+04  0.95658073064E+02 0.  0.
        254    2    1    2    0    0 -0.83583479866E+02 -0.97584033488E+03  0.84749210420E+02  0.13332016727E+04  0.90055189419E+03 0.  0.
         23    2    4    4    0    0  0.17340495905E+03 -0.51984719869E+03 -0.34187362190E+03  0.65188315754E+03  0.88111792182E+02 0.  0.
         23    2    4    4    0    0 -0.25698843892E+03 -0.45599313619E+03  0.42662283233E+03  0.68131851516E+03  0.90637078744E+02 0.  0.
          4    1    3    3  502    0  0.56483071168E+02  0.87154545787E+03 -0.55652729919E+03  0.10356179108E+04  0.00000000000E+00 0. -1.
         -3    1    3    3    0  502  0.27100408697E+02  0.10429487702E+03 -0.38864091886E+02  0.11455248213E+03  0.00000000000E+00 0.  1.
         11    1    5    5    0    0  0.16218445549E+03 -0.51881045173E+03 -0.33732532310E+03  0.63973154998E+03  0.00000000000E+00 0.  1.
        -11    1    5    5    0    0  0.11220503559E+02 -0.10367469555E+01 -0.45482988087E+01  0.12151607565E+02  0.00000000000E+00 0. -1.
          4    1    6    6  503    0 -0.13327185906E+03 -0.19614972415E+03  0.14122483915E+03  0.27600825693E+03  0.00000000000E+00 0. -1.
         -4    1    6    6    0  503 -0.12371657986E+03 -0.25984341204E+03  0.28539799318E+03  0.40531025822E+03  0.00000000000E+00 0.  1.
<mgrwt>
<rscale>  0 0.24303048E+04</rscale>
<asrwt>0</asrwt>
<pdfrwt beam="1">  1        2 0.23030879E+00 0.24303048E+04</pdfrwt>
<pdfrwt beam="2">  1       -1 0.15174845E+00 0.24303048E+04</pdfrwt>
<totfact> 0.44026862E+00</totfact>
</mgrwt>
</event>
<event>
12    6  0.1395358E-007  0.2808066E+04  0.7818608E-02  0.8300769E-01
          2   -1    0    0  501    0  0.00000000000E+00  0.00000000000E+00  0.26909572619E+04  0.26909572619E+04  0.00000000000E+00 0. -1.
         -1   -1    0    0    0  501 -0.00000000000E+00 -0.00000000000E+00 -0.73256781735E+03  0.73256781735E+03  0.00000000000E+00 0.  1.
         24    2    1    2    0    0 -0.40071899813E+03  0.68602237950E+03 -0.30996820140E+03  0.85632157570E+03  0.77485059803E+02 0.  0.
        254    2    1    2    0    0  0.40071899813E+03 -0.68602237950E+03  0.22683576459E+04  0.25672035035E+04  0.90215575042E+03 0.  0.
         23    2    4    4    0    0  0.17955729142E+03  0.19662929179E+03  0.63897196510E+03  0.69873848534E+03  0.95112561797E+02 0.  0.
         23    2    4    4    0    0  0.22116170671E+03 -0.88265167129E+03  0.16293856808E+04  0.18684650182E+04  0.90979964607E+02 0.  0.
          2    1    3    3  502    0 -0.25001658470E+03  0.49629554058E+03 -0.22551687235E+03  0.59972945228E+03  0.00000000000E+00 0. -1.
         -1    1    3    3    0  502 -0.15070241343E+03  0.18972683892E+03 -0.84451329056E+02  0.25659212341E+03  0.00000000000E+00 0.  1.
         11    1    5    5    0    0  0.90271030544E+02  0.57908954200E+02  0.34918459892E+03  0.36528371173E+03  0.00000000000E+00 0. -1.
        -11    1    5    5    0    0  0.89286260876E+02  0.13872033759E+03  0.28978736618E+03  0.33345477361E+03  0.00000000000E+00 0.  1.
          4    1    6    6  503    0  0.16757703377E+03 -0.78875449843E+03  0.14385418218E+04  0.16491265246E+04  0.00000000000E+00 0. -1.
         -4    1    6    6    0  503  0.53584672936E+02 -0.93897172858E+02  0.19084385902E+03  0.21933849359E+03  0.00000000000E+00 0.  1.
<mgrwt>
<rscale>  0 0.28080660E+04</rscale>
<asrwt>0</asrwt>
<pdfrwt beam="1">  1        2 0.41399342E+00 0.28080660E+04</pdfrwt>
<pdfrwt beam="2">  1       -1 0.11270274E+00 0.28080660E+04</pdfrwt>
<totfact> 0.19138338E+00</totfact>
</mgrwt>
</event>
<event>
12    6  0.1395358E-007  0.1474175E+04  0.7818608E-02  0.8901810E-01
         -1   -1    0    0    0  501 -0.00000000000E+00  0.00000000000E+00  0.66341600206E+03  0.66341600206E+03  0.00000000000E+00 0.  1.
          2   -1    0    0  501    0  0.00000000000E+00 -0.00000000000E+00 -0.81894000537E+03  0.81894000537E+03  0.00000000000E+00 0. -1.
         24    2    1    2    0    0 -0.20519779948E+03 -0.35631394432E+03  0.15139755792E+03  0.44544328449E+03  0.80204334824E+02 0.  0.
        254    2    1    2    0    0  0.20519779948E+03  0.35631394432E+03 -0.30692156123E+03  0.10369127229E+04  0.90106680464E+03 0.  0.
         23    2    4    4    0    0 -0.79616105165E+01  0.41672108476E+02  0.29958321317E+03  0.31595593033E+03  0.90984044916E+02 0.  0.
         23    2    4    4    0    0  0.21315941000E+03  0.31464183584E+03 -0.60650477440E+03  0.72095679262E+03  0.86569258493E+02 0.  0.
          2    1    3    3  502    0 -0.63536274313E+02 -0.13367610713E+03  0.16058715239E+02  0.14887592857E+03  0.00000000000E+00 0. -1.
         -1    1    3    3    0  502 -0.14166152517E+03 -0.22263783718E+03  0.13533884268E+03  0.29656735592E+03  0.00000000000E+00 0.  1.
         11    1    5    5    0    0  0.11000999340E+02 -0.14083855207E+02  0.19590826341E+03  0.19672169336E+03  0.00000000000E+00 0.  1.
        -11    1    5    5    0    0 -0.18962609856E+02  0.55755963682E+02  0.10367494975E+03  0.11923423697E+03  0.00000000000E+00 0. -1.
          1    1    6    6  503    0  0.85687258077E+02  0.63816095952E+02 -0.19705832482E+03  0.22415794361E+03  0.00000000000E+00 0. -1.
         -1    1    6    6    0  503  0.12747215192E+03  0.25082573989E+03 -0.40944644958E+03  0.49679884901E+03  0.00000000000E+00 0.  1.
<mgrwt>
<rscale>  0 0.14741749E+04</rscale>
<asrwt>0</asrwt>
<pdfrwt beam="1">  1        2 0.12599077E+00 0.14741749E+04</pdfrwt>
<pdfrwt beam="2">  1       -1 0.10206400E+00 0.14741749E+04</pdfrwt>
<totfact> 0.33560120E+01</totfact>
</mgrwt>
</event>
<event>
12    6  0.1395358E-007  0.1851063E+04  0.7818608E-02  0.8679607E-01
         -1   -1    0    0    0  501 -0.00000000000E+00  0.00000000000E+00  0.37132596674E+03  0.37132596674E+03  0.00000000000E+00 0.  1.
          2   -1    0    0  501    0  0.00000000000E+00 -0.00000000000E+00 -0.23068899213E+04  0.23068899213E+04  0.00000000000E+00 0. -1.
         24    2    1    2    0    0 -0.59141409951E+03  0.12301486194E+03 -0.12722377612E+04  0.14108334955E+04  0.83420246162E+02 0.  0.
        254    2    1    2    0    0  0.59141409951E+03 -0.12301486194E+03 -0.66332619332E+03  0.12673823926E+04  0.89518333143E+03 0.  0.
         23    2    4    4    0    0  0.44539259313E+03 -0.20157344559E+03  0.75243048184E+02  0.50390967989E+03  0.96213477209E+02 0.  0.
         23    2    4    4    0    0  0.14602150637E+03  0.78558583645E+02 -0.73856924150E+03  0.76347271267E+03  0.99560670504E+02 0.  0.
          4    1    3    3  502    0 -0.44997918518E+03  0.67757591576E+02 -0.10105914826E+04  0.11083174198E+04  0.00000000000E+00 0. -1.
         -3    1    3    3    0  502 -0.14143491433E+03  0.55257270368E+02 -0.26164627864E+03  0.30251607568E+03  0.00000000000E+00 0.  1.
         11    1    5    5    0    0  0.39355669293E+03 -0.20224544775E+03  0.86509784900E+02  0.45085921812E+03  0.00000000000E+00 0. -1.
        -11    1    5    5    0    0  0.51835900206E+02  0.67200215676E+00 -0.11266736715E+02  0.53050461763E+02  0.00000000000E+00 0.  1.
          1    1    6    6  503    0  0.13724102152E+03  0.65649737973E+02 -0.72995831400E+03  0.74564343104E+03  0.00000000000E+00 0. -1.
         -1    1    6    6    0  503  0.87804848536E+01  0.12908845672E+02 -0.86109275050E+01  0.17829281628E+02  0.00000000000E+00 0.  1.
<mgrwt>
<rscale>  0 0.18510625E+04</rscale>
<asrwt>0</asrwt>
<pdfrwt beam="1">  1        2 0.35490614E+00 0.18510625E+04</pdfrwt>
<pdfrwt beam="2">  1       -1 0.57127072E-01 0.18510625E+04</pdfrwt>
<totfact> 0.14929656E+01</totfact>
</mgrwt>
</event>
<event>
12    6  0.1395358E-007  0.1899474E+04  0.7818608E-02  0.8655118E-01
          2   -1    0    0  501    0  0.00000000000E+00  0.00000000000E+00  0.16680836109E+04  0.16680836109E+04  0.00000000000E+00 0. -1.
         -1   -1    0    0    0  501 -0.00000000000E+00 -0.00000000000E+00 -0.54074059112E+03  0.54074059112E+03  0.00000000000E+00 0.  1.
         24    2    1    2    0    0  0.53020430929E+03  0.23197167632E+03  0.95820397152E+03  0.11223612864E+04  0.81317513740E+02 0.  0.
        254    2    1    2    0    0 -0.53020430929E+03 -0.23197167632E+03  0.16913904823E+03  0.10864629156E+04  0.90380649535E+03 0.  0.
         23    2    4    4    0    0 -0.22588525449E+03 -0.56302529436E+03  0.11944693226E+03  0.62483627694E+03  0.90173017361E+02 0.  0.
         23    2    4    4    0    0 -0.30431905480E+03  0.33105361804E+03  0.49692115965E+02  0.46162663862E+03  0.91778330525E+02 0.  0.
          4    1    3    3  502    0  0.20099152914E+03  0.46590287828E+02  0.35500991672E+03  0.41060965731E+03  0.00000000000E+00 0. -1.
         -3    1    3    3    0  502  0.32921278015E+03  0.18538138849E+03  0.60319405480E+03  0.71175162913E+03  0.00000000000E+00 0.  1.
         11    1    5    5    0    0 -0.14286113844E+03 -0.23575516316E+03  0.51626573016E+02  0.28045517444E+03  0.00000000000E+00 0.  1.
        -11    1    5    5    0    0 -0.83024116054E+02 -0.32727013121E+03  0.67820359249E+02  0.34438110249E+03  0.00000000000E+00 0. -1.
          3    1    6    6  503    0 -0.21050688608E+03  0.26259158340E+03  0.33052292960E+01  0.33656858632E+03  0.00000000000E+00 0. -1.
         -3    1    6    6    0  503 -0.93812168726E+02  0.68462034647E+02  0.46386886669E+02  0.12505805230E+03  0.00000000000E+00 0.  1.
<mgrwt>
<rscale>  0 0.18994742E+04</rscale>
<asrwt>0</asrwt>
<pdfrwt beam="1">  1        2 0.25662825E+00 0.18994742E+04</pdfrwt>
<pdfrwt beam="2">  1       -1 0.83190861E-01 0.18994742E+04</pdfrwt>
<totfact> 0.15633918E+01</totfact>
</mgrwt>
</event>
<event>
12    6  0.1395358E-007  0.1964511E+04  0.7818608E-02  0.8623395E-01
          2   -1    0    0  501    0  0.00000000000E+00  0.00000000000E+00  0.55662979398E+03  0.55662979398E+03  0.00000000000E+00 0. -1.
         -1   -1    0    0    0  501 -0.00000000000E+00 -0.00000000000E+00 -0.17333345218E+04  0.17333345218E+04  0.00000000000E+00 0.  1.
         24    2    1    2    0    0  0.35150215249E+03 -0.15264380963E+03 -0.12509795240E+04  0.13107856221E+04  0.79720021568E+02 0.  0.
        254    2    1    2    0    0 -0.35150215249E+03  0.15264380963E+03  0.74274796144E+02  0.97917869370E+03  0.89800906066E+03 0.  0.
         23    2    4    4    0    0  0.12881962382E+02 -0.15233107297E+03  0.37121165593E+03  0.41166754351E+03  0.91111866054E+02 0.  0.
         23    2    4    4    0    0 -0.36438411487E+03  0.30497488260E+03 -0.29693685979E+03  0.56751115018E+03  0.90066334945E+02 0.  0.
          2    1    3    3  502    0  0.22679702908E+03 -0.72066888120E+02 -0.66528508590E+03  0.70656547771E+03  0.00000000000E+00 0. -1.
         -1    1    3    3    0  502  0.12470512341E+03 -0.80576921514E+02 -0.58569443806E+03  0.60422014437E+03  0.00000000000E+00 0.  1.
         11    1    5    5    0    0 -0.16992463915E+02 -0.53576317072E+02  0.53403298100E+02  0.77531141027E+02  0.00000000000E+00 0.  1.
        -11    1    5    5    0    0  0.29874426296E+02 -0.98754755893E+02  0.31780835783E+03  0.33413640249E+03  0.00000000000E+00 0. -1.
          2    1    6    6  503    0 -0.32118885277E+02  0.30211036750E+02 -0.63235550917E+02  0.77091273388E+02  0.00000000000E+00 0.  1.
         -2    1    6    6    0  503 -0.33226522960E+03  0.27476384585E+03 -0.23370130887E+03  0.49041987679E+03  0.00000000000E+00 0. -1.
<mgrwt>
<rscale>  0 0.19645108E+04</rscale>
<asrwt>0</asrwt>
<pdfrwt beam="1">  1        2 0.85635353E-01 0.19645108E+04</pdfrwt>
<pdfrwt beam="2">  1       -1 0.26666685E+00 0.19645108E+04</pdfrwt>
<totfact> 0.31373416E+00</totfact>
</mgrwt>
</event>
<event>
12    6  0.1395358E-007  0.2640145E+04  0.7818608E-02  0.8354691E-01
          2   -1    0    0  501    0  0.00000000000E+00  0.00000000000E+00  0.17261662930E+04  0.17261662930E+04  0.00000000000E+00 0. -1.
         -1   -1    0    0    0  501 -0.00000000000E+00 -0.00000000000E+00 -0.10095152241E+04  0.10095152241E+04  0.00000000000E+00 0.  1.
         24    2    1    2    0    0  0.68386478743E+03 -0.94191033739E+03  0.24702007706E+03  0.11926122646E+04  0.80243156067E+02 0.  0.
        254    2    1    2    0    0 -0.68386478743E+03  0.94191033739E+03  0.46963099188E+03  0.15430692525E+04  0.89757635787E+03 0.  0.
         23    2    4    4    0    0 -0.51104134429E+02  0.42828098879E+03  0.56595018167E+03  0.71748615514E+03  0.91926801167E+02 0.  0.
         23    2    4    4    0    0 -0.63276065300E+03  0.51362934859E+03 -0.96319189792E+02  0.82558309732E+03  0.90049500515E+02 0.  0.
          4    1    3    3  502    0  0.26645011495E+03 -0.41602637464E+03  0.76902645688E+02  0.49998762491E+03  0.00000000000E+00 0. -1.
         -3    1    3    3    0  502  0.41741467248E+03 -0.52588396275E+03  0.17011743137E+03  0.69262463971E+03  0.00000000000E+00 0.  1.
         11    1    5    5    0    0 -0.75026362512E+02  0.37706275001E+03  0.49580631178E+03  0.62739873392E+03  0.00000000000E+00 0. -1.
        -11    1    5    5    0    0  0.23922228082E+02  0.51218238779E+02  0.70143869886E+02  0.90087421224E+02  0.00000000000E+00 0.  1.
          4    1    6    6  503    0 -0.60727446512E+03  0.50782341726E+03 -0.82212949141E+02  0.79588056147E+03  0.00000000000E+00 0. -1.
         -4    1    6    6    0  503 -0.25486187878E+02  0.58059313293E+01 -0.14106240651E+02  0.29702535859E+02  0.00000000000E+00 0.  1.
<mgrwt>
<rscale>  0 0.26401448E+04</rscale>
<asrwt>0</asrwt>
<pdfrwt beam="1">  1        2 0.26556404E+00 0.26401448E+04</pdfrwt>
<pdfrwt beam="2">  1       -1 0.15531003E+00 0.26401448E+04</pdfrwt>
<totfact> 0.30208305E+00</totfact>
</mgrwt>
</event>
<event>
12    6  0.1395358E-007  0.3207381E+04  0.7818608E-02  0.8186871E-01
         -1   -1    0    0    0  501 -0.00000000000E+00  0.00000000000E+00  0.89625889558E+03  0.89625889558E+03  0.00000000000E+00 0.  1.
          2   -1    0    0  501    0  0.00000000000E+00 -0.00000000000E+00 -0.28695091600E+04  0.28695091600E+04  0.00000000000E+00 0. -1.
         24    2    1    2    0    0  0.12582570655E+04 -0.76517967361E+03 -0.79172307600E+03  0.16738578189E+04  0.79144128017E+02 0.  0.
        254    2    1    2    0    0 -0.12582570655E+04  0.76517967361E+03 -0.11815271884E+04  0.20919102366E+04  0.90076143647E+03 0.  0.
         23    2    4    4    0    0 -0.63701274310E+03  0.59450043003E+03 -0.11429802800E+04  0.14400757396E+04  0.90544017526E+02 0.  0.
         23    2    4    4    0    0 -0.62124432242E+03  0.17067924358E+03 -0.38546908420E+02  0.65183449708E+03  0.91249301943E+02 0.  0.
          2    1    3    3  502    0  0.78776275374E+03 -0.50337465518E+03 -0.46589480873E+03  0.10445162385E+04  0.00000000000E+00 0. -1.
         -1    1    3    3    0  502  0.47049431178E+03 -0.26180501843E+03 -0.32582826727E+03  0.62934158042E+03  0.00000000000E+00 0.  1.
         11    1    5    5    0    0 -0.28057124529E+03  0.31219930224E+03 -0.50551772301E+03  0.65706681265E+03  0.00000000000E+00 0. -1.
        -11    1    5    5    0    0 -0.35644149781E+03  0.28230112779E+03 -0.63746255694E+03  0.78300892691E+03  0.00000000000E+00 0.  1.
          1    1    6    6  503    0 -0.35579143210E+03  0.14384546616E+03 -0.28855416848E+02  0.38485282430E+03  0.00000000000E+00 0.  1.
         -1    1    6    6    0  503 -0.26545289032E+03  0.26833777415E+02 -0.96914915719E+01  0.26698167278E+03  0.00000000000E+00 0. -1.
<mgrwt>
<rscale>  0 0.32073809E+04</rscale>
<asrwt>0</asrwt>
<pdfrwt beam="1">  1        2 0.44146294E+00 0.32073809E+04</pdfrwt>
<pdfrwt beam="2">  1       -1 0.13788599E+00 0.32073809E+04</pdfrwt>
<totfact> 0.87410947E-01</totfact>
</mgrwt>
</event>
<event>
12    6  0.1395358E-007  0.2058604E+04  0.7818608E-02  0.8579701E-01
         -1   -1    0    0    0  501 -0.00000000000E+00  0.00000000000E+00  0.50824684225E+03  0.50824684225E+03  0.00000000000E+00 0.  1.
          2   -1    0    0  501    0  0.00000000000E+00 -0.00000000000E+00 -0.20845430321E+04  0.20845430321E+04  0.00000000000E+00 0. -1.
         24    2    1    2    0    0  0.53051708209E+03 -0.34691176070E+03 -0.13119866673E+04  0.14592717890E+04  0.79805983950E+02 0.  0.
        254    2    1    2    0    0 -0.53051708209E+03  0.34691176070E+03 -0.26430952261E+03  0.11335180853E+04  0.90178022929E+03 0.  0.
         23    2    4    4    0    0 -0.10644714399E+03  0.50049761646E+03  0.12050207812E+03  0.53351853503E+03  0.91062713815E+02 0.  0.
         23    2    4    4    0    0 -0.42406993810E+03 -0.15358585576E+03 -0.38481160073E+03  0.59999955031E+03  0.92171388282E+02 0.  0.
          4    1    3    3  502    0  0.42984759013E+03 -0.24217404292E+03 -0.10297550925E+04  0.11418462105E+04  0.00000000000E+00 0. -1.
         -3    1    3    3    0  502  0.10066949196E+03 -0.10473771779E+03 -0.28223157474E+03  0.31742557855E+03  0.00000000000E+00 0.  1.
         11    1    5    5    0    0  0.10926786685E+02  0.24750475978E+02 -0.54035638400E+01  0.27589476808E+02  0.00000000000E+00 0. -1.
        -11    1    5    5    0    0 -0.11737393067E+03  0.47574714048E+03  0.12590564196E+03  0.50592905822E+03  0.00000000000E+00 0.  1.
          2    1    6    6  503    0 -0.15760940695E+03 -0.11755342795E+02 -0.14486913734E+03  0.21439678215E+03  0.00000000000E+00 0. -1.
         -2    1    6    6    0  503 -0.26646053115E+03 -0.14183051296E+03 -0.23994246340E+03  0.38560276815E+03  0.00000000000E+00 0.  1.
<mgrwt>
<rscale>  0 0.20586038E+04</rscale>
<asrwt>0</asrwt>
<pdfrwt beam="1">  1        2 0.32069893E+00 0.20586038E+04</pdfrwt>
<pdfrwt beam="2">  1       -1 0.78191821E-01 0.20586038E+04</pdfrwt>
<totfact> 0.10331776E+01</totfact>
</mgrwt>
</event>
<event>
12    6  0.1395358E-007  0.2525572E+04  0.7818608E-02  0.8393932E-01
          2   -1    0    0  501    0  0.00000000000E+00  0.00000000000E+00  0.92428927150E+03  0.92428927150E+03  0.00000000000E+00 0. -1.
         -1   -1    0    0    0  501 -0.00000000000E+00 -0.00000000000E+00 -0.17252481118E+04  0.17252481118E+04  0.00000000000E+00 0.  1.
         24    2    1    2    0    0 -0.60987778206E+03  0.68655486424E+03 -0.98547902284E+03  0.13493733957E+04  0.79568623526E+02 0.  0.
        254    2    1    2    0    0  0.60987778206E+03 -0.68655486424E+03  0.18452018253E+03  0.13001639876E+04  0.90170405694E+03 0.  0.
         23    2    4    4    0    0 -0.22311089128E+03 -0.14170557378E+03  0.90973875099E+02  0.29622157711E+03  0.98040998292E+02 0.  0.
         23    2    4    4    0    0  0.83298867334E+03 -0.54484929046E+03  0.93546307432E+02  0.10039424105E+04  0.91752780774E+02 0.  0.
          4    1    3    3  502    0 -0.23687608569E+03  0.24895383614E+03 -0.31579791066E+03  0.46670827384E+03  0.00000000000E+00 0. -1.
         -3    1    3    3    0  502 -0.37300169637E+03  0.43760102811E+03 -0.66968111218E+03  0.88266512183E+03  0.00000000000E+00 0.  1.
         11    1    5    5    0    0 -0.10887761092E+03 -0.10539551336E+03  0.90211827832E+02  0.17635396870E+03  0.00000000000E+00 0.  1.
        -11    1    5    5    0    0 -0.11423328036E+03 -0.36310060424E+02  0.76204726674E+00  0.11986760841E+03  0.00000000000E+00 0. -1.
          3    1    6    6  503    0  0.74509995667E+03 -0.51324899820E+03  0.10027068190E+03  0.91030362475E+03  0.00000000000E+00 0. -1.
         -3    1    6    6    0  503  0.87888716666E+02 -0.31600292264E+02 -0.67243744721E+01  0.93638785770E+02  0.00000000000E+00 0.  1.
<mgrwt>
<rscale>  0 0.25255719E+04</rscale>
<asrwt>0</asrwt>
<pdfrwt beam="1">  1        2 0.14219835E+00 0.25255719E+04</pdfrwt>
<pdfrwt beam="2">  1       -1 0.26542279E+00 0.25255719E+04</pdfrwt>
<totfact> 0.15854702E+00</totfact>
</mgrwt>
</event>
<event>
12    6  0.1395358E-007  0.2355427E+04  0.7818608E-02  0.8456382E-01
         -1   -1    0    0    0  501 -0.00000000000E+00  0.00000000000E+00  0.65458909130E+03  0.65458909130E+03  0.00000000000E+00 0.  1.
          2   -1    0    0  501    0  0.00000000000E+00 -0.00000000000E+00 -0.21189002122E+04  0.21189002122E+04  0.00000000000E+00 0. -1.
         24    2    1    2    0    0 -0.43196365447E+03  0.88363852915E+03 -0.86765901717E+03  0.13139862410E+04  0.79485988685E+02 0.  0.
        254    2    1    2    0    0  0.43196365447E+03 -0.88363852915E+03 -0.59665210370E+03  0.14595030625E+04  0.89819029589E+03 0.  0.
         23    2    4    4    0    0  0.50609765138E+03 -0.93946196704E+03 -0.71155035122E+03  0.12858976726E+04  0.92224193457E+02 0.  0.
         23    2    4    4    0    0 -0.74133996915E+02  0.55823437884E+02  0.11489824751E+03  0.17360538990E+03  0.91242086806E+02 0.  0.
          2    1    3    3  502    0 -0.29275244624E+03  0.67675858071E+03 -0.65438128420E+03  0.98586055630E+03  0.00000000000E+00 0. -1.
         -1    1    3    3    0  502 -0.13921120822E+03  0.20687994844E+03 -0.21327773297E+03  0.32812568467E+03  0.00000000000E+00 0.  1.
         11    1    5    5    0    0  0.49611209023E+03 -0.88308919897E+03 -0.68505189018E+03  0.12228122635E+04  0.00000000000E+00 0.  1.
        -11    1    5    5    0    0  0.99855611493E+01 -0.56372768065E+02 -0.26498461039E+02  0.63085409154E+02  0.00000000000E+00 0. -1.
          4    1    6    6  503    0 -0.59738010581E+02  0.57837626544E+02  0.31446590390E+02  0.88897182180E+02  0.00000000000E+00 0. -1.
         -4    1    6    6    0  503 -0.14395986334E+02 -0.20141886591E+01  0.83451657122E+02  0.84708207719E+02  0.00000000000E+00 0.  1.
<mgrwt>
<rscale>  0 0.23554269E+04</rscale>
<asrwt>0</asrwt>
<pdfrwt beam="1">  1        2 0.32598465E+00 0.23554269E+04</pdfrwt>
<pdfrwt beam="2">  1       -1 0.10070601E+00 0.23554269E+04</pdfrwt>
<totfact> 0.55225631E+00</totfact>
</mgrwt>
</event>
<event>
12    6  0.1395358E-007  0.1543898E+04  0.7818608E-02  0.8855775E-01
          2   -1    0    0  501    0  0.00000000000E+00  0.00000000000E+00  0.22944083414E+04  0.22944083414E+04  0.00000000000E+00 0. -1.
         -1   -1    0    0    0  501 -0.00000000000E+00 -0.00000000000E+00 -0.25972055797E+03  0.25972055797E+03  0.00000000000E+00 0.  1.
         24    2    1    2    0    0 -0.19491098408E+03 -0.46456769944E+03  0.60740789178E+03  0.79320925953E+03  0.80144515356E+02 0.  0.
        254    2    1    2    0    0  0.19491098408E+03  0.46456769944E+03  0.14272798917E+04  0.17609196399E+04  0.89994258139E+03 0.  0.
         23    2    4    4    0    0  0.21076828470E+03 -0.59253362375E+02 -0.19987312270E+01  0.23574495106E+03  0.87392541087E+02 0.  0.
         23    2    4    4    0    0 -0.15857300622E+02  0.52382106181E+03  0.14292786229E+04  0.15251746888E+04  0.93169150940E+02 0.  0.
          4    1    3    3  502    0 -0.97262151551E+02 -0.21839125992E+03  0.35025400063E+03  0.42406666161E+03  0.00000000000E+00 0. -1.
         -3    1    3    3    0  502 -0.97648832525E+02 -0.24617643952E+03  0.25715389114E+03  0.36914259792E+03  0.00000000000E+00 0.  1.
         11    1    5    5    0    0  0.18134947159E+03 -0.81158027409E+02 -0.65265605330E+01  0.19878846106E+03  0.00000000000E+00 0. -1.
        -11    1    5    5    0    0  0.29418813107E+02  0.21904665034E+02  0.45278293060E+01  0.36956490000E+02  0.00000000000E+00 0.  1.
          3    1    6    6  503    0 -0.51478955187E+02  0.39391561563E+03  0.10442240325E+04  0.11172391978E+04  0.00000000000E+00 0. -1.
         -3    1    6    6    0  503  0.35621654565E+02  0.12990544618E+03  0.38505459039E+03  0.40793549098E+03  0.00000000000E+00 0.  1.
<mgrwt>
<rscale>  0 0.15438977E+04</rscale>
<asrwt>0</asrwt>
<pdfrwt beam="1">  1        2 0.35298589E+00 0.15438977E+04</pdfrwt>
<pdfrwt beam="2">  1       -1 0.39957010E-01 0.15438977E+04</pdfrwt>
<totfact> 0.30609768E+01</totfact>
</mgrwt>
</event>
<event>
12    6  0.1395358E-007  0.3096687E+04  0.7818608E-02  0.8216648E-01
         -1   -1    0    0    0  501 -0.00000000000E+00  0.00000000000E+00  0.80756163186E+03  0.80756163186E+03  0.00000000000E+00 0.  1.
          2   -1    0    0  501    0  0.00000000000E+00 -0.00000000000E+00 -0.29686490452E+04  0.29686490452E+04  0.00000000000E+00 0. -1.
         24    2    1    2    0    0 -0.10365239013E+04  0.38989751569E+03  0.86638357126E+02  0.11137344074E+04  0.80599345606E+02 0.  0.
        254    2    1    2    0    0  0.10365239013E+04 -0.38989751569E+03 -0.22477257705E+04  0.26624762697E+04  0.90005937399E+03 0.  0.
         23    2    4    4    0    0  0.80006630784E+03 -0.16680607662E+03 -0.21643821601E+04  0.23154467839E+04  0.93879230137E+02 0.  0.
         23    2    4    4    0    0  0.23645759347E+03 -0.22309143907E+03 -0.83343610406E+02  0.34702948585E+03  0.88325098122E+02 0.  0.
          4    1    3    3  502    0 -0.50134264043E+03  0.14704712054E+03  0.30401251566E+02  0.52334647689E+03  0.00000000000E+00 0. -1.
         -3    1    3    3    0  502 -0.53518126088E+03  0.24285039516E+03  0.56237105560E+02  0.59038793049E+03  0.00000000000E+00 0.  1.
         11    1    5    5    0    0  0.27185709173E+03 -0.13473893383E+02 -0.75251298338E+03  0.80022722666E+03  0.00000000000E+00 0. -1.
        -11    1    5    5    0    0  0.52820921611E+03 -0.15333218324E+03 -0.14118691767E+04  0.15152195572E+04  0.00000000000E+00 0.  1.
          2    1    6    6  503    0  0.22668671834E+02  0.72751086190E+00  0.84256403268E+01  0.24194821133E+02  0.00000000000E+00 0.  1.
         -2    1    6    6    0  503  0.21378892164E+03 -0.22381894993E+03 -0.91769250733E+02  0.32283466472E+03  0.00000000000E+00 0. -1.
<mgrwt>
<rscale>  0 0.30966867E+04</rscale>
<asrwt>0</asrwt>
<pdfrwt beam="1">  1        2 0.45671525E+00 0.30966867E+04</pdfrwt>
<pdfrwt beam="2">  1       -1 0.12424025E+00 0.30966867E+04</pdfrwt>
<totfact> 0.99791088E-01</totfact>
</mgrwt>
</event>
<event>
12    6  0.1395358E-007  0.2219894E+04  0.7818608E-02  0.8510193E-01
          2   -1    0    0  501    0  0.00000000000E+00  0.00000000000E+00  0.16727446078E+04  0.16727446078E+04  0.00000000000E+00 0. -1.
         -1   -1    0    0    0  501 -0.00000000000E+00 -0.00000000000E+00 -0.73650374856E+03  0.73650374856E+03  0.00000000000E+00 0.  1.
         24    2    1    2    0    0  0.60728193508E+03  0.59651497257E+03  0.23175461700E+00  0.85608864925E+03  0.90918977597E+02 0.  0.
        254    2    1    2    0    0 -0.60728193508E+03 -0.59651497257E+03  0.93600910463E+03  0.15531597071E+04  0.90087211675E+03 0.  0.
         23    2    4    4    0    0 -0.64007825110E+03 -0.29054265644E+03  0.17977115543E+03  0.73136256065E+03  0.91969147251E+02 0.  0.
         23    2    4    4    0    0  0.32796316022E+02 -0.30597231613E+03  0.75623794920E+03  0.82179714649E+03  0.93595179267E+02 0.  0.
          4    1    3    3  502    0  0.40542160730E+03  0.39089307787E+03 -0.42576707305E+02  0.56478035908E+03  0.00000000000E+00 0. -1.
         -3    1    3    3    0  502  0.20186032778E+03  0.20562189470E+03  0.42808461922E+02  0.29130829017E+03  0.00000000000E+00 0.  1.
         11    1    5    5    0    0 -0.68042708174E+00  0.42663971156E+01  0.34563991592E+01  0.55327949998E+01  0.00000000000E+00 0. -1.
        -11    1    5    5    0    0 -0.63939782402E+03 -0.29480905356E+03  0.17631475627E+03  0.72582976565E+03  0.00000000000E+00 0.  1.
          1    1    6    6  503    0  0.33659302893E+02 -0.45946139856E+02  0.88805017687E+02  0.10550036780E+03  0.00000000000E+00 0. -1.
         -1    1    6    6    0  503 -0.86298687147E+00 -0.26002617627E+03  0.66743293151E+03  0.71629677869E+03  0.00000000000E+00 0.  1.
<mgrwt>
<rscale>  0 0.22198943E+04</rscale>
<asrwt>0</asrwt>
<pdfrwt beam="1">  1        2 0.25734532E+00 0.22198943E+04</pdfrwt>
<pdfrwt beam="2">  1       -1 0.11330827E+00 0.22198943E+04</pdfrwt>
<totfact> 0.75062052E+00</totfact>
</mgrwt>
</event>
<event>
12    6  0.1395358E-007  0.1343704E+04  0.7818608E-02  0.8995608E-01
          2   -1    0    0  501    0  0.00000000000E+00  0.00000000000E+00  0.87698214899E+03  0.87698214899E+03  0.00000000000E+00 0. -1.
         -1   -1    0    0    0  501 -0.00000000000E+00 -0.00000000000E+00 -0.51470257079E+03  0.51470257079E+03  0.00000000000E+00 0.  1.
         24    2    1    2    0    0 -0.65068810224E+02  0.27171612588E+03  0.34292494044E+03  0.44938306074E+03  0.79271794299E+02 0.  0.
        254    2    1    2    0    0  0.65068810224E+02 -0.27171612588E+03  0.19354637756E+02  0.94230165904E+03  0.89971896251E+03 0.  0.
         23    2    4    4    0    0  0.28180930296E+03 -0.20899037201E+02  0.35425604229E+03  0.46236225464E+03  0.91805544636E+02 0.  0.
         23    2    4    4    0    0 -0.21674049273E+03 -0.25081708868E+03 -0.33490140453E+03  0.47993940440E+03  0.91089121071E+02 0.  0.
          4    1    3    3  502    0 -0.58499882879E+02  0.17412852591E+03  0.27341265683E+03  0.32938952738E+03  0.00000000000E+00 0. -1.
         -3    1    3    3    0  502 -0.65689273453E+01  0.97587599970E+02  0.69512283613E+02  0.11999353336E+03  0.00000000000E+00 0.  1.
         11    1    5    5    0    0  0.52984921743E+02 -0.39896772786E+02  0.97401304887E+02  0.11783958844E+03  0.00000000000E+00 0. -1.
        -11    1    5    5    0    0  0.22882438121E+03  0.18997735585E+02  0.25685473740E+03  0.34452266619E+03  0.00000000000E+00 0.  1.
          2    1    6    6  503    0 -0.23955182590E+02 -0.43572256442E+02 -0.13203079611E+02  0.51446220615E+02  0.00000000000E+00 0. -1.
         -2    1    6    6    0  503 -0.19278531014E+03 -0.20724483224E+03 -0.32169832492E+03  0.42849318379E+03  0.00000000000E+00 0.  1.
<mgrwt>
<rscale>  0 0.13437038E+04</rscale>
<asrwt>0</asrwt>
<pdfrwt beam="1">  1        2 0.13492033E+00 0.13437038E+04</pdfrwt>
<pdfrwt beam="2">  1       -1 0.79185011E-01 0.13437038E+04</pdfrwt>
<totfact> 0.54077724E+01</totfact>
</mgrwt>
</event>
<event>
12    6  0.1395358E-007  0.2157106E+04  0.7818608E-02  0.8536497E-01
         -1   -1    0    0    0  501 -0.00000000000E+00  0.00000000000E+00  0.41396376019E+03  0.41396376019E+03  0.00000000000E+00 0.  1.
          2   -1    0    0  501    0  0.00000000000E+00 -0.00000000000E+00 -0.28100915693E+04  0.28100915693E+04  0.00000000000E+00 0. -1.
         24    2    1    2    0    0  0.81787486870E+03 -0.23120035805E+03 -0.61066516537E+03  0.10492140841E+04  0.74601230906E+02 0.  0.
        254    2    1    2    0    0 -0.81787486870E+03  0.23120035805E+03 -0.17854626437E+04  0.21748412454E+04  0.90536439296E+03 0.  0.
         23    2    4    4    0    0 -0.20631450737E+03 -0.30520600033E+03 -0.32009829573E+03  0.49636294953E+03  0.90536623222E+02 0.  0.
         23    2    4    4    0    0 -0.61156036134E+03  0.53640635839E+03 -0.14653643480E+04  0.16784782959E+04  0.90878272334E+02 0.  0.
          2    1    3    3  502    0  0.58228335953E+03 -0.19924552533E+03 -0.43766881788E+03  0.75518652285E+03  0.00000000000E+00 0. -1.
         -1    1    3    3    0  502  0.23559150917E+03 -0.31954832727E+02 -0.17299634749E+03  0.29402756125E+03  0.00000000000E+00 0.  1.
         11    1    5    5    0    0 -0.40887857971E+02 -0.12998479019E+03 -0.14130946710E+03  0.19630646475E+03  0.00000000000E+00 0.  1.
        -11    1    5    5    0    0 -0.16542664939E+03 -0.17522121014E+03 -0.17878882863E+03  0.30005648478E+03  0.00000000000E+00 0. -1.
          1    1    6    6  503    0 -0.70482883899E+02  0.10485030596E+03 -0.21719581251E+03  0.25126767511E+03  0.00000000000E+00 0. -1.
         -1    1    6    6    0  503 -0.54107747744E+03  0.43155605243E+03 -0.12481685355E+04  0.14272106208E+04  0.00000000000E+00 0.  1.
<mgrwt>
<rscale>  0 0.21571055E+04</rscale>
<asrwt>0</asrwt>
<pdfrwt beam="1">  1        2 0.43232176E+00 0.21571055E+04</pdfrwt>
<pdfrwt beam="2">  1       -1 0.63686735E-01 0.21571055E+04</pdfrwt>
<totfact> 0.59560608E+00</totfact>
</mgrwt>
</event>
<event>
12    6  0.1395358E-007  0.1860008E+04  0.7818608E-02  0.8675023E-01
         -1   -1    0    0    0  501 -0.00000000000E+00  0.00000000000E+00  0.44955932563E+03  0.44955932563E+03  0.00000000000E+00 0.  1.
          2   -1    0    0  501    0  0.00000000000E+00 -0.00000000000E+00 -0.19239015844E+04  0.19239015844E+04  0.00000000000E+00 0. -1.
         24    2    1    2    0    0 -0.47681115475E+03 -0.57440624595E+02 -0.12339480988E+04  0.13265699777E+04  0.80695059785E+02 0.  0.
        254    2    1    2    0    0  0.47681115475E+03  0.57440624595E+02 -0.24039415999E+03  0.10468909323E+04  0.89863394624E+03 0.  0.
         23    2    4    4    0    0  0.72124599091E+03 -0.44271848744E+02 -0.24092359706E+03  0.76714287872E+03  0.91149551584E+02 0.  0.
         23    2    4    4    0    0 -0.24443483616E+03  0.10171247334E+03  0.52943707506E+00  0.27974805358E+03  0.90359707942E+02 0.  0.
          4    1    3    3  502    0 -0.53207809300E+02  0.14560108826E+02 -0.18436581479E+03  0.19244173509E+03  0.00000000000E+00 0. -1.
         -3    1    3    3    0  502 -0.42360334545E+03 -0.72000733421E+02 -0.10495822840E+04  0.11341282427E+04  0.00000000000E+00 0.  1.
         11    1    5    5    0    0  0.43017947151E+03  0.16784316451E+02 -0.15529122727E+03  0.45765866784E+03  0.00000000000E+00 0. -1.
        -11    1    5    5    0    0  0.29106651940E+03 -0.61056165196E+02 -0.85632369793E+02  0.30948421088E+03  0.00000000000E+00 0.  1.
          3    1    6    6  503    0 -0.16074247460E+03  0.63731119298E+02  0.43482161261E+02  0.17829889807E+03  0.00000000000E+00 0. -1.
         -3    1    6    6    0  503 -0.83692361561E+02  0.37981354041E+02 -0.42952724186E+02  0.10144915551E+03  0.00000000000E+00 0.  1.
<mgrwt>
<rscale>  0 0.18600085E+04</rscale>
<asrwt>0</asrwt>
<pdfrwt beam="1">  1        2 0.29598486E+00 0.18600085E+04</pdfrwt>
<pdfrwt beam="2">  1       -1 0.69162973E-01 0.18600085E+04</pdfrwt>
<totfact> 0.16664723E+01</totfact>
</mgrwt>
</event>
<event>
12    6  0.1395358E-007  0.2049025E+04  0.7818608E-02  0.8584037E-01
          2   -1    0    0  501    0  0.00000000000E+00  0.00000000000E+00  0.16753623840E+04  0.16753623840E+04  0.00000000000E+00 0. -1.
         -1   -1    0    0    0  501 -0.00000000000E+00 -0.00000000000E+00 -0.62650700279E+03  0.62650700279E+03  0.00000000000E+00 0.  1.
         24    2    1    2    0    0 -0.28259343230E+03  0.61169562554E+03  0.95709049656E+03  0.11731809786E+04  0.79377601147E+02 0.  0.
        254    2    1    2    0    0  0.28259343230E+03 -0.61169562554E+03  0.91764884674E+02  0.11286884083E+04  0.90082525641E+03 0.  0.
         23    2    4    4    0    0  0.59400579865E+03 -0.49297973680E+03  0.39138382491E+02  0.77850338666E+03  0.93079537672E+02 0.  0.
         23    2    4    4    0    0 -0.31141236634E+03 -0.11871588874E+03  0.52626502183E+02  0.35018502160E+03  0.93749007822E+02 0.  0.
          4    1    3    3  502    0 -0.20004692264E+03  0.50607536244E+03  0.75509441773E+03  0.93075164432E+03  0.00000000000E+00 0. -1.
         -3    1    3    3    0  502 -0.82546509661E+02  0.10562026310E+03  0.20199607883E+03  0.24242933423E+03  0.00000000000E+00 0.  1.
         11    1    5    5    0    0  0.40351277948E+03 -0.28050649083E+03  0.40923564094E+02  0.49313405145E+03  0.00000000000E+00 0.  1.
        -11    1    5    5    0    0  0.19049301917E+03 -0.21247324596E+03 -0.17851816027E+01  0.28536933520E+03  0.00000000000E+00 0. -1.
          1    1    6    6  503    0 -0.77489363937E+02  0.79415985295E+01  0.29030684691E+02  0.83129123441E+02  0.00000000000E+00 0. -1.
         -1    1    6    6    0  503 -0.23392300241E+03 -0.12665748727E+03  0.23595817492E+02  0.26705589816E+03  0.00000000000E+00 0.  1.
<mgrwt>
<rscale>  0 0.20490254E+04</rscale>
<asrwt>0</asrwt>
<pdfrwt beam="1">  1        2 0.25774806E+00 0.20490254E+04</pdfrwt>
<pdfrwt beam="2">  1       -1 0.96385694E-01 0.20490254E+04</pdfrwt>
<totfact> 0.11055636E+01</totfact>
</mgrwt>
</event>
<event>
12    6  0.1395358E-007  0.3570583E+04  0.7818608E-02  0.8097263E-01
         -1   -1    0    0    0  501 -0.00000000000E+00  0.00000000000E+00  0.15709071563E+04  0.15709071563E+04  0.00000000000E+00 0.  1.
          2   -1    0    0  501    0  0.00000000000E+00 -0.00000000000E+00 -0.20289335612E+04  0.20289335612E+04  0.00000000000E+00 0. -1.
         24    2    1    2    0    0  0.89934836355E+03 -0.13118459351E+04  0.30232657293E+03  0.16209618630E+04  0.79679158529E+02 0.  0.
        254    2    1    2    0    0 -0.89934836355E+03  0.13118459351E+04 -0.76035297784E+03  0.19788788544E+04  0.89892025955E+03 0.  0.
         23    2    4    4    0    0 -0.91287601007E+03  0.60908630971E+03 -0.59247895769E+03  0.12504212058E+04  0.90515932827E+02 0.  0.
         23    2    4    4    0    0  0.13527646511E+02  0.70275962538E+03 -0.16787402015E+03  0.72845764863E+03  0.91732060483E+02 0.  0.
          2    1    3    3  502    0  0.32509668390E+03 -0.41201972492E+03  0.86547451128E+02  0.53191970156E+03  0.00000000000E+00 0. -1.
         -1    1    3    3    0  502  0.57425167965E+03 -0.89982621017E+03  0.21577912180E+03  0.10890421615E+04  0.00000000000E+00 0.  1.
         11    1    5    5    0    0 -0.28244987306E+03  0.15544572985E+03 -0.20915714238E+03  0.38430198533E+03  0.00000000000E+00 0. -1.
        -11    1    5    5    0    0 -0.63042613701E+03  0.45364057986E+03 -0.38332181531E+03  0.86611922043E+03  0.00000000000E+00 0.  1.
          1    1    6    6  503    0 -0.84106415113E+01  0.91917206136E+02  0.73724995586E+01  0.92595169551E+02  0.00000000000E+00 0. -1.
         -1    1    6    6    0  503  0.21938288023E+02  0.61084241925E+03 -0.17524651971E+03  0.63586247908E+03  0.00000000000E+00 0.  1.
<mgrwt>
<rscale>  0 0.35705833E+04</rscale>
<asrwt>0</asrwt>
<pdfrwt beam="1">  1        2 0.31214362E+00 0.35705833E+04</pdfrwt>
<pdfrwt beam="2">  1       -1 0.24167803E+00 0.35705833E+04</pdfrwt>
<totfact> 0.47287979E-01</totfact>
</mgrwt>
</event>
<event>
12    6  0.1395358E-007  0.1791637E+04  0.7818608E-02  0.8710760E-01
          2   -1    0    0  501    0  0.00000000000E+00  0.00000000000E+00  0.21833758959E+04  0.21833758959E+04  0.00000000000E+00 0. -1.
         -1   -1    0    0    0  501 -0.00000000000E+00 -0.00000000000E+00 -0.36754584911E+03  0.36754584911E+03  0.00000000000E+00 0.  1.
         24    2    1    2    0    0  0.26568454289E+03 -0.30581194794E+03 -0.73228500091E+02  0.41963005148E+03  0.81349511643E+02 0.  0.
        254    2    1    2    0    0 -0.26568454289E+03  0.30581194794E+03  0.18890585469E+04  0.21312916936E+04  0.89986269258E+03 0.  0.
         23    2    4    4    0    0 -0.51605189550E+03  0.43445160684E+03  0.11650830465E+04  0.13492879578E+04  0.90009612203E+02 0.  0.
         23    2    4    4    0    0  0.25036735261E+03 -0.12863965889E+03  0.72397550039E+03  0.78200373573E+03  0.90318018361E+02 0.  0.
          4    1    3    3  502    0  0.85091836303E+02 -0.46569153143E+02 -0.23360173999E+02  0.99774768149E+02  0.00000000000E+00 0. -1.
         -3    1    3    3    0  502  0.18059270659E+03 -0.25924279480E+03 -0.49868326091E+02  0.31985528333E+03  0.00000000000E+00 0.  1.
         11    1    5    5    0    0 -0.18322767324E+03  0.19449008212E+03  0.39828694286E+03  0.47961574321E+03  0.00000000000E+00 0. -1.
        -11    1    5    5    0    0 -0.33282422226E+03  0.23996152472E+03  0.76679610367E+03  0.86967221462E+03  0.00000000000E+00 0.  1.
          4    1    6    6  503    0  0.23278276843E+03 -0.99869352079E+02  0.68572359704E+03  0.73101200832E+03  0.00000000000E+00 0. -1.
         -4    1    6    6    0  503  0.17584584184E+02 -0.28770306815E+02  0.38251903345E+02  0.50991727414E+02  0.00000000000E+00 0.  1.
<mgrwt>
<rscale>  0 0.17916370E+04</rscale>
<asrwt>0</asrwt>
<pdfrwt beam="1">  1        2 0.33590398E+00 0.17916370E+04</pdfrwt>
<pdfrwt beam="2">  1       -1 0.56545517E-01 0.17916370E+04</pdfrwt>
<totfact> 0.17971790E+01</totfact>
</mgrwt>
</event>
<event>
12    6  0.1395358E-007  0.3334192E+04  0.7818608E-02  0.8154249E-01
          2   -1    0    0  501    0  0.00000000000E+00  0.00000000000E+00  0.27476414165E+04  0.27476414165E+04  0.00000000000E+00 0. -1.
         -1   -1    0    0    0  501 -0.00000000000E+00 -0.00000000000E+00 -0.10114891372E+04  0.10114891372E+04  0.00000000000E+00 0.  1.
         24    2    1    2    0    0 -0.15106933178E+03 -0.15334666420E+04  0.92098077387E+03  0.17970095388E+04  0.81827940003E+02 0.  0.
        254    2    1    2    0    0  0.15106933178E+03  0.15334666420E+04  0.81517150550E+03  0.19621210149E+04  0.90059558543E+03 0.  0.
         23    2    4    4    0    0  0.24592963137E+03  0.76302494111E+03  0.85984033243E+03  0.11790733715E+04  0.90554810645E+02 0.  0.
         23    2    4    4    0    0 -0.94860299594E+02  0.77044170087E+03 -0.44668826938E+02  0.78304764337E+03  0.92679106625E+02 0.  0.
          2    1    3    3  502    0 -0.79745877750E+02 -0.45931215623E+03  0.29616315129E+03  0.55230396890E+03  0.00000000000E+00 0. -1.
         -1    1    3    3    0  502 -0.71323454029E+02 -0.10741544858E+04  0.62481762258E+03  0.12447055699E+04  0.00000000000E+00 0.  1.
         11    1    5    5    0    0  0.20732012304E+03  0.51666929866E+03  0.57083585873E+03  0.79735962728E+03  0.00000000000E+00 0. -1.
        -11    1    5    5    0    0  0.38609508328E+02  0.24635564244E+03  0.28900447371E+03  0.38171374421E+03  0.00000000000E+00 0.  1.
          3    1    6    6  503    0 -0.11169546363E+03  0.70388833624E+03 -0.33385215018E+02  0.71347686653E+03  0.00000000000E+00 0. -1.
         -3    1    6    6    0  503  0.16835164041E+02  0.66553364638E+02 -0.11283611920E+02  0.69570776845E+02  0.00000000000E+00 0.  1.
<mgrwt>
<rscale>  0 0.33341922E+04</rscale>
<asrwt>0</asrwt>
<pdfrwt beam="1">  1        2 0.42271406E+00 0.33341922E+04</pdfrwt>
<pdfrwt beam="2">  1       -1 0.15561371E+00 0.33341922E+04</pdfrwt>
<totfact> 0.74247820E-01</totfact>
</mgrwt>
</event>
<event>
12    6  0.1395358E-007  0.1542379E+04  0.7818608E-02  0.8856750E-01
          2   -1    0    0  501    0  0.00000000000E+00  0.00000000000E+00  0.44081647471E+03  0.44081647471E+03  0.00000000000E+00 0. -1.
         -1   -1    0    0    0  501 -0.00000000000E+00 -0.00000000000E+00 -0.13491631923E+04  0.13491631923E+04  0.00000000000E+00 0.  1.
         24    2    1    2    0    0  0.41715631897E+03 -0.69056830324E+01  0.29680869874E+02  0.42591997999E+03  0.80372833779E+02 0.  0.
        254    2    1    2    0    0 -0.41715631897E+03  0.69056830324E+01 -0.93802758743E+03  0.13640596870E+04  0.89816256432E+03 0.  0.
         23    2    4    4    0    0 -0.40367107556E+03  0.40517089954E+03 -0.50392627081E+03  0.76766029071E+03  0.90812116146E+02 0.  0.
         23    2    4    4    0    0 -0.13485243402E+02 -0.39826521651E+03 -0.43410131662E+03  0.59639939627E+03  0.91930692976E+02 0.  0.
          4    1    3    3  502    0  0.32594428533E+03  0.19855411190E+02  0.45007437782E+02  0.32963553199E+03  0.00000000000E+00 0. -1.
         -3    1    3    3    0  502  0.91212033637E+02 -0.26761094222E+02 -0.15326567908E+02  0.96284448007E+02  0.00000000000E+00 0.  1.
         11    1    5    5    0    0 -0.12714886940E+02  0.49267838645E+01 -0.35257052124E+02  0.37802133188E+02  0.00000000000E+00 0.  1.
        -11    1    5    5    0    0 -0.39095618862E+03  0.40024411568E+03 -0.46866921869E+03  0.72985815752E+03  0.00000000000E+00 0. -1.
          3    1    6    6  503    0 -0.39899649395E+02 -0.18148833807E+03 -0.24517976221E+03  0.30764121095E+03  0.00000000000E+00 0. -1.
         -3    1    6    6    0  503  0.26414405993E+02 -0.21677687843E+03 -0.18892155441E+03  0.28875818532E+03  0.00000000000E+00 0.  1.
<mgrwt>
<rscale>  0 0.15423792E+04</rscale>
<asrwt>0</asrwt>
<pdfrwt beam="1">  1        2 0.67817920E-01 0.15423792E+04</pdfrwt>
<pdfrwt beam="2">  1       -1 0.20756357E+00 0.15423792E+04</pdfrwt>
<totfact> 0.10474038E+01</totfact>
</mgrwt>
</event>
<event>
12    6  0.1395358E-007  0.2201259E+04  0.7818608E-02  0.8517904E-01
          2   -1    0    0  501    0  0.00000000000E+00  0.00000000000E+00  0.16560992991E+04  0.16560992991E+04  0.00000000000E+00 0. -1.
         -1   -1    0    0    0  501 -0.00000000000E+00 -0.00000000000E+00 -0.73146883624E+03  0.73146883624E+03  0.00000000000E+00 0.  1.
         24    2    1    2    0    0 -0.48800589735E+03 -0.18524466023E+03 -0.42894536101E+03  0.68036884064E+03  0.80263918388E+02 0.  0.
        254    2    1    2    0    0  0.48800589735E+03  0.18524466023E+03  0.13535758238E+04  0.17071992946E+04  0.89994254307E+03 0.  0.
         23    2    4    4    0    0  0.11461323928E+03 -0.14866455179E+03 -0.50324808450E+02  0.21374707304E+03  0.88982477560E+02 0.  0.
         23    2    4    4    0    0  0.37339265807E+03  0.33390921202E+03  0.14039006323E+04  0.14934522216E+04  0.92439785559E+02 0.  0.
          4    1    3    3  502    0 -0.34478756129E+03 -0.90753366441E+02 -0.29089813499E+03  0.46014819448E+03  0.00000000000E+00 0. -1.
         -3    1    3    3    0  502 -0.14321833605E+03 -0.94491293789E+02 -0.13804722603E+03  0.22022064617E+03  0.00000000000E+00 0.  1.
         11    1    5    5    0    0  0.37452621845E+01 -0.38126399716E+02  0.18721324624E+02  0.42639621713E+02  0.00000000000E+00 0.  1.
        -11    1    5    5    0    0  0.11086797709E+03 -0.11053815208E+03 -0.69046133074E+02  0.17110745133E+03  0.00000000000E+00 0. -1.
          2    1    6    6  503    0  0.35513526769E+03  0.27938326276E+03  0.12489870489E+04  0.13282110955E+04  0.00000000000E+00 0. -1.
         -2    1    6    6    0  503  0.18257390378E+02  0.54525949260E+02  0.15491358333E+03  0.16524112607E+03  0.00000000000E+00 0.  1.
<mgrwt>
<rscale>  0 0.22012588E+04</rscale>
<asrwt>0</asrwt>
<pdfrwt beam="1">  1        2 0.25478451E+00 0.22012588E+04</pdfrwt>
<pdfrwt beam="2">  1       -1 0.11253367E+00 0.22012588E+04</pdfrwt>
<totfact> 0.78073600E+00</totfact>
</mgrwt>
</event>
<event>
12    6  0.1395358E-007  0.2751254E+04  0.7818608E-02  0.8318564E-01
         -1   -1    0    0    0  501 -0.00000000000E+00  0.00000000000E+00  0.81816343009E+03  0.81816343009E+03  0.00000000000E+00 0.  1.
          2   -1    0    0  501    0  0.00000000000E+00 -0.00000000000E+00 -0.23129231167E+04  0.23129231167E+04  0.00000000000E+00 0. -1.
         24    2    1    2    0    0 -0.16893537724E+03  0.11994699240E+04 -0.90187967605E+03  0.15123632547E+04  0.81168983810E+02 0.  0.
        254    2    1    2    0    0  0.16893537724E+03 -0.11994699240E+04 -0.59288001053E+03  0.16187232920E+04  0.89526036937E+03 0.  0.
         23    2    4    4    0    0  0.71796315087E+02 -0.30323125778E+03  0.22849085111E+03  0.39632827106E+03  0.88114260193E+02 0.  0.
         23    2    4    4    0    0  0.97139062155E+02 -0.89623866623E+03 -0.82137086164E+03  0.12223950210E+04  0.83185038719E+02 0.  0.
          2    1    3    3  502    0 -0.15040377404E+03  0.10432778510E+04 -0.81711463804E+03  0.13336889823E+04  0.00000000000E+00 0. -1.
         -1    1    3    3    0  502 -0.18531603202E+02  0.15619207298E+03 -0.84765038009E+02  0.17867427248E+03  0.00000000000E+00 0.  1.
         11    1    5    5    0    0  0.49198846473E+02 -0.29605947524E+03  0.21115377833E+03  0.36695729653E+03  0.00000000000E+00 0. -1.
        -11    1    5    5    0    0  0.22597468614E+02 -0.71717825406E+01  0.17337072779E+02  0.29370974535E+02  0.00000000000E+00 0.  1.
          1    1    6    6  503    0  0.57469689483E+02 -0.78450965339E+03 -0.70635384326E+03  0.10572104395E+04  0.00000000000E+00 0. -1.
         -1    1    6    6    0  503  0.39669372672E+02 -0.11172901284E+03 -0.11501701839E+03  0.16518458148E+03  0.00000000000E+00 0.  1.
<mgrwt>
<rscale>  0 0.27512536E+04</rscale>
<asrwt>0</asrwt>
<pdfrwt beam="1">  1        2 0.35583433E+00 0.27512536E+04</pdfrwt>
<pdfrwt beam="2">  1       -1 0.12587130E+00 0.27512536E+04</pdfrwt>
<totfact> 0.24352457E+00</totfact>
</mgrwt>
</event>
<event>
12    6  0.1395358E-007  0.2323557E+04  0.7818608E-02  0.8468690E-01
         -1   -1    0    0    0  501 -0.00000000000E+00  0.00000000000E+00  0.12451639798E+04  0.12451639798E+04  0.00000000000E+00 0.  1.
          2   -1    0    0  501    0  0.00000000000E+00 -0.00000000000E+00 -0.10839771625E+04  0.10839771625E+04  0.00000000000E+00 0. -1.
         24    2    1    2    0    0  0.12422244955E+03  0.67070701445E+03  0.77412317193E+03  0.10346885138E+04  0.77682166850E+02 0.  0.
        254    2    1    2    0    0 -0.12422244955E+03 -0.67070701445E+03 -0.61293635459E+03  0.12944526285E+04  0.91358498038E+03 0.  0.
         23    2    4    4    0    0 -0.19345032736E+03 -0.36474027657E+03  0.16251491209E+03  0.45301289025E+03  0.91384263256E+02 0.  0.
         23    2    4    4    0    0  0.69227877814E+02 -0.30596673788E+03 -0.77545126668E+03  0.84143973823E+03  0.91038575950E+02 0.  0.
          2    1    3    3  502    0  0.63159091655E+02  0.24565911090E+03  0.23829986703E+03  0.34802916007E+03  0.00000000000E+00 0. -1.
         -1    1    3    3    0  502  0.61063357893E+02  0.42504790355E+03  0.53582330489E+03  0.68665935372E+03  0.00000000000E+00 0.  1.
         11    1    5    5    0    0 -0.16313860332E+03 -0.27771444249E+03  0.86356550243E+02  0.33346209564E+03  0.00000000000E+00 0. -1.
        -11    1    5    5    0    0 -0.30311724046E+02 -0.87025834078E+02  0.76158361848E+02  0.11955079461E+03  0.00000000000E+00 0.  1.
          1    1    6    6  503    0 -0.31326773816E+01  0.37925165565E+01 -0.23453465050E+01  0.54495412318E+01  0.00000000000E+00 0. -1.
         -1    1    6    6    0  503  0.72360555196E+02 -0.30975925444E+03 -0.77310592018E+03  0.83599019699E+03  0.00000000000E+00 0.  1.
<mgrwt>
<rscale>  0 0.23235570E+04</rscale>
<asrwt>0</asrwt>
<pdfrwt beam="1">  1        2 0.16676572E+00 0.23235570E+04</pdfrwt>
<pdfrwt beam="2">  1       -1 0.19156369E+00 0.23235570E+04</pdfrwt>
<totfact> 0.39620115E+00</totfact>
</mgrwt>
</event>
<event>
12    6  0.1395358E-007  0.1611439E+04  0.7818608E-02  0.8813551E-01
         -3   -1    0    0    0  501 -0.00000000000E+00  0.00000000000E+00  0.57234949956E+03  0.57234949956E+03  0.00000000000E+00 0.  1.
          4   -1    0    0  501    0  0.00000000000E+00 -0.00000000000E+00 -0.11342443385E+04  0.11342443385E+04  0.00000000000E+00 0. -1.
         24    2    1    2    0    0 -0.51239622373E+03 -0.20267854744E+03 -0.16936704992E+03  0.58206369901E+03  0.80526197112E+02 0.  0.
        254    2    1    2    0    0  0.51239622373E+03  0.20267854744E+03 -0.39252778904E+03  0.11245301391E+04  0.89825468819E+03 0.  0.
         23    2    4    4    0    0 -0.19870768746E+03 -0.10937356289E+03 -0.20978261890E+03  0.32152614371E+03  0.89011193573E+02 0.  0.
         23    2    4    4    0    0  0.71110391119E+03  0.31205211033E+03 -0.18274517013E+03  0.80300399537E+03  0.91511350659E+02 0.  0.
          4    1    3    3  502    0 -0.47301826271E+03 -0.18277862258E+03 -0.17735948690E+03  0.53722498948E+03  0.00000000000E+00 0. -1.
         -3    1    3    3    0  502 -0.39377961012E+02 -0.19899924859E+02  0.79924369758E+01  0.44838709523E+02  0.00000000000E+00 0.  1.
         11    1    5    5    0    0 -0.10267076750E+02 -0.10217102947E+02  0.83279789961E+01  0.16708000832E+02  0.00000000000E+00 0.  1.
        -11    1    5    5    0    0 -0.18844061071E+03 -0.99156459943E+02 -0.21811059790E+03  0.30481814288E+03  0.00000000000E+00 0. -1.
          4    1    6    6  503    0  0.71236847594E+03  0.30641968792E+03 -0.17827615292E+03  0.79570362407E+03  0.00000000000E+00 0. -1.
         -4    1    6    6    0  503 -0.12645647515E+01  0.56324224076E+01 -0.44690172171E+01  0.73003712970E+01  0.00000000000E+00 0.  1.
<mgrwt>
<rscale>  0 0.16114393E+04</rscale>
<asrwt>0</asrwt>
<pdfrwt beam="1">  1        4 0.17449913E+00 0.16114393E+04</pdfrwt>
<pdfrwt beam="2">  1       -3 0.88053769E-01 0.16114393E+04</pdfrwt>
<totfact> 0.50410152E-01</totfact>
</mgrwt>
</event>
<event>
12    6  0.1395358E-007  0.1619879E+04  0.7818608E-02  0.8808428E-01
         -1   -1    0    0    0  501 -0.00000000000E+00  0.00000000000E+00  0.68617900628E+03  0.68617900628E+03  0.00000000000E+00 0.  1.
          2   -1    0    0  501    0  0.00000000000E+00 -0.00000000000E+00 -0.95602196666E+03  0.95602196666E+03  0.00000000000E+00 0. -1.
         24    2    1    2    0    0  0.28978195440E+03  0.31064605169E+03 -0.45718921949E+03  0.62911627883E+03  0.79314307274E+02 0.  0.
        254    2    1    2    0    0 -0.28978195440E+03 -0.31064605169E+03  0.18734625911E+03  0.10130846941E+04  0.90042624691E+03 0.  0.
         23    2    4    4    0    0  0.38136336018E+02 -0.53542306442E+03 -0.41700370332E+02  0.54570867045E+03  0.89032545049E+02 0.  0.
         23    2    4    4    0    0 -0.32791829041E+03  0.22477701273E+03  0.22904662944E+03  0.46737602367E+03  0.89010552181E+02 0.  0.
          2    1    3    3  502    0  0.73422470856E+02  0.37771722885E+02 -0.10812983372E+03  0.13605007613E+03  0.00000000000E+00 0. -1.
         -1    1    3    3    0  502  0.21635948354E+03  0.27287432881E+03 -0.34905938578E+03  0.49306620270E+03  0.00000000000E+00 0.  1.
         11    1    5    5    0    0  0.64330473304E+02 -0.27743917139E+03 -0.20917703617E+02  0.28556689924E+03  0.00000000000E+00 0.  1.
        -11    1    5    5    0    0 -0.26194137286E+02 -0.25798389303E+03 -0.20782666715E+02  0.26014177121E+03  0.00000000000E+00 0. -1.
          4    1    6    6  503    0 -0.26316186815E+03  0.21224929520E+03  0.16810685481E+03  0.37757627944E+03  0.00000000000E+00 0.  1.
         -4    1    6    6    0  503 -0.64756422264E+02  0.12527717531E+02  0.60939774636E+02  0.89799744229E+02  0.00000000000E+00 0. -1.
<mgrwt>
<rscale>  0 0.16198793E+04</rscale>
<asrwt>0</asrwt>
<pdfrwt beam="1">  1        2 0.14708030E+00 0.16198793E+04</pdfrwt>
<pdfrwt beam="2">  1       -1 0.10556600E+00 0.16198793E+04</pdfrwt>
<totfact> 0.24717771E+01</totfact>
</mgrwt>
</event>
<event>
12    6  0.1395358E-007  0.3506492E+04  0.7818608E-02  0.8112253E-01
          2   -1    0    0  501    0  0.00000000000E+00  0.00000000000E+00  0.36118706761E+04  0.36118706761E+04  0.00000000000E+00 0. -1.
         -1   -1    0    0    0  501 -0.00000000000E+00 -0.00000000000E+00 -0.85104692434E+03  0.85104692434E+03  0.00000000000E+00 0.  1.
         24    2    1    2    0    0 -0.13798218902E+04  0.71989193634E+03  0.64528979691E+03  0.16866897182E+04  0.79815004165E+02 0.  0.
        254    2    1    2    0    0  0.13798218902E+04 -0.71989193634E+03  0.21155339548E+04  0.27762278822E+04  0.89989137753E+03 0.  0.
         23    2    4    4    0    0  0.57088610423E+03 -0.79127641792E+03  0.11840838490E+04  0.15369038978E+04  0.89385210517E+02 0.  0.
         23    2    4    4    0    0  0.80893578595E+03  0.71384481579E+02  0.93145010581E+03  0.12393239845E+04  0.94083945838E+02 0.  0.
          4    1    3    3  502    0 -0.20999707456E+03  0.11734856584E+03  0.13064015993E+03  0.27374497002E+03  0.00000000000E+00 0. -1.
         -3    1    3    3    0  502 -0.11698248156E+04  0.60254337050E+03  0.51464963699E+03  0.14129447482E+04  0.00000000000E+00 0.  1.
         11    1    5    5    0    0  0.57404881325E+03 -0.78471242643E+03  0.11719626961E+04  0.15227613711E+04  0.00000000000E+00 0. -1.
        -11    1    5    5    0    0 -0.31627090223E+01 -0.65639914905E+01  0.12121152949E+02  0.14142526700E+02  0.00000000000E+00 0.  1.
          3    1    6    6  503    0  0.39406613278E+03  0.80997324233E+02  0.47307381869E+03  0.62100525075E+03  0.00000000000E+00 0. -1.
         -3    1    6    6    0  503  0.41486965317E+03 -0.96128426538E+01  0.45837628712E+03  0.61831873371E+03  0.00000000000E+00 0.  1.
<mgrwt>
<rscale>  0 0.35064919E+04</rscale>
<asrwt>0</asrwt>
<pdfrwt beam="1">  1        2 0.55567240E+00 0.35064919E+04</pdfrwt>
<pdfrwt beam="2">  1       -1 0.13093030E+00 0.35064919E+04</pdfrwt>
<totfact> 0.31372685E-01</totfact>
</mgrwt>
</event>
<event>
12    6  0.1395358E-007  0.3856809E+04  0.7818608E-02  0.8034072E-01
          2   -1    0    0  501    0  0.00000000000E+00  0.00000000000E+00  0.32506916345E+04  0.32506916345E+04  0.00000000000E+00 0. -1.
         -1   -1    0    0    0  501 -0.00000000000E+00 -0.00000000000E+00 -0.11439856161E+04  0.11439856161E+04  0.00000000000E+00 0.  1.
         24    2    1    2    0    0 -0.11937665653E+04 -0.60440496455E+03 -0.41297143880E+03  0.14026858755E+04  0.81229811801E+02 0.  0.
        254    2    1    2    0    0  0.11937665653E+04  0.60440496455E+03  0.25196774572E+04  0.29919913751E+04  0.90158412081E+03 0.  0.
         23    2    4    4    0    0  0.10754369760E+04  0.22214869022E+03  0.22349862366E+04  0.24919275872E+04  0.92870298023E+02 0.  0.
         23    2    4    4    0    0  0.11832958935E+03  0.38225627433E+03  0.28469122053E+03  0.50006378786E+03  0.94302438493E+02 0.  0.
          2    1    3    3  502    0 -0.57283107353E+03 -0.32085195473E+03 -0.23373842495E+03  0.69693261292E+03  0.00000000000E+00 0. -1.
         -1    1    3    3    0  502 -0.62093549177E+03 -0.28355300982E+03 -0.17923301385E+03  0.70575326253E+03  0.00000000000E+00 0.  1.
         11    1    5    5    0    0  0.26533491073E+03  0.89815665985E+02  0.61820591407E+03  0.67871055753E+03  0.00000000000E+00 0. -1.
        -11    1    5    5    0    0  0.81010206523E+03  0.13233302423E+03  0.16167803226E+04  0.18132170297E+04  0.00000000000E+00 0.  1.
          2    1    6    6  503    0  0.31865674393E+02  0.86525854888E+02  0.21112130757E+02  0.94593164836E+02  0.00000000000E+00 0. -1.
         -2    1    6    6    0  503  0.86463914954E+02  0.29573041944E+03  0.26357908977E+03  0.40547062303E+03  0.00000000000E+00 0.  1.
<mgrwt>
<rscale>  0 0.38568093E+04</rscale>
<asrwt>0</asrwt>
<pdfrwt beam="1">  1        2 0.50010640E+00 0.38568093E+04</pdfrwt>
<pdfrwt beam="2">  1       -1 0.17599779E+00 0.38568093E+04</pdfrwt>
<totfact> 0.24177771E-01</totfact>
</mgrwt>
</event>
<event>
12    6  0.1395358E-007  0.1270544E+04  0.7818608E-02  0.9053256E-01
          2   -1    0    0  501    0  0.00000000000E+00  0.00000000000E+00  0.20290744667E+04  0.20290744667E+04  0.00000000000E+00 0. -1.
         -1   -1    0    0    0  501 -0.00000000000E+00 -0.00000000000E+00 -0.19889393948E+03  0.19889393948E+03  0.00000000000E+00 0.  1.
         24    2    1    2    0    0 -0.25541237615E+03 -0.16930801786E+03  0.51810384434E+03  0.60733804469E+03  0.80791213683E+02 0.  0.
        254    2    1    2    0    0  0.25541237615E+03  0.16930801786E+03  0.13120766829E+04  0.16206303615E+04  0.90055364083E+03 0.  0.
         23    2    4    4    0    0  0.33799285736E+03 -0.13250635277E+03  0.12290466152E+04  0.12851360569E+04  0.96031231147E+02 0.  0.
         23    2    4    4    0    0 -0.82580481203E+02  0.30181437062E+03  0.83030067694E+02  0.33549430456E+03  0.88039684587E+02 0.  0.
          2    1    3    3  502    0 -0.18485574459E+03 -0.76778461191E+02  0.31321646661E+03  0.37171377882E+03  0.00000000000E+00 0. -1.
         -1    1    3    3    0  502 -0.70556631570E+02 -0.92529556667E+02  0.20488737772E+03  0.23562426587E+03  0.00000000000E+00 0.  1.
         11    1    5    5    0    0  0.12328273592E+03 -0.65228857364E+01  0.33288015689E+03  0.35503574449E+03  0.00000000000E+00 0.  1.
        -11    1    5    5    0    0  0.21471012143E+03 -0.12598346703E+03  0.89616645832E+03  0.93010031245E+03  0.00000000000E+00 0. -1.
          2    1    6    6  503    0 -0.64558526145E+02  0.10727805788E+03  0.59786145062E+02  0.13874713742E+03  0.00000000000E+00 0.  1.
         -2    1    6    6    0  503 -0.18021955058E+02  0.19453631274E+03  0.23243922631E+02  0.19674716714E+03  0.00000000000E+00 0. -1.
<mgrwt>
<rscale>  0 0.12705442E+04</rscale>
<asrwt>0</asrwt>
<pdfrwt beam="1">  1        2 0.31216529E+00 0.12705442E+04</pdfrwt>
<pdfrwt beam="2">  1       -1 0.30599069E-01 0.12705442E+04</pdfrwt>
<totfact> 0.71049116E+01</totfact>
</mgrwt>
</event>
<event>
12    6  0.1395358E-007  0.3583042E+04  0.7818608E-02  0.8094387E-01
          2   -1    0    0  501    0  0.00000000000E+00  0.00000000000E+00  0.32083331442E+04  0.32083331442E+04  0.00000000000E+00 0. -1.
         -1   -1    0    0    0  501 -0.00000000000E+00 -0.00000000000E+00 -0.10003784967E+04  0.10003784967E+04  0.00000000000E+00 0.  1.
         24    2    1    2    0    0  0.85032740808E+03  0.82718498893E+03 -0.35854854928E+03  0.12410091654E+04  0.65230203637E+02 0.  0.
        254    2    1    2    0    0 -0.85032740808E+03 -0.82718498893E+03  0.25665031967E+04  0.29677024756E+04  0.90168044107E+03 0.  0.
         23    2    4    4    0    0 -0.16216941452E+03  0.18098447074E+03  0.57104573132E+03  0.62690008857E+03  0.88635185617E+02 0.  0.
         23    2    4    4    0    0 -0.68815799356E+03 -0.10081694597E+04  0.19954574654E+04  0.23408023870E+04  0.86823010845E+02 0.  0.
          2    1    3    3  502    0  0.59633863945E+03  0.54533712493E+03 -0.22572304153E+03  0.83902517495E+03  0.00000000000E+00 0. -1.
         -3    1    3    3    0  502  0.25398876863E+03  0.28184786400E+03 -0.13282550776E+03  0.40198399041E+03  0.00000000000E+00 0.  1.
         11    1    5    5    0    0 -0.59431134495E+02  0.49173000555E+02  0.28845786640E+03  0.29859334289E+03  0.00000000000E+00 0. -1.
        -11    1    5    5    0    0 -0.10273828002E+03  0.13181147019E+03  0.28258786492E+03  0.32830674567E+03  0.00000000000E+00 0.  1.
          2    1    6    6  503    0 -0.59327652804E+03 -0.87221819131E+03  0.16638287949E+04  0.19700426064E+04  0.00000000000E+00 0. -1.
         -2    1    6    6    0  503 -0.94881465514E+02 -0.13595126837E+03  0.33162867046E+03  0.37075978064E+03  0.00000000000E+00 0.  1.
<mgrwt>
<rscale>  0 0.35830420E+04</rscale>
<asrwt>0</asrwt>
<pdfrwt beam="1">  1        2 0.49358971E+00 0.35830420E+04</pdfrwt>
<pdfrwt beam="2">  1       -1 0.15390439E+00 0.35830420E+04</pdfrwt>
<totfact> 0.38570103E-01</totfact>
</mgrwt>
</event>
<event>
12    6  0.1395358E-007  0.4111544E+04  0.7818608E-02  0.7982415E-01
         -1   -1    0    0    0  501 -0.00000000000E+00  0.00000000000E+00  0.13490789253E+04  0.13490789253E+04  0.00000000000E+00 0.  1.
          2   -1    0    0  501    0  0.00000000000E+00 -0.00000000000E+00 -0.31326548056E+04  0.31326548056E+04  0.00000000000E+00 0. -1.
         24    2    1    2    0    0  0.18743385480E+04 -0.17863440711E+02 -0.14609406735E+04  0.23778612969E+04  0.80078713052E+02 0.  0.
        254    2    1    2    0    0 -0.18743385480E+04  0.17863440711E+02 -0.32263520668E+03  0.21038724341E+04  0.89928952346E+03 0.  0.
         23    2    4    4    0    0 -0.14240188904E+04 -0.36504502650E+03 -0.31352839138E+03  0.15059708571E+04  0.92522963409E+02 0.  0.
         23    2    4    4    0    0 -0.45031965763E+03  0.38290846721E+03 -0.91068152948E+01  0.59790157691E+03  0.89424120225E+02 0.  0.
          2    1    3    3  502    0  0.64813029533E+03  0.13801745737E+02 -0.54654410457E+03  0.84792324307E+03  0.00000000000E+00 0. -1.
         -1    1    3    3    0  502  0.12262082527E+04 -0.31665186448E+02 -0.91439656898E+03  0.15299380538E+04  0.00000000000E+00 0.  1.
         11    1    5    5    0    0 -0.16817775956E+03 -0.29398899929E+02 -0.63922490908E+02  0.18230232849E+03  0.00000000000E+00 0.  1.
        -11    1    5    5    0    0 -0.12558411308E+04 -0.33564612657E+03 -0.24960590047E+03  0.13236685287E+04  0.00000000000E+00 0. -1.
          3    1    6    6  503    0 -0.43623079303E+03  0.38086185074E+03 -0.20812172578E+02  0.57947062105E+03  0.00000000000E+00 0. -1.
         -3    1    6    6    0  503 -0.14088864608E+02  0.20466164716E+01  0.11705357284E+02  0.18430955864E+02  0.00000000000E+00 0.  1.
<mgrwt>
<rscale>  0 0.41115440E+04</rscale>
<asrwt>0</asrwt>
<pdfrwt beam="1">  1        2 0.48194688E+00 0.41115440E+04</pdfrwt>
<pdfrwt beam="2">  1       -1 0.20755061E+00 0.41115440E+04</pdfrwt>
<totfact> 0.16991040E-01</totfact>
</mgrwt>
</event>
<event>
12    6  0.1395358E-007  0.2465467E+04  0.7818608E-02  0.8415392E-01
          2   -1    0    0  501    0  0.00000000000E+00  0.00000000000E+00  0.22530893331E+04  0.22530893331E+04  0.00000000000E+00 0. -1.
         -1   -1    0    0    0  501 -0.00000000000E+00 -0.00000000000E+00 -0.67446578520E+03  0.67446578520E+03  0.00000000000E+00 0.  1.
         24    2    1    2    0    0  0.11353287487E+03  0.10259323419E+04  0.36939647867E+03  0.10992324483E+04  0.80195593025E+02 0.  0.
        254    2    1    2    0    0 -0.11353287487E+03 -0.10259323419E+04  0.12092270692E+04  0.18283226700E+04  0.90283265174E+03 0.  0.
         23    2    4    4    0    0  0.22773592791E+03  0.29370240270E+02  0.13605844553E+03  0.28219526758E+03  0.91629714446E+02 0.  0.
         23    2    4    4    0    0 -0.34126880278E+03 -0.10553025821E+04  0.10731686237E+04  0.15461274024E+04  0.93226145119E+02 0.  0.
          2    1    3    3  502    0  0.87613559313E+02  0.55321928856E+03  0.16813694165E+03  0.58480573540E+03  0.00000000000E+00 0. -1.
         -1    1    3    3    0  502  0.25919315559E+02  0.47271305329E+03  0.20125953702E+03  0.51442671286E+03  0.00000000000E+00 0.  1.
         11    1    5    5    0    0  0.22222648857E+03  0.47601990881E+02  0.11857198462E+03  0.25633937913E+03  0.00000000000E+00 0.  1.
        -11    1    5    5    0    0  0.55094393431E+01 -0.18231750611E+02  0.17486460915E+02  0.25855888450E+02  0.00000000000E+00 0. -1.
          3    1    6    6  503    0 -0.51023353850E+02 -0.20474913245E+03  0.25279716895E+03  0.32929014334E+03  0.00000000000E+00 0. -1.
         -3    1    6    6    0  503 -0.29024544893E+03 -0.85055344967E+03  0.82037145473E+03  0.12168372591E+04  0.00000000000E+00 0.  1.
<mgrwt>
<rscale>  0 0.24654668E+04</rscale>
<asrwt>0</asrwt>
<pdfrwt beam="1">  1        2 0.34662913E+00 0.24654668E+04</pdfrwt>
<pdfrwt beam="2">  1       -1 0.10376397E+00 0.24654668E+04</pdfrwt>
<totfact> 0.42911352E+00</totfact>
</mgrwt>
</event>
<event>
12    6  0.1395358E-007  0.4109768E+04  0.7818608E-02  0.7982762E-01
          2   -1    0    0  501    0  0.00000000000E+00  0.00000000000E+00  0.22720229377E+04  0.22720229377E+04  0.00000000000E+00 0. -1.
         -1   -1    0    0    0  501 -0.00000000000E+00 -0.00000000000E+00 -0.18584972238E+04  0.18584972238E+04  0.00000000000E+00 0.  1.
         24    2    1    2    0    0 -0.11052726910E+04  0.16088171228E+04  0.76595210685E+02  0.19549745457E+04  0.78347891896E+02 0.  0.
        254    2    1    2    0    0  0.11052726910E+04 -0.16088171228E+04  0.33693050325E+03  0.21755456158E+04  0.89975346991E+03 0.  0.
         23    2    4    4    0    0 -0.51422752399E+02 -0.35484598632E+03 -0.14990208232E+03  0.39910813821E+03  0.90866375667E+02 0.  0.
         23    2    4    4    0    0  0.11566954434E+04 -0.12539711364E+04  0.48683258558E+03  0.17764374776E+04  0.91302715022E+02 0.  0.
          2    1    3    3  502    0 -0.33546532318E+03  0.50615273136E+03  0.58711779824E+02  0.61006118022E+03  0.00000000000E+00 0. -1.
         -1    1    3    3    0  502 -0.76980736777E+03  0.11026643914E+04  0.17883430861E+02  0.13449133655E+04  0.00000000000E+00 0.  1.
         11    1    5    5    0    0 -0.18509122605E+02 -0.28622354522E+03 -0.85182183950E+02  0.29920312485E+03  0.00000000000E+00 0.  1.
        -11    1    5    5    0    0 -0.32913629794E+02 -0.68622441108E+02 -0.64719898373E+02  0.99905013364E+02  0.00000000000E+00 0. -1.
          3    1    6    6  503    0  0.23592130384E+02 -0.20416122428E+02 -0.28747995495E+01  0.31331631676E+02  0.00000000000E+00 0. -1.
         -3    1    6    6    0  503  0.11331033130E+04 -0.12335550140E+04  0.48970738513E+03  0.17451058459E+04  0.00000000000E+00 0.  1.
<mgrwt>
<rscale>  0 0.41097680E+04</rscale>
<asrwt>0</asrwt>
<pdfrwt beam="1">  1        2 0.34954199E+00 0.41097680E+04</pdfrwt>
<pdfrwt beam="2">  1       -1 0.28592265E+00 0.41097680E+04</pdfrwt>
<totfact> 0.17037491E-01</totfact>
</mgrwt>
</event>
<event>
12    6  0.1395358E-007  0.5176133E+04  0.7818608E-02  0.7801897E-01
         -1   -1    0    0    0  501 -0.00000000000E+00  0.00000000000E+00  0.17263930408E+04  0.17263930408E+04  0.00000000000E+00 0.  1.
          2   -1    0    0  501    0  0.00000000000E+00 -0.00000000000E+00 -0.38798158737E+04  0.38798158737E+04  0.00000000000E+00 0. -1.
         24    2    1    2    0    0  0.24831083207E+04  0.11431361529E+03 -0.67609648856E+03  0.25772361066E+04  0.78389744469E+02 0.  0.
        254    2    1    2    0    0 -0.24831083207E+04 -0.11431361529E+03 -0.14773263443E+04  0.30289728079E+04  0.90182515381E+03 0.  0.
         23    2    4    4    0    0 -0.20835777947E+04  0.28682651366E+02 -0.81987072115E+03  0.22412002391E+04  0.93120304788E+02 0.  0.
         23    2    4    4    0    0 -0.39953052600E+03 -0.14299626666E+03 -0.65745562319E+03  0.78777256878E+03  0.90912871317E+02 0.  0.
          2    1    3    3  502    0  0.31544826095E+03 -0.11103177387E+02 -0.80651141835E+02  0.32578442652E+03  0.00000000000E+00 0. -1.
         -1    1    3    3    0  502  0.21676600598E+04  0.12541679268E+03 -0.59544534673E+03  0.22514516800E+04  0.00000000000E+00 0.  1.
         11    1    5    5    0    0 -0.53143321896E+03 -0.33277408265E+02 -0.20924744312E+03  0.57211287747E+03  0.00000000000E+00 0. -1.
        -11    1    5    5    0    0 -0.15521445758E+04  0.61960059631E+02 -0.61062327804E+03  0.16690873616E+04  0.00000000000E+00 0.  1.
          1    1    6    6  503    0 -0.64867376356E+02  0.92803502508E+01 -0.11712536616E+03  0.13420973442E+03  0.00000000000E+00 0. -1.
         -1    1    6    6    0  503 -0.33466314965E+03 -0.15227661691E+03 -0.54033025703E+03  0.65356283436E+03  0.00000000000E+00 0.  1.
<mgrwt>
<rscale>  0 0.51761326E+04</rscale>
<asrwt>0</asrwt>
<pdfrwt beam="1">  1        2 0.59689474E+00 0.51761326E+04</pdfrwt>
<pdfrwt beam="2">  1       -1 0.26559893E+00 0.51761326E+04</pdfrwt>
<totfact> 0.19096909E-02</totfact>
</mgrwt>
</event>
<event>
12    6  0.1395358E-007  0.4111551E+04  0.7818608E-02  0.7982414E-01
          4   -1    0    0  501    0  0.00000000000E+00  0.00000000000E+00  0.22395587767E+04  0.22395587767E+04  0.00000000000E+00 0. -1.
         -3   -1    0    0    0  501 -0.00000000000E+00 -0.00000000000E+00 -0.18870735126E+04  0.18870735126E+04  0.00000000000E+00 0.  1.
         24    2    1    2    0    0  0.11831451415E+03 -0.19229004053E+04 -0.16418260815E+03  0.19351875341E+04  0.80315441878E+02 0.  0.
        254    2    1    2    0    0 -0.11831451415E+03  0.19229004053E+04  0.51666787216E+03  0.21914447552E+04  0.90771148066E+03 0.  0.
         23    2    4    4    0    0  0.25084970915E+03  0.16174068152E+04  0.35917881253E+03  0.16781740980E+04  0.91260623710E+02 0.  0.
         23    2    4    4    0    0 -0.36916422330E+03  0.30549359013E+03  0.15748905963E+03  0.51327065724E+03  0.95054754267E+02 0.  0.
          2    1    3    3  502    0  0.52688999478E+02 -0.13804085245E+04 -0.10102198572E+03  0.13851026196E+04  0.00000000000E+00 0. -1.
         -1    1    3    3    0  502  0.65625514668E+02 -0.54249188077E+03 -0.63160622426E+02  0.55008491445E+03  0.00000000000E+00 0.  1.
         11    1    5    5    0    0  0.10737002703E+03  0.75124106321E+03  0.12089968804E+03  0.76844530861E+03  0.00000000000E+00 0.  1.
        -11    1    5    5    0    0  0.14347968212E+03  0.86616575196E+03  0.23827912449E+03  0.90972878938E+03  0.00000000000E+00 0. -1.
          1    1    6    6  503    0 -0.21464572669E+02  0.57217762947E+02  0.15420221199E+02  0.63026847441E+02  0.00000000000E+00 0. -1.
         -1    1    6    6    0  503 -0.34769965063E+03  0.24827582718E+03  0.14206883844E+03  0.45024380980E+03  0.00000000000E+00 0.  1.
<mgrwt>
<rscale>  0 0.41115506E+04</rscale>
<asrwt>0</asrwt>
<pdfrwt beam="1">  1        4 0.34454751E+00 0.41115506E+04</pdfrwt>
<pdfrwt beam="2">  1       -3 0.29031900E+00 0.41115506E+04</pdfrwt>
<totfact> 0.12114841E-03</totfact>
</mgrwt>
</event>
<event>
12    6  0.1395358E-007  0.1084900E+04  0.7818608E-02  0.9220035E-01
         -1   -1    0    0    0  501 -0.00000000000E+00  0.00000000000E+00  0.58019914484E+03  0.58019914484E+03  0.00000000000E+00 0.  1.
          2   -1    0    0  501    0  0.00000000000E+00 -0.00000000000E+00 -0.50715733010E+03  0.50715733010E+03  0.00000000000E+00 0. -1.
         24    2    1    2    0    0 -0.11721811824E+03  0.88303312780E+02  0.59257492758E+02  0.17766370024E+03  0.80717889228E+02 0.  0.
        254    2    1    2    0    0  0.11721811824E+03 -0.88303312780E+02  0.13784321984E+02  0.90969277471E+03  0.89767108371E+03 0.  0.
         23    2    4    4    0    0  0.72698599454E+02 -0.47209815061E+03  0.11240972634E+03  0.49924372650E+03  0.91905395420E+02 0.  0.
         23    2    4    4    0    0  0.44519518789E+02  0.38379483783E+03 -0.98625404353E+02  0.41044904821E+03  0.97267598395E+02 0.  0.
          4    1    3    3  502    0 -0.11577489452E+03  0.46007154217E+02  0.37650584361E+02  0.13014626749E+03  0.00000000000E+00 0. -1.
         -3    1    3    3    0  502 -0.14432237235E+01  0.42296158563E+02  0.21606908397E+02  0.47517432742E+02  0.00000000000E+00 0.  1.
         11    1    5    5    0    0  0.48176773922E+02 -0.10560165780E+03  0.35112549267E+01  0.11612510747E+03  0.00000000000E+00 0.  1.
        -11    1    5    5    0    0  0.24521825532E+02 -0.36649649281E+03  0.10889847141E+03  0.38311861903E+03  0.00000000000E+00 0. -1.
          2    1    6    6  503    0  0.52539779369E+02  0.15096082936E+03 -0.66566172696E+01  0.15998097065E+03  0.00000000000E+00 0. -1.
         -2    1    6    6    0  503 -0.80202605799E+01  0.23283400847E+03 -0.91968787084E+02  0.25046807756E+03  0.00000000000E+00 0.  1.
<mgrwt>
<rscale>  0 0.10849005E+04</rscale>
<asrwt>0</asrwt>
<pdfrwt beam="1">  1        2 0.78024205E-01 0.10849005E+04</pdfrwt>
<pdfrwt beam="2">  1       -1 0.89261406E-01 0.10849005E+04</pdfrwt>
<totfact> 0.84718091E+01</totfact>
</mgrwt>
</event>
<event>
12    6  0.1395358E-007  0.2626598E+04  0.7818608E-02  0.8359222E-01
         -1   -1    0    0    0  501 -0.00000000000E+00  0.00000000000E+00  0.14929415348E+04  0.14929415348E+04  0.00000000000E+00 0.  1.
          2   -1    0    0  501    0  0.00000000000E+00 -0.00000000000E+00 -0.11552727230E+04  0.11552727230E+04  0.00000000000E+00 0. -1.
         24    2    1    2    0    0  0.30163200952E+02 -0.11393075908E+04 -0.51118934171E+02  0.11442510544E+04  0.88123349619E+02 0.  0.
        254    2    1    2    0    0 -0.30163200952E+02  0.11393075908E+04  0.38878774597E+03  0.15039632034E+04  0.90100932320E+03 0.  0.
         23    2    4    4    0    0 -0.39428205685E+02  0.11661964385E+04  0.69021011559E+02  0.11725410076E+04  0.92302751609E+02 0.  0.
         23    2    4    4    0    0  0.92650047326E+01 -0.26888847608E+02  0.31976673441E+03  0.33142219582E+03  0.82347173631E+02 0.  0.
          4    1    3    3  502    0  0.58001311195E+02 -0.65450634881E+03 -0.13744223580E+02  0.65721504580E+03  0.00000000000E+00 0. -1.
         -3    1    3    3    0  502 -0.27838110243E+02 -0.48480124203E+03 -0.37374710591E+02  0.48703600857E+03  0.00000000000E+00 0.  1.
         11    1    5    5    0    0  0.11213261483E+02  0.83093379521E+02  0.24451286898E+02  0.87339065625E+02  0.00000000000E+00 0.  1.
        -11    1    5    5    0    0 -0.50641467168E+02  0.10831030589E+04  0.44569724661E+02  0.10852019420E+04  0.00000000000E+00 0. -1.
          4    1    6    6  503    0 -0.10878720736E+02 -0.42166195553E+02  0.87034459499E+02  0.97320767324E+02  0.00000000000E+00 0.  1.
         -4    1    6    6    0  503  0.20143725469E+02  0.15277347945E+02  0.23273227491E+03  0.23410142849E+03  0.00000000000E+00 0. -1.
<mgrwt>
<rscale>  0 0.26265983E+04</rscale>
<asrwt>0</asrwt>
<pdfrwt beam="1">  1        2 0.17773426E+00 0.26265983E+04</pdfrwt>
<pdfrwt beam="2">  1       -1 0.22968331E+00 0.26265983E+04</pdfrwt>
<totfact> 0.19227485E+00</totfact>
</mgrwt>
</event>
<event>
12    6  0.1395358E-007  0.1285939E+04  0.7818608E-02  0.9040791E-01
         -3   -1    0    0    0  501 -0.00000000000E+00  0.00000000000E+00  0.24809485207E+03  0.24809485207E+03  0.00000000000E+00 0.  1.
          2   -1    0    0  501    0  0.00000000000E+00 -0.00000000000E+00 -0.16663372532E+04  0.16663372532E+04  0.00000000000E+00 0. -1.
         24    2    1    2    0    0  0.21134459638E+03 -0.89835349098E+02 -0.70313954111E+03  0.74386359365E+03  0.78682293530E+02 0.  0.
        254    2    1    2    0    0 -0.21134459638E+03  0.89835349098E+02 -0.71510285999E+03  0.11705685116E+04  0.89784275438E+03 0.  0.
         23    2    4    4    0    0 -0.40892995646E+03  0.30410136619E+03 -0.16864794555E+03  0.54476561807E+03  0.92876794108E+02 0.  0.
         23    2    4    4    0    0  0.19758536008E+03 -0.21426601709E+03 -0.54645491444E+03  0.62580289352E+03  0.89813069347E+02 0.  0.
          2    1    3    3  502    0  0.19743512319E+03 -0.62111421553E+02 -0.55092453982E+03  0.58852043731E+03  0.00000000000E+00 0. -1.
         -1    1    3    3    0  502  0.13909473189E+02 -0.27723927544E+02 -0.15221500129E+03  0.15534315634E+03  0.00000000000E+00 0.  1.
         11    1    5    5    0    0 -0.11439672696E+03  0.10387287522E+03 -0.98891520599E+01  0.15483533406E+03  0.00000000000E+00 0. -1.
        -11    1    5    5    0    0 -0.29453322951E+03  0.20022849097E+03 -0.15875879349E+03  0.38993028401E+03  0.00000000000E+00 0.  1.
          3    1    6    6  503    0  0.14685707395E+03 -0.20502892416E+03 -0.43114609761E+03  0.49949055786E+03  0.00000000000E+00 0. -1.
         -3    1    6    6    0  503  0.50728286140E+02 -0.92370929248E+01 -0.11530881683E+03  0.12631233566E+03  0.00000000000E+00 0.  1.
<mgrwt>
<rscale>  0 0.12859389E+04</rscale>
<asrwt>0</asrwt>
<pdfrwt beam="1">  1        2 0.25635956E+00 0.12859389E+04</pdfrwt>
<pdfrwt beam="2">  1       -3 0.38168441E-01 0.12859389E+04</pdfrwt>
<totfact> 0.44042848E+01</totfact>
</mgrwt>
</event>
<event>
12    6  0.1395358E-007  0.1747007E+04  0.7818608E-02  0.8735000E-01
         -1   -1    0    0    0  501 -0.00000000000E+00  0.00000000000E+00  0.53053973795E+03  0.53053973795E+03  0.00000000000E+00 0.  1.
          2   -1    0    0  501    0  0.00000000000E+00 -0.00000000000E+00 -0.14381734387E+04  0.14381734387E+04  0.00000000000E+00 0. -1.
         24    2    1    2    0    0 -0.20750023639E+02 -0.45641998481E+03  0.16853266657E+03  0.49307433549E+03  0.77261080806E+02 0.  0.
        254    2    1    2    0    0  0.20750023639E+02  0.45641998481E+03 -0.10761663673E+04  0.14756388412E+04  0.90034780691E+03 0.  0.
         23    2    4    4    0    0  0.34330456170E+03  0.48572899402E+02 -0.80880453884E+03  0.88470638384E+03  0.91231874475E+02 0.  0.
         23    2    4    4    0    0 -0.32255453806E+03  0.40784708541E+03 -0.26736182851E+03  0.59093245735E+03  0.85662983313E+02 0.  0.
          2    1    3    3  502    0 -0.40928407614E+02 -0.39577853153E+03  0.13070148238E+03  0.41880622973E+03  0.00000000000E+00 0. -1.
         -1    1    3    3    0  502  0.20178383974E+02 -0.60641453282E+02  0.37831184189E+02  0.74268105760E+02  0.00000000000E+00 0.  1.
         11    1    5    5    0    0  0.21285193864E+03  0.59497661814E+02 -0.58596814552E+03  0.62626239478E+03  0.00000000000E+00 0. -1.
        -11    1    5    5    0    0  0.13045262306E+03 -0.10924762412E+02 -0.22283639332E+03  0.25844398906E+03  0.00000000000E+00 0.  1.
          1    1    6    6  503    0 -0.16365989571E+02  0.22908763884E+02  0.51529265141E+01  0.28621840070E+02  0.00000000000E+00 0. -1.
         -1    1    6    6    0  503 -0.30618854849E+03  0.38493832152E+03 -0.27251475502E+03  0.56231061728E+03  0.00000000000E+00 0.  1.
<mgrwt>
<rscale>  0 0.17470068E+04</rscale>
<asrwt>0</asrwt>
<pdfrwt beam="1">  1        2 0.22125745E+00 0.17470068E+04</pdfrwt>
<pdfrwt beam="2">  1       -1 0.81621499E-01 0.17470068E+04</pdfrwt>
<totfact> 0.22219192E+01</totfact>
</mgrwt>
</event>
<event>
12    6  0.1395358E-007  0.2621460E+04  0.7818608E-02  0.8360948E-01
         -1   -1    0    0    0  501 -0.00000000000E+00  0.00000000000E+00  0.69909953734E+03  0.69909953734E+03  0.00000000000E+00 0.  1.
          2   -1    0    0  501    0  0.00000000000E+00 -0.00000000000E+00 -0.24574647880E+04  0.24574647880E+04  0.00000000000E+00 0. -1.
         24    2    1    2    0    0  0.73105224004E+03  0.73777456775E+03 -0.16848142040E+03  0.10551998520E+04  0.79448399439E+02 0.  0.
        254    2    1    2    0    0 -0.73105224004E+03 -0.73777456775E+03 -0.15898838302E+04  0.21013644733E+04  0.89958510746E+03 0.  0.
         23    2    4    4    0    0 -0.55364108267E+03 -0.78487342071E+03 -0.71149361789E+03  0.11991797492E+04  0.96250546257E+02 0.  0.
         23    2    4    4    0    0 -0.17741115736E+03  0.47098852962E+02 -0.87839021236E+03  0.90218472411E+03  0.93139092435E+02 0.  0.
          4    1    3    3  502    0  0.53189687261E+03  0.48519471244E+03 -0.12173581410E+03  0.73016970665E+03  0.00000000000E+00 0. -1.
         -3    1    3    3    0  502  0.19915536742E+03  0.25257985531E+03 -0.46745606298E+02  0.32503014536E+03  0.00000000000E+00 0.  1.
         11    1    5    5    0    0 -0.33972476957E+03 -0.53539349778E+03 -0.42639915930E+03  0.76411737290E+03  0.00000000000E+00 0. -1.
        -11    1    5    5    0    0 -0.21391631310E+03 -0.24947992293E+03 -0.28509445859E+03  0.43506237630E+03  0.00000000000E+00 0.  1.
          3    1    6    6  503    0 -0.16631671318E+03  0.36166050926E+02 -0.60878814894E+03  0.63213308932E+03  0.00000000000E+00 0. -1.
         -3    1    6    6    0  503 -0.11094444180E+02  0.10932802036E+02 -0.26960206343E+03  0.27005163480E+03  0.00000000000E+00 0.  1.
<mgrwt>
<rscale>  0 0.26214595E+04</rscale>
<asrwt>0</asrwt>
<pdfrwt beam="1">  1        2 0.37807151E+00 0.26214595E+04</pdfrwt>
<pdfrwt beam="2">  1       -1 0.10755377E+00 0.26214595E+04</pdfrwt>
<totfact> 0.29763866E+00</totfact>
</mgrwt>
</event>
<event>
12    6  0.1395358E-007  0.1280552E+04  0.7818608E-02  0.9045131E-01
          2   -1    0    0  501    0  0.00000000000E+00  0.00000000000E+00  0.32950047351E+04  0.32950047351E+04  0.00000000000E+00 0. -1.
         -1   -1    0    0    0  501 -0.00000000000E+00 -0.00000000000E+00 -0.12441663517E+03  0.12441663517E+03  0.00000000000E+00 0.  1.
         24    2    1    2    0    0  0.61687278929E+02  0.16577100060E+03  0.10871234471E+03  0.22263433163E+03  0.80388598111E+02 0.  0.
        254    2    1    2    0    0 -0.61687278929E+02 -0.16577100060E+03  0.30618757553E+04  0.31967870387E+04  0.90170886929E+03 0.  0.
         23    2    4    4    0    0  0.35290426816E+03  0.14365122087E+03  0.12268649892E+04  0.12880152896E+04  0.92782480950E+02 0.  0.
         23    2    4    4    0    0 -0.41459154709E+03 -0.30942222147E+03  0.18350107660E+04  0.19087717491E+04  0.92286599509E+02 0.  0.
          4    1    3    3  502    0  0.72433361749E+02  0.15957505151E+03  0.11409389073E+03  0.20911289980E+03  0.00000000000E+00 0. -1.
         -3    1    3    3    0  502 -0.10746082820E+02  0.61959490909E+01 -0.53815460282E+01  0.13521431831E+02  0.00000000000E+00 0.  1.
         11    1    5    5    0    0  0.19949644362E+03  0.10161238198E+03  0.84927600608E+03  0.87829018080E+03  0.00000000000E+00 0.  1.
        -11    1    5    5    0    0  0.15340782454E+03  0.42038838887E+02  0.37758898314E+03  0.40972510882E+03  0.00000000000E+00 0. -1.
          2    1    6    6  503    0 -0.47563177794E+02 -0.77482445803E+02  0.34705246060E+03  0.35876342581E+03  0.00000000000E+00 0. -1.
         -2    1    6    6    0  503 -0.36702836929E+03 -0.23193977567E+03  0.14879583054E+04  0.15500083233E+04  0.00000000000E+00 0.  1.
<mgrwt>
<rscale>  0 0.12805521E+04</rscale>
<asrwt>0</asrwt>
<pdfrwt beam="1">  1        2 0.50692374E+00 0.12805521E+04</pdfrwt>
<pdfrwt beam="2">  1       -1 0.19141023E-01 0.12805521E+04</pdfrwt>
<totfact> 0.28102686E+01</totfact>
</mgrwt>
</event>
<event>
12    6  0.1395358E-007  0.2157478E+04  0.7818608E-02  0.8536338E-01
          2   -1    0    0  501    0  0.00000000000E+00  0.00000000000E+00  0.37141821559E+04  0.37141821559E+04  0.00000000000E+00 0. -1.
         -1   -1    0    0    0  501 -0.00000000000E+00 -0.00000000000E+00 -0.31330656200E+03  0.31330656200E+03  0.00000000000E+00 0.  1.
         24    2    1    2    0    0  0.48718358712E+03  0.74216590358E+03  0.14124862539E+04  0.16710967410E+04  0.96378545876E+02 0.  0.
        254    2    1    2    0    0 -0.48718358712E+03 -0.74216590358E+03  0.19883893400E+04  0.23563919770E+04  0.90040707779E+03 0.  0.
         23    2    4    4    0    0 -0.68784496979E+03 -0.77498874507E+03  0.15956290899E+04  0.19047165023E+04  0.90412965257E+02 0.  0.
         23    2    4    4    0    0  0.20066138267E+03  0.32822841486E+02  0.39276025011E+03  0.45167547465E+03  0.91694006966E+02 0.  0.
          2    1    3    3  502    0  0.24477916938E+03  0.32083596852E+03  0.71335797112E+03  0.81959267653E+03  0.00000000000E+00 0. -1.
         -1    1    3    3    0  502  0.24240441773E+03  0.42132993506E+03  0.69912828283E+03  0.85150406444E+03  0.00000000000E+00 0.  1.
         11    1    5    5    0    0 -0.35322756009E+03 -0.43021704679E+03  0.78341921617E+03  0.96104218681E+03  0.00000000000E+00 0. -1.
        -11    1    5    5    0    0 -0.33461740970E+03 -0.34477169828E+03  0.81220987369E+03  0.94367431550E+03  0.00000000000E+00 0.  1.
          1    1    6    6  503    0 -0.48886683108E+01  0.11214837813E+02  0.49543515953E+02  0.51031672890E+02  0.00000000000E+00 0. -1.
         -1    1    6    6    0  503  0.20555005098E+03  0.21608003673E+02  0.34321673415E+03  0.40064380176E+03  0.00000000000E+00 0.  1.
<mgrwt>
<rscale>  0 0.21574778E+04</rscale>
<asrwt>0</asrwt>
<pdfrwt beam="1">  1        2 0.57141261E+00 0.21574778E+04</pdfrwt>
<pdfrwt beam="2">  1       -1 0.48201012E-01 0.21574778E+04</pdfrwt>
<totfact> 0.25730342E+00</totfact>
</mgrwt>
</event>
<event>
12    6  0.1395358E-007  0.2546582E+04  0.7818608E-02  0.8386576E-01
          2   -1    0    0  501    0  0.00000000000E+00  0.00000000000E+00  0.40897726010E+04  0.40897726010E+04  0.00000000000E+00 0. -1.
         -1   -1    0    0    0  501 -0.00000000000E+00 -0.00000000000E+00 -0.39642048836E+03  0.39642048836E+03  0.00000000000E+00 0.  1.
         24    2    1    2    0    0  0.41100518981E+03 -0.10038662615E+04  0.20547270757E+04  0.23249049309E+04  0.81282500205E+02 0.  0.
        254    2    1    2    0    0 -0.41100518981E+03  0.10038662615E+04  0.16386250370E+04  0.21612881585E+04  0.89966758045E+03 0.  0.
         23    2    4    4    0    0  0.23165191845E+03  0.57687305560E+02  0.22455080260E+03  0.34042024347E+03  0.92045872667E+02 0.  0.
         23    2    4    4    0    0 -0.64265710826E+03  0.94617895597E+03  0.14140742344E+04  0.18208679150E+04  0.87699761892E+02 0.  0.
          2    1    3    3  502    0  0.37917165124E+03 -0.87015784227E+03  0.18289087959E+04  0.20605468195E+04  0.00000000000E+00 0. -1.
         -1    1    3    3    0  502  0.31833538568E+02 -0.13370841926E+03  0.22581827981E+03  0.26435811139E+03  0.00000000000E+00 0.  1.
         11    1    5    5    0    0  0.15510072058E+02  0.34497719207E+02  0.25038548403E+02  0.45360598231E+02  0.00000000000E+00 0.  1.
        -11    1    5    5    0    0  0.21614184639E+03  0.23189586353E+02  0.19951225420E+03  0.29505964524E+03  0.00000000000E+00 0. -1.
          2    1    6    6  503    0 -0.28791361603E+02  0.82220274029E+02  0.11655986492E+03  0.14551741502E+03  0.00000000000E+00 0. -1.
         -2    1    6    6    0  503 -0.61386574666E+03  0.86395868194E+03  0.12975143694E+04  0.16753505000E+04  0.00000000000E+00 0.  1.
<mgrwt>
<rscale>  0 0.25465817E+04</rscale>
<asrwt>0</asrwt>
<pdfrwt beam="1">  1        2 0.62919576E+00 0.25465817E+04</pdfrwt>
<pdfrwt beam="2">  1       -1 0.60987770E-01 0.25465817E+04</pdfrwt>
<totfact> 0.79779834E-01</totfact>
</mgrwt>
</event>
<event>
12    6  0.1395358E-007  0.1097758E+04  0.7818608E-02  0.9207380E-01
          2   -1    0    0  501    0  0.00000000000E+00  0.00000000000E+00  0.28408813229E+03  0.28408813229E+03  0.00000000000E+00 0. -1.
         -1   -1    0    0    0  501 -0.00000000000E+00 -0.00000000000E+00 -0.10604738818E+04  0.10604738818E+04  0.00000000000E+00 0.  1.
         24    2    1    2    0    0  0.13491293186E+03 -0.41799436726E+02 -0.22926920907E+03  0.28066934557E+03  0.79134184921E+02 0.  0.
        254    2    1    2    0    0 -0.13491293186E+03  0.41799436726E+02 -0.54711654043E+03  0.10638926685E+04  0.90143353010E+03 0.  0.
         23    2    4    4    0    0 -0.24041531112E+03  0.39270689002E+03 -0.49587171521E+03  0.68274422487E+03  0.90734201640E+02 0.  0.
         23    2    4    4    0    0  0.10550237926E+03 -0.35090745330E+03 -0.51244825214E+02  0.38114844364E+03  0.91549501172E+02 0.  0.
          4    1    3    3  502    0  0.31450545901E+02 -0.33165550338E+02 -0.26415544051E+02  0.52790828126E+02  0.00000000000E+00 0. -1.
         -1    1    3    3    0  502  0.10346238596E+03 -0.86338863883E+01 -0.20285366502E+03  0.22787851745E+03  0.00000000000E+00 0.  1.
         11    1    5    5    0    0 -0.28178167783E+02  0.71424898075E+01 -0.34573918099E+02  0.45170566888E+02  0.00000000000E+00 0. -1.
        -11    1    5    5    0    0 -0.21223714334E+03  0.38556440022E+03 -0.46129779711E+03  0.63757365798E+03  0.00000000000E+00 0.  1.
          1    1    6    6  503    0  0.38771047867E+02 -0.27845883980E+02 -0.89539888426E+01  0.48567080657E+02  0.00000000000E+00 0. -1.
         -1    1    6    6    0  503  0.66731331395E+02 -0.32306156932E+03 -0.42290836372E+02  0.33258136298E+03  0.00000000000E+00 0.  1.
<mgrwt>
<rscale>  0 0.10977578E+04</rscale>
<asrwt>0</asrwt>
<pdfrwt beam="1">  1        2 0.43705866E-01 0.10977578E+04</pdfrwt>
<pdfrwt beam="2">  1       -1 0.16314983E+00 0.10977578E+04</pdfrwt>
<totfact> 0.36747638E+01</totfact>
</mgrwt>
</event>
<event>
12    6  0.1395358E-007  0.1953233E+04  0.7818608E-02  0.8628803E-01
         -3   -1    0    0    0  501 -0.00000000000E+00  0.00000000000E+00  0.71977690971E+03  0.71977690971E+03  0.00000000000E+00 0.  1.
          2   -1    0    0  501    0  0.00000000000E+00 -0.00000000000E+00 -0.13251053758E+04  0.13251053758E+04  0.00000000000E+00 0. -1.
         24    2    1    2    0    0 -0.10571701961E+03 -0.72373539776E+03 -0.48303125266E+03  0.88058291336E+03  0.84487052639E+02 0.  0.
        254    2    1    2    0    0  0.10571701961E+03  0.72373539776E+03 -0.12229721342E+03  0.11642993721E+04  0.89758977563E+03 0.  0.
         23    2    4    4    0    0  0.12883603729E+02 -0.56169572316E+02 -0.33029480962E+03  0.34702658919E+03  0.89508570766E+02 0.  0.
         23    2    4    4    0    0  0.92833415877E+02  0.77990497007E+03  0.20799759620E+03  0.81727278294E+03  0.88328909498E+02 0.  0.
          2    1    3    3  502    0 -0.26929331716E+02 -0.26629937212E+03 -0.22402624240E+03  0.34903911211E+03  0.00000000000E+00 0. -1.
         -1    1    3    3    0  502 -0.78787687889E+02 -0.45743602564E+03 -0.25900501026E+03  0.53154380126E+03  0.00000000000E+00 0.  1.
         11    1    5    5    0    0  0.13613653788E+02 -0.62975421567E+02 -0.11655908273E+03  0.13318128644E+03  0.00000000000E+00 0.  1.
        -11    1    5    5    0    0 -0.73005005932E+00  0.68058492516E+01 -0.21373572689E+03  0.21384530274E+03  0.00000000000E+00 0. -1.
          3    1    6    6  503    0  0.26587125405E+00  0.12531401538E+03  0.63822578935E+02  0.14063070333E+03  0.00000000000E+00 0. -1.
         -3    1    6    6    0  503  0.92567544623E+02  0.65459095470E+03  0.14417501727E+03  0.67664207961E+03  0.00000000000E+00 0.  1.
<mgrwt>
<rscale>  0 0.19532335E+04</rscale>
<asrwt>0</asrwt>
<pdfrwt beam="1">  1        2 0.20386236E+00 0.19532335E+04</pdfrwt>
<pdfrwt beam="2">  1       -3 0.11073491E+00 0.19532335E+04</pdfrwt>
<totfact> 0.64957817E+00</totfact>
</mgrwt>
</event>
<event>
12    6  0.1395358E-007  0.1628035E+04  0.7818608E-02  0.8803508E-01
          2   -1    0    0  501    0  0.00000000000E+00  0.00000000000E+00  0.10343348078E+04  0.10343348078E+04  0.00000000000E+00 0. -1.
         -3   -1    0    0    0  501 -0.00000000000E+00 -0.00000000000E+00 -0.64062880678E+03  0.64062880678E+03  0.00000000000E+00 0.  1.
         24    2    1    2    0    0  0.40671306583E+03 -0.46053319264E+02  0.53171860412E+03  0.67578143937E+03  0.80121493348E+02 0.  0.
        254    2    1    2    0    0 -0.40671306583E+03  0.46053319264E+02 -0.13801260305E+03  0.99918217525E+03  0.90098896475E+03 0.  0.
         23    2    4    4    0    0 -0.59906271403E+02  0.32733352448E+02  0.36433269687E+03  0.38164356894E+03  0.90847487537E+02 0.  0.
         23    2    4    4    0    0 -0.34680679443E+03  0.13319966816E+02 -0.50234529992E+03  0.61753860631E+03  0.92470296602E+02 0.  0.
          2    1    3    3  502    0  0.34310438111E+03 -0.36451562775E+02  0.48932680804E+03  0.59874039269E+03  0.00000000000E+00 0. -1.
         -1    1    3    3    0  502  0.63608684718E+02 -0.96017564898E+01  0.42391796082E+02  0.77041046685E+02  0.00000000000E+00 0.  1.
         11    1    5    5    0    0 -0.97867093588E+01  0.44079172606E+02  0.73165087198E+02  0.85976061334E+02  0.00000000000E+00 0.  1.
        -11    1    5    5    0    0 -0.50119562044E+02 -0.11345820158E+02  0.29116760967E+03  0.29566750761E+03  0.00000000000E+00 0. -1.
          1    1    6    6  503    0 -0.15069202522E+03  0.47261368429E+02 -0.25658537385E+03  0.30129350721E+03  0.00000000000E+00 0. -1.
         -1    1    6    6    0  503 -0.19611476921E+03 -0.33941401613E+02 -0.24575992607E+03  0.31624509910E+03  0.00000000000E+00 0.  1.
<mgrwt>
<rscale>  0 0.16280352E+04</rscale>
<asrwt>0</asrwt>
<pdfrwt beam="1">  1        2 0.15912843E+00 0.16280352E+04</pdfrwt>
<pdfrwt beam="2">  1       -3 0.98558278E-01 0.16280352E+04</pdfrwt>
<totfact> 0.13137911E+01</totfact>
</mgrwt>
</event>
<event>
12    6  0.1395358E-007  0.2242567E+04  0.7818608E-02  0.8500917E-01
         -1   -1    0    0    0  501 -0.00000000000E+00  0.00000000000E+00  0.19279247807E+04  0.19279247807E+04  0.00000000000E+00 0.  1.
          2   -1    0    0  501    0  0.00000000000E+00 -0.00000000000E+00 -0.65213972517E+03  0.65213972517E+03  0.00000000000E+00 0. -1.
         24    2    1    2    0    0  0.17544911964E+02  0.53448712806E+03  0.14234413926E+04  0.15226497275E+04  0.79325157881E+02 0.  0.
        254    2    1    2    0    0 -0.17544911964E+02 -0.53448712806E+03 -0.14765633706E+03  0.10574147783E+04  0.90018848334E+03 0.  0.
         23    2    4    4    0    0  0.26725415558E+03  0.13057450075E+03  0.84588101363E+01  0.31143408932E+03  0.91897533167E+02 0.  0.
         23    2    4    4    0    0 -0.28479906754E+03 -0.66506162881E+03 -0.15611514719E+03  0.74598068900E+03  0.93261836731E+02 0.  0.
          4    1    3    3  502    0  0.28913659236E+02  0.22706194542E+03  0.51631078591E+03  0.56477425082E+03  0.00000000000E+00 0. -1.
         -3    1    3    3    0  502 -0.11368747272E+02  0.30742518264E+03  0.90713060668E+03  0.95787547673E+03  0.00000000000E+00 0.  1.
         11    1    5    5    0    0  0.24001925436E+03  0.98437876070E+02  0.34810207583E+02  0.26174607630E+03  0.00000000000E+00 0. -1.
        -11    1    5    5    0    0  0.27234901218E+02  0.32136624677E+02 -0.26351397447E+02  0.49688013015E+02  0.00000000000E+00 0.  1.
          1    1    6    6  503    0 -0.23190780256E+03 -0.49362188030E+03 -0.15340056785E+03  0.56654701818E+03  0.00000000000E+00 0. -1.
         -1    1    6    6    0  503 -0.52891264980E+02 -0.17143974851E+03 -0.27145793421E+01  0.17943367082E+03  0.00000000000E+00 0.  1.
<mgrwt>
<rscale>  0 0.22425667E+04</rscale>
<asrwt>0</asrwt>
<pdfrwt beam="1">  1        2 0.10032919E+00 0.22425667E+04</pdfrwt>
<pdfrwt beam="2">  1       -1 0.29660381E+00 0.22425667E+04</pdfrwt>
<totfact> 0.16178086E+00</totfact>
</mgrwt>
</event>
<event>
12    6  0.1395358E-007  0.4259021E+04  0.7818608E-02  0.7954239E-01
          2   -1    0    0  501    0  0.00000000000E+00  0.00000000000E+00  0.33036434404E+04  0.33036434404E+04  0.00000000000E+00 0. -1.
         -1   -1    0    0    0  501 -0.00000000000E+00 -0.00000000000E+00 -0.13726705543E+04  0.13726705543E+04  0.00000000000E+00 0.  1.
         24    2    1    2    0    0  0.10374979512E+04 -0.15467650776E+04  0.25122614797E+02  0.18636520031E+04  0.60691340652E+02 0.  0.
        254    2    1    2    0    0 -0.10374979512E+04  0.15467650776E+04  0.19058502713E+04  0.28126619917E+04  0.89995445378E+03 0.  0.
         23    2    4    4    0    0 -0.33476681362E+03  0.11133175626E+04  0.14644887983E+04  0.18719824305E+04  0.89699302298E+02 0.  0.
         23    2    4    4    0    0 -0.70273113760E+03  0.43344751494E+03  0.44136147293E+03  0.94067956118E+03  0.91489272992E+02 0.  0.
          2    1    3    3  502    0  0.68125853742E+03 -0.96752366085E+03  0.43518046231E+01  0.11833149062E+04  0.00000000000E+00 0. -1.
         -1    1    3    3    0  502  0.35623941380E+03 -0.57924141671E+03  0.20770810174E+02  0.68033709684E+03  0.00000000000E+00 0.  1.
         11    1    5    5    0    0 -0.84123773287E+02  0.38264475037E+03  0.54220648439E+03  0.66894071930E+03  0.00000000000E+00 0.  1.
        -11    1    5    5    0    0 -0.25064304034E+03  0.73067281225E+03  0.92228231393E+03  0.12030417112E+04  0.00000000000E+00 0. -1.
          1    1    6    6  503    0 -0.37333119627E+03  0.20885078586E+03  0.27584415623E+03  0.50900376363E+03  0.00000000000E+00 0. -1.
         -1    1    6    6    0  503 -0.32939994133E+03  0.22459672909E+03  0.16551731670E+03  0.43167579755E+03  0.00000000000E+00 0.  1.
<mgrwt>
<rscale>  0 0.42590206E+04</rscale>
<asrwt>0</asrwt>
<pdfrwt beam="1">  1        2 0.50825283E+00 0.42590206E+04</pdfrwt>
<pdfrwt beam="2">  1       -1 0.21118009E+00 0.42590206E+04</pdfrwt>
<totfact> 0.12245862E-01</totfact>
</mgrwt>
</event>
<event>
12    6  0.1395358E-007  0.1542239E+04  0.7818608E-02  0.8856841E-01
          2   -1    0    0  501    0  0.00000000000E+00  0.00000000000E+00  0.33132056218E+04  0.33132056218E+04  0.00000000000E+00 0. -1.
         -1   -1    0    0    0  501 -0.00000000000E+00 -0.00000000000E+00 -0.17947118797E+03  0.17947118797E+03  0.00000000000E+00 0.  1.
         24    2    1    2    0    0  0.38902857203E+03 -0.27570884286E+03  0.14093624580E+04  0.14899104184E+04  0.78561574829E+02 0.  0.
        254    2    1    2    0    0 -0.38902857203E+03  0.27570884286E+03  0.17243719758E+04  0.20027663913E+04  0.90014216174E+03 0.  0.
         23    2    4    4    0    0 -0.32113301738E+03  0.76376116070E+02  0.92119645022E+02  0.35448986516E+03  0.90649376975E+02 0.  0.
         23    2    4    4    0    0 -0.67895554648E+02  0.19933272679E+03  0.16322523308E+04  0.16482765261E+04  0.90688990572E+02 0.  0.
          4    1    3    3  502    0  0.11442621719E+03 -0.75432536136E+02  0.52177763624E+03  0.53947690254E+03  0.00000000000E+00 0. -1.
         -3    1    3    3    0  502  0.27460235484E+03 -0.20027630672E+03  0.88758482176E+03  0.95043351589E+03  0.00000000000E+00 0.  1.
         11    1    5    5    0    0 -0.40174261616E+02  0.31675010122E+02  0.40730935557E+02  0.65393322854E+02  0.00000000000E+00 0.  1.
        -11    1    5    5    0    0 -0.28095875577E+03  0.44701105948E+02  0.51388709466E+02  0.28909654231E+03  0.00000000000E+00 0. -1.
          4    1    6    6  503    0 -0.51300826092E+02  0.53602034951E+02  0.35779153925E+03  0.36540352826E+03  0.00000000000E+00 0.  1.
         -4    1    6    6    0  503 -0.16594728557E+02  0.14573069184E+03  0.12744607915E+04  0.12828729979E+04  0.00000000000E+00 0. -1.
<mgrwt>
<rscale>  0 0.15422386E+04</rscale>
<asrwt>0</asrwt>
<pdfrwt beam="1">  1        2 0.50972390E+00 0.15422386E+04</pdfrwt>
<pdfrwt beam="2">  1       -1 0.27610955E-01 0.15422386E+04</pdfrwt>
<totfact> 0.14269922E+01</totfact>
</mgrwt>
</event>
<event>
12    6  0.1395358E-007  0.1580312E+04  0.7818608E-02  0.8832735E-01
         -1   -1    0    0    0  501 -0.00000000000E+00  0.00000000000E+00  0.72633095953E+03  0.72633095953E+03  0.00000000000E+00 0.  1.
          2   -1    0    0  501    0  0.00000000000E+00 -0.00000000000E+00 -0.85958905644E+03  0.85958905644E+03  0.00000000000E+00 0. -1.
         24    2    1    2    0    0  0.36961129921E+03 -0.93237901491E+02  0.32405975074E+03  0.50647450169E+03  0.78713912580E+02 0.  0.
        254    2    1    2    0    0 -0.36961129921E+03  0.93237901491E+02 -0.45731784765E+03  0.10794455143E+04  0.90042056048E+03 0.  0.
         23    2    4    4    0    0 -0.29367744695E+03  0.32060643753E+03 -0.62920959949E+03  0.77054163014E+03  0.93780344668E+02 0.  0.
         23    2    4    4    0    0 -0.75933852262E+02 -0.22736853604E+03  0.17189175184E+03  0.30890388414E+03  0.91719322860E+02 0.  0.
          2    1    3    3  502    0  0.29097233991E+03 -0.44783402540E+02  0.22127514868E+03  0.36828405770E+03  0.00000000000E+00 0. -1.
         -3    1    3    3    0  502  0.78638959307E+02 -0.48454498951E+02  0.10278460206E+03  0.13819044399E+03  0.00000000000E+00 0.  1.
         11    1    5    5    0    0 -0.10838134335E+03  0.10556631129E+03 -0.29895244929E+03  0.33505720198E+03  0.00000000000E+00 0. -1.
        -11    1    5    5    0    0 -0.18529610360E+03  0.21504012624E+03 -0.33025715021E+03  0.43548442815E+03  0.00000000000E+00 0.  1.
          4    1    6    6  503    0 -0.17179699504E+02 -0.19668884080E+02 -0.86420002544E+01  0.27508021456E+02  0.00000000000E+00 0. -1.
         -4    1    6    6    0  503 -0.58754152758E+02 -0.20769965196E+03  0.18053375210E+03  0.28139586268E+03  0.00000000000E+00 0.  1.
<mgrwt>
<rscale>  0 0.15803115E+04</rscale>
<asrwt>0</asrwt>
<pdfrwt beam="1">  1        2 0.13224447E+00 0.15803115E+04</pdfrwt>
<pdfrwt beam="2">  1       -1 0.11174323E+00 0.15803115E+04</pdfrwt>
<totfact> 0.25196249E+01</totfact>
</mgrwt>
</event>
<event>
12    6  0.1395358E-007  0.1745824E+04  0.7818608E-02  0.8735652E-01
          2   -1    0    0  501    0  0.00000000000E+00  0.00000000000E+00  0.22589350273E+04  0.22589350273E+04  0.00000000000E+00 0. -1.
         -1   -1    0    0    0  501 -0.00000000000E+00 -0.00000000000E+00 -0.33731625768E+03  0.33731625768E+03  0.00000000000E+00 0.  1.
         24    2    1    2    0    0 -0.44060416051E+03  0.39610396350E+03  0.99239788143E+03  0.11586730604E+04  0.81482081874E+02 0.  0.
        254    2    1    2    0    0  0.44060416051E+03 -0.39610396350E+03  0.92922088817E+03  0.14375782246E+04  0.92311934037E+03 0.  0.
         23    2    4    4    0    0  0.64285970335E+03 -0.32598695915E+03  0.33682989391E+03  0.80092096971E+03  0.92108232814E+02 0.  0.
         23    2    4    4    0    0 -0.20225554284E+03 -0.70117004351E+02  0.59239099426E+03  0.63665725486E+03  0.92637309855E+02 0.  0.
          4    1    3    3  502    0 -0.23289375394E+03  0.26002816868E+03  0.60660883954E+03  0.69987744166E+03  0.00000000000E+00 0. -1.
         -1    1    3    3    0  502 -0.20771040658E+03  0.13607579482E+03  0.38578904189E+03  0.45879561874E+03  0.00000000000E+00 0.  1.
         11    1    5    5    0    0  0.13250624586E+03 -0.27227054335E+02  0.61488298657E+02  0.14859350104E+03  0.00000000000E+00 0. -1.
        -11    1    5    5    0    0  0.51035345750E+03 -0.29875990481E+03  0.27534159526E+03  0.65232746867E+03  0.00000000000E+00 0.  1.
          2    1    6    6  503    0 -0.71606737230E+02  0.11774310107E+02  0.26527587905E+03  0.27502263762E+03  0.00000000000E+00 0.  1.
         -2    1    6    6    0  503 -0.13064880561E+03 -0.81891314458E+02  0.32711511521E+03  0.36163461725E+03  0.00000000000E+00 0. -1.
<mgrwt>
<rscale>  0 0.17458242E+04</rscale>
<asrwt>0</asrwt>
<pdfrwt beam="1">  1        2 0.34752846E+00 0.17458242E+04</pdfrwt>
<pdfrwt beam="2">  1       -1 0.51894810E-01 0.17458242E+04</pdfrwt>
<totfact> 0.19315671E+01</totfact>
</mgrwt>
</event>
<event>
12    6  0.1395358E-007  0.3030359E+04  0.7818608E-02  0.8235114E-01
          2   -1    0    0  501    0  0.00000000000E+00  0.00000000000E+00  0.13416166068E+04  0.13416166068E+04  0.00000000000E+00 0. -1.
         -1   -1    0    0    0  501 -0.00000000000E+00 -0.00000000000E+00 -0.17111958669E+04  0.17111958669E+04  0.00000000000E+00 0.  1.
         24    2    1    2    0    0  0.67226795328E+03  0.84025346540E+03 -0.10392436559E+04  0.14982105811E+04  0.81470742086E+02 0.  0.
        254    2    1    2    0    0 -0.67226795328E+03 -0.84025346540E+03  0.66966439578E+03  0.15546018926E+04  0.90020361830E+03 0.  0.
         23    2    4    4    0    0 -0.23841563138E+03 -0.84147736824E+03  0.67918337252E+03  0.11110701305E+04  0.90887880828E+02 0.  0.
         23    2    4    4    0    0 -0.43385232190E+03  0.12239028328E+01 -0.95189767442E+01  0.44353176209E+03  0.91654121081E+02 0.  0.
          4    1    3    3  502    0  0.40115174593E+03  0.53430447966E+03 -0.59735061725E+03  0.89623197900E+03  0.00000000000E+00 0. -1.
         -3    1    3    3    0  502  0.27111620735E+03  0.30594898574E+03 -0.44189303863E+03  0.60197860207E+03  0.00000000000E+00 0.  1.
         11    1    5    5    0    0 -0.13225406619E+03 -0.58263740004E+03  0.42633233607E+03  0.73397325478E+03  0.00000000000E+00 0.  1.
        -11    1    5    5    0    0 -0.10616156519E+03 -0.25883996820E+03  0.25285103645E+03  0.37709687574E+03  0.00000000000E+00 0. -1.
          2    1    6    6  503    0 -0.40249890779E+03 -0.19931757254E+02 -0.22296745092E+02  0.40360846195E+03  0.00000000000E+00 0. -1.
         -2    1    6    6    0  503 -0.31353414109E+02  0.21155660086E+02  0.12777768347E+02  0.39923300138E+02  0.00000000000E+00 0.  1.
<mgrwt>
<rscale>  0 0.30303589E+04</rscale>
<asrwt>0</asrwt>
<pdfrwt beam="1">  1        2 0.20640256E+00 0.30303589E+04</pdfrwt>
<pdfrwt beam="2">  1       -1 0.26326090E+00 0.30303589E+04</pdfrwt>
<totfact> 0.86891785E-01</totfact>
</mgrwt>
</event>
<event>
12    6  0.1395358E-007  0.2573932E+04  0.7818608E-02  0.8377110E-01
         -1   -1    0    0    0  501 -0.00000000000E+00  0.00000000000E+00  0.17790032717E+04  0.17790032717E+04  0.00000000000E+00 0.  1.
          2   -1    0    0  501    0  0.00000000000E+00 -0.00000000000E+00 -0.93101673247E+03  0.93101673247E+03  0.00000000000E+00 0. -1.
         24    2    1    2    0    0  0.13080608231E+03  0.10339642959E+04 -0.80355982804E+02  0.10484170961E+04  0.80801776795E+02 0.  0.
        254    2    1    2    0    0 -0.13080608231E+03 -0.10339642959E+04  0.92834252205E+03  0.16616029081E+04  0.90161632054E+03 0.  0.
         23    2    4    4    0    0 -0.37266154709E+03 -0.93259457007E+03  0.94669814593E+03  0.13832966924E+04  0.93075769758E+02 0.  0.
         23    2    4    4    0    0  0.24185546478E+03 -0.10136972582E+03 -0.18355623884E+02  0.27830621564E+03  0.91364837760E+02 0.  0.
          4    1    3    3  502    0  0.10027103130E+03  0.52724690102E+03 -0.64204468340E+02  0.54052362400E+03  0.00000000000E+00 0. -1.
         -3    1    3    3    0  502  0.30535051012E+02  0.50671739488E+03 -0.16151514465E+02  0.50789347213E+03  0.00000000000E+00 0.  1.
         11    1    5    5    0    0 -0.88027165835E+02 -0.31267468621E+03  0.34266128262E+03  0.47215569035E+03  0.00000000000E+00 0. -1.
        -11    1    5    5    0    0 -0.28463438126E+03 -0.61991988386E+03  0.60403686331E+03  0.91114100206E+03  0.00000000000E+00 0.  1.
          2    1    6    6  503    0  0.88074145250E+02 -0.31740928445E+02 -0.50638662905E+02  0.10643690986E+03  0.00000000000E+00 0. -1.
         -2    1    6    6    0  503  0.15378131953E+03 -0.69628797378E+02  0.32283039021E+02  0.17186930578E+03  0.00000000000E+00 0.  1.
<mgrwt>
<rscale>  0 0.25739323E+04</rscale>
<asrwt>0</asrwt>
<pdfrwt beam="1">  1        2 0.14323334E+00 0.25739323E+04</pdfrwt>
<pdfrwt beam="2">  1       -1 0.27369281E+00 0.25739323E+04</pdfrwt>
<totfact> 0.13811926E+00</totfact>
</mgrwt>
</event>
<event>
12    6  0.1395358E-007  0.1279635E+04  0.7818608E-02  0.9045873E-01
         -1   -1    0    0    0  501 -0.00000000000E+00  0.00000000000E+00  0.39207021176E+03  0.39207021176E+03  0.00000000000E+00 0.  1.
          2   -1    0    0  501    0  0.00000000000E+00 -0.00000000000E+00 -0.10441150763E+04  0.10441150763E+04  0.00000000000E+00 0. -1.
         24    2    1    2    0    0 -0.97481770671E+02 -0.28164873817E+03 -0.50848784874E+02  0.31296859481E+03  0.80839563886E+02 0.  0.
        254    2    1    2    0    0  0.97481770671E+02  0.28164873817E+03 -0.60119607967E+03  0.11232166933E+04  0.90074985788E+03 0.  0.
         23    2    4    4    0    0  0.97864951993E+02  0.31977406117E+02  0.21953933536E+03  0.25911380878E+03  0.91336426463E+02 0.  0.
         23    2    4    4    0    0 -0.38318132227E+00  0.24967133205E+03 -0.82073541503E+03  0.86410288448E+03  0.10359175929E+03 0.  0.
          2    1    3    3  502    0 -0.59275156654E+02 -0.11255227424E+03 -0.57239831592E+02  0.13949178096E+03  0.00000000000E+00 0. -1.
         -1    1    3    3    0  502 -0.38206614018E+02 -0.16909646393E+03  0.63910467179E+01  0.17347681386E+03  0.00000000000E+00 0.  1.
         11    1    5    5    0    0 -0.12680677844E+02  0.16821897518E+02  0.14163104854E+02  0.25384431563E+02  0.00000000000E+00 0. -1.
        -11    1    5    5    0    0  0.11054562984E+03  0.15155508599E+02  0.20537623051E+03  0.23372937722E+03  0.00000000000E+00 0.  1.
          1    1    6    6  503    0 -0.14229574853E+02  0.17785355357E+02 -0.20055370323E+03  0.20184297745E+03  0.00000000000E+00 0. -1.
         -1    1    6    6    0  503  0.13846393531E+02  0.23188597670E+03 -0.62018171180E+03  0.66225990702E+03  0.00000000000E+00 0.  1.
<mgrwt>
<rscale>  0 0.12796350E+04</rscale>
<asrwt>0</asrwt>
<pdfrwt beam="1">  1        2 0.16063309E+00 0.12796350E+04</pdfrwt>
<pdfrwt beam="2">  1       -1 0.60318495E-01 0.12796350E+04</pdfrwt>
<totfact> 0.73669235E+01</totfact>
</mgrwt>
</event>
<event>
12    6  0.1395358E-007  0.1785087E+04  0.7818608E-02  0.8714271E-01
          2   -1    0    0  501    0  0.00000000000E+00  0.00000000000E+00  0.11707826075E+04  0.11707826075E+04  0.00000000000E+00 0. -1.
         -1   -1    0    0    0  501 -0.00000000000E+00 -0.00000000000E+00 -0.68042833533E+03  0.68042833533E+03  0.00000000000E+00 0.  1.
         24    2    1    2    0    0  0.61962794046E+03  0.23843639432E+03  0.11164445714E+03  0.67790720729E+03  0.79391423688E+02 0.  0.
        254    2    1    2    0    0 -0.61962794046E+03 -0.23843639432E+03  0.37870981501E+03  0.11733037355E+04  0.89018528018E+03 0.  0.
         23    2    4    4    0    0 -0.52432003085E+03 -0.60725816086E+02  0.63795194596E+03  0.83239581077E+03  0.85445777794E+02 0.  0.
         23    2    4    4    0    0 -0.95307909614E+02 -0.17771057823E+03 -0.25924213095E+03  0.34090792475E+03  0.91362374354E+02 0.  0.
          2    1    3    3  502    0  0.30918358421E+03  0.13603030577E+03  0.93588116919E+02  0.35051029722E+03  0.00000000000E+00 0. -1.
         -3    1    3    3    0  502  0.31044435625E+03  0.10240608855E+03  0.18056340222E+02  0.32739691007E+03  0.00000000000E+00 0.  1.
         11    1    5    5    0    0 -0.38653804396E+03 -0.81928247665E+02  0.46233729909E+03  0.60817733871E+03  0.00000000000E+00 0. -1.
        -11    1    5    5    0    0 -0.13778198689E+03  0.21202431579E+02  0.17561464687E+03  0.22421847206E+03  0.00000000000E+00 0.  1.
          2    1    6    6  503    0 -0.51755470268E+02 -0.16622930124E+03 -0.18474314122E+03  0.25385199925E+03  0.00000000000E+00 0.  1.
         -2    1    6    6    0  503 -0.43552439347E+02 -0.11481276989E+02 -0.74498989728E+02  0.87055925501E+02  0.00000000000E+00 0. -1.
<mgrwt>
<rscale>  0 0.17850867E+04</rscale>
<asrwt>0</asrwt>
<pdfrwt beam="1">  1        2 0.18012040E+00 0.17850867E+04</pdfrwt>
<pdfrwt beam="2">  1       -1 0.10468128E+00 0.17850867E+04</pdfrwt>
<totfact> 0.18228913E+01</totfact>
</mgrwt>
</event>
<event>
12    6  0.1395358E-007  0.2965532E+04  0.7818608E-02  0.8253643E-01
         -1   -1    0    0    0  501 -0.00000000000E+00  0.00000000000E+00  0.66852323237E+03  0.66852323237E+03  0.00000000000E+00 0.  1.
          2   -1    0    0  501    0  0.00000000000E+00 -0.00000000000E+00 -0.32887335366E+04  0.32887335366E+04  0.00000000000E+00 0. -1.
         24    2    1    2    0    0  0.44056995556E+03  0.60295763153E+03  0.30228689167E+03  0.80949793149E+03  0.79055329017E+02 0.  0.
        254    2    1    2    0    0 -0.44056995556E+03 -0.60295763153E+03 -0.29224971959E+04  0.31477588375E+04  0.89985334792E+03 0.  0.
         23    2    4    4    0    0  0.42822476299E+02 -0.27417377090E+03 -0.21754940167E+04  0.21949956002E+04  0.90699764983E+02 0.  0.
         23    2    4    4    0    0 -0.48339243186E+03 -0.32878386063E+03 -0.74700317921E+03  0.95276323723E+03  0.89313863840E+02 0.  0.
          4    1    3    3  502    0  0.92678273950E+02  0.17289285380E+03  0.56108850244E+02  0.20403285136E+03  0.00000000000E+00 0. -1.
         -3    1    3    3    0  502  0.34789168161E+03  0.43006477773E+03  0.24617804143E+03  0.60546508013E+03  0.00000000000E+00 0.  1.
         11    1    5    5    0    0  0.56392627572E+02 -0.16374569617E+03 -0.15541093341E+04  0.15637290699E+04  0.00000000000E+00 0.  1.
        -11    1    5    5    0    0 -0.13570151273E+02 -0.11042807473E+03 -0.62138468253E+03  0.63126653038E+03  0.00000000000E+00 0. -1.
          1    1    6    6  503    0 -0.30176324350E+03 -0.20484147673E+03 -0.39417156946E+03  0.53702170523E+03  0.00000000000E+00 0. -1.
         -1    1    6    6    0  503 -0.18162918837E+03 -0.12394238390E+03 -0.35283160975E+03  0.41574153200E+03  0.00000000000E+00 0.  1.
<mgrwt>
<rscale>  0 0.29655318E+04</rscale>
<asrwt>0</asrwt>
<pdfrwt beam="1">  1        2 0.50595900E+00 0.29655318E+04</pdfrwt>
<pdfrwt beam="2">  1       -1 0.10284973E+00 0.29655318E+04</pdfrwt>
<totfact> 0.98671040E-01</totfact>
</mgrwt>
</event>
<event>
12    6  0.1395358E-007  0.3408072E+04  0.7818608E-02  0.8135928E-01
          2   -1    0    0  501    0  0.00000000000E+00  0.00000000000E+00  0.16937592031E+04  0.16937592031E+04  0.00000000000E+00 0. -1.
         -1   -1    0    0    0  501 -0.00000000000E+00 -0.00000000000E+00 -0.17143753413E+04  0.17143753413E+04  0.00000000000E+00 0.  1.
         24    2    1    2    0    0 -0.75822603888E+03 -0.47723060421E+03 -0.13158438979E+04  0.15939916683E+04  0.81905430198E+02 0.  0.
        254    2    1    2    0    0  0.75822603888E+03  0.47723060421E+03  0.12952277597E+04  0.18141428760E+04  0.90046857217E+03 0.  0.
         23    2    4    4    0    0 -0.51187106776E+01  0.13530386065E+02  0.76695403893E+03  0.77262117117E+03  0.92280570841E+02 0.  0.
         23    2    4    4    0    0  0.76334474956E+03  0.46370021815E+03  0.52827372080E+03  0.10415217049E+04  0.89337778348E+02 0.  0.
          2    1    3    3  502    0 -0.48357739341E+03 -0.25826500887E+03 -0.78671449292E+03  0.95888873369E+03  0.00000000000E+00 0. -1.
         -1    1    3    3    0  502 -0.27464864548E+03 -0.21896559534E+03 -0.52912940495E+03  0.63510293464E+03  0.00000000000E+00 0.  1.
         11    1    5    5    0    0  0.11625587474E+02  0.32835415174E+02  0.70136696781E+03  0.70223140225E+03  0.00000000000E+00 0. -1.
        -11    1    5    5    0    0 -0.16744298151E+02 -0.19305029109E+02  0.65587071121E+02  0.70389768913E+02  0.00000000000E+00 0.  1.
          4    1    6    6  503    0  0.65456870897E+03  0.37234756084E+03  0.41501717703E+03  0.85985007883E+03  0.00000000000E+00 0. -1.
         -4    1    6    6    0  503  0.10877604059E+03  0.91352657304E+02  0.11325654377E+03  0.18167162605E+03  0.00000000000E+00 0.  1.
<mgrwt>
<rscale>  0 0.34080722E+04</rscale>
<asrwt>0</asrwt>
<pdfrwt beam="1">  1        2 0.26057834E+00 0.34080722E+04</pdfrwt>
<pdfrwt beam="2">  1       -1 0.26375005E+00 0.34080722E+04</pdfrwt>
<totfact> 0.52839830E-01</totfact>
</mgrwt>
</event>
<event>
12    6  0.1395358E-007  0.1702791E+04  0.7818608E-02  0.8759774E-01
          2   -1    0    0  501    0  0.00000000000E+00  0.00000000000E+00  0.48026123502E+03  0.48026123502E+03  0.00000000000E+00 0. -1.
         -1   -1    0    0    0  501 -0.00000000000E+00 -0.00000000000E+00 -0.15093325117E+04  0.15093325117E+04  0.00000000000E+00 0.  1.
         24    2    1    2    0    0 -0.36984368435E+03 -0.27936381242E+03 -0.83533791270E+03  0.95876306801E+03  0.81293921385E+02 0.  0.
        254    2    1    2    0    0  0.36984368435E+03  0.27936381242E+03 -0.19373336397E+03  0.10308306787E+04  0.90013931215E+03 0.  0.
         23    2    4    4    0    0  0.26048570705E+03 -0.71575166970E+02 -0.47930199332E+03  0.55696067901E+03  0.86596703504E+02 0.  0.
         23    2    4    4    0    0  0.10935797730E+03  0.35093897939E+03  0.28556862935E+03  0.47386999968E+03  0.88803153523E+02 0.  0.
          4    1    3    3  502    0 -0.27111424340E+03 -0.18383670036E+03 -0.51684667716E+03  0.61190632704E+03  0.00000000000E+00 0. -1.
         -3    1    3    3    0  502 -0.98729440950E+02 -0.95527112058E+02 -0.31849123553E+03  0.34685674098E+03  0.00000000000E+00 0.  1.
         11    1    5    5    0    0  0.16381170052E+03 -0.26287396549E+02 -0.21251499126E+03  0.26960697683E+03  0.00000000000E+00 0.  1.
        -11    1    5    5    0    0  0.96674006530E+02 -0.45287770421E+02 -0.26678700206E+03  0.28735370218E+03  0.00000000000E+00 0. -1.
          4    1    6    6  503    0  0.10075392614E+03  0.30163027968E+03  0.20289523839E+03  0.37722494219E+03  0.00000000000E+00 0. -1.
         -4    1    6    6    0  503  0.86040511544E+01  0.49308699711E+02  0.82673390966E+02  0.96645057490E+02  0.00000000000E+00 0.  1.
<mgrwt>
<rscale>  0 0.17027905E+04</rscale>
<asrwt>0</asrwt>
<pdfrwt beam="1">  1        2 0.73886343E-01 0.17027905E+04</pdfrwt>
<pdfrwt beam="2">  1       -1 0.23220500E+00 0.17027905E+04</pdfrwt>
<totfact> 0.64041674E+00</totfact>
</mgrwt>
</event>
<event>
12    6  0.1395358E-007  0.2563826E+04  0.7818608E-02  0.8380593E-01
          2   -1    0    0  501    0  0.00000000000E+00  0.00000000000E+00  0.19691751978E+04  0.19691751978E+04  0.00000000000E+00 0. -1.
         -1   -1    0    0    0  501 -0.00000000000E+00 -0.00000000000E+00 -0.83451242834E+03  0.83451242834E+03  0.00000000000E+00 0.  1.
         24    2    1    2    0    0  0.74662659669E+03  0.63407862062E+03  0.10976145422E+04  0.14732352721E+04  0.78469814557E+02 0.  0.
        254    2    1    2    0    0 -0.74662659669E+03 -0.63407862062E+03  0.37048227230E+02  0.13304523540E+04  0.89956874280E+03 0.  0.
         23    2    4    4    0    0 -0.42948682982E+03 -0.65641639882E+03  0.36006657541E+03  0.86807337103E+03  0.92531146799E+02 0.  0.
         23    2    4    4    0    0 -0.31713976687E+03  0.22337778208E+02 -0.32301834818E+03  0.46237898294E+03  0.91525201623E+02 0.  0.
          4    1    3    3  502    0  0.10963535853E+03  0.13115902769E+03  0.20054505300E+03  0.26351645236E+03  0.00000000000E+00 0. -1.
         -3    1    3    3    0  502  0.63699123816E+03  0.50291959293E+03  0.89706948919E+03  0.12097188198E+04  0.00000000000E+00 0.  1.
         11    1    5    5    0    0 -0.42826840065E+03 -0.65961077568E+03  0.35823354200E+03  0.86419411535E+03  0.00000000000E+00 0. -1.
        -11    1    5    5    0    0 -0.12184291716E+01  0.31943768570E+01  0.18330334179E+01  0.38792556840E+01  0.00000000000E+00 0.  1.
          3    1    6    6  503    0 -0.22795080508E+03  0.40954715206E+02 -0.27451350568E+03  0.35916085955E+03  0.00000000000E+00 0. -1.
         -3    1    6    6    0  503 -0.89188961793E+02 -0.18616936998E+02 -0.48504842506E+02  0.10321812339E+03  0.00000000000E+00 0.  1.
<mgrwt>
<rscale>  0 0.25638262E+04</rscale>
<asrwt>0</asrwt>
<pdfrwt beam="1">  1        2 0.30295003E+00 0.25638262E+04</pdfrwt>
<pdfrwt beam="2">  1       -1 0.12838653E+00 0.25638262E+04</pdfrwt>
<totfact> 0.36721971E+00</totfact>
</mgrwt>
</event>
<event>
12    6  0.1395358E-007  0.2942242E+04  0.7818608E-02  0.8260419E-01
          2   -1    0    0  501    0  0.00000000000E+00  0.00000000000E+00  0.21745309180E+04  0.21745309180E+04  0.00000000000E+00 0. -1.
         -1   -1    0    0    0  501 -0.00000000000E+00 -0.00000000000E+00 -0.99524773434E+03  0.99524773434E+03  0.00000000000E+00 0.  1.
         24    2    1    2    0    0  0.76342856168E+03 -0.10849705591E+04  0.41766753908E+03  0.13933070166E+04  0.82909507638E+02 0.  0.
        254    2    1    2    0    0 -0.76342856168E+03  0.10849705591E+04  0.76161564455E+03  0.17764716357E+04  0.90322134580E+03 0.  0.
         23    2    4    4    0    0 -0.85826105361E+03  0.50872107608E+03  0.37363338548E+03  0.10692267633E+04  0.90745772719E+02 0.  0.
         23    2    4    4    0    0  0.94832491927E+02  0.57624948301E+03  0.38798225907E+03  0.70724487237E+03  0.92781506467E+02 0.  0.
          2    1    3    3  502    0  0.25867806209E+03 -0.36841016891E+03  0.18313837022E+03  0.48598359541E+03  0.00000000000E+00 0. -1.
         -1    1    3    3    0  502  0.50475049958E+03 -0.71656039018E+03  0.23452916886E+03  0.90732342120E+03  0.00000000000E+00 0.  1.
         11    1    5    5    0    0 -0.74488513545E+02  0.30954363159E+02  0.75836792960E+01  0.81019895336E+02  0.00000000000E+00 0. -1.
        -11    1    5    5    0    0 -0.78377254006E+03  0.47776671292E+03  0.36604970618E+03  0.98820686798E+03  0.00000000000E+00 0.  1.
          4    1    6    6  503    0  0.42484491982E+02  0.78284580547E+02  0.77648781095E+02  0.11816404198E+03  0.00000000000E+00 0. -1.
         -4    1    6    6    0  503  0.52347999946E+02  0.49796490247E+03  0.31033347798E+03  0.58908083040E+03  0.00000000000E+00 0.  1.
<mgrwt>
<rscale>  0 0.29422420E+04</rscale>
<asrwt>0</asrwt>
<pdfrwt beam="1">  1        2 0.33454322E+00 0.29422420E+04</pdfrwt>
<pdfrwt beam="2">  1       -1 0.15311504E+00 0.29422420E+04</pdfrwt>
<totfact> 0.17223834E+00</totfact>
</mgrwt>
</event>
<event>
12    6  0.1395358E-007  0.1444762E+04  0.7818608E-02  0.8922040E-01
         -1   -1    0    0    0  501 -0.00000000000E+00  0.00000000000E+00  0.94432340795E+03  0.94432340795E+03  0.00000000000E+00 0.  1.
          2   -1    0    0  501    0  0.00000000000E+00 -0.00000000000E+00 -0.55260137136E+03  0.55260137136E+03  0.00000000000E+00 0. -1.
         24    2    1    2    0    0 -0.38034144144E+03  0.79246334516E+02 -0.87209122716E+02  0.40635368912E+03  0.81106694934E+02 0.  0.
        254    2    1    2    0    0  0.38034144144E+03 -0.79246334516E+02  0.47893115930E+03  0.10905710902E+04  0.89946131312E+03 0.  0.
         23    2    4    4    0    0 -0.25128586343E+01  0.32288692447E+03 -0.21713233436E+02  0.33732898686E+03  0.95168799617E+02 0.  0.
         23    2    4    4    0    0  0.38285430008E+03 -0.40213325898E+03  0.50064439274E+03  0.75324210333E+03  0.91871024695E+02 0.  0.
          2    1    3    3  502    0 -0.35081717290E+03  0.66933210461E+02 -0.10154304988E+03  0.37130005985E+03  0.00000000000E+00 0. -1.
         -3    1    3    3    0  502 -0.29524268540E+02  0.12313124054E+02  0.14333927168E+02  0.35053629268E+02  0.00000000000E+00 0.  1.
         11    1    5    5    0    0 -0.17110416631E+01  0.30543687228E+03  0.49163085890E+01  0.30548122807E+03  0.00000000000E+00 0. -1.
        -11    1    5    5    0    0 -0.80181697125E+00  0.17450052190E+02 -0.26629542025E+02  0.31847758797E+02  0.00000000000E+00 0.  1.
          3    1    6    6  503    0  0.10155133868E+03 -0.16373462617E+03  0.14714832300E+03  0.24243417902E+03  0.00000000000E+00 0. -1.
         -3    1    6    6    0  503  0.28130296140E+03 -0.23839863282E+03  0.35349606974E+03  0.51080792431E+03  0.00000000000E+00 0.  1.
<mgrwt>
<rscale>  0 0.14447621E+04</rscale>
<asrwt>0</asrwt>
<pdfrwt beam="1">  1        2 0.85015595E-01 0.14447621E+04</pdfrwt>
<pdfrwt beam="2">  1       -1 0.14528052E+00 0.14447621E+04</pdfrwt>
<totfact> 0.23078193E+01</totfact>
</mgrwt>
</event>
<event>
12    6  0.1395358E-007  0.1872152E+04  0.7818608E-02  0.8668844E-01
          2   -1    0    0  501    0  0.00000000000E+00  0.00000000000E+00  0.12352870966E+04  0.12352870966E+04  0.00000000000E+00 0. -1.
         -1   -1    0    0    0  501 -0.00000000000E+00 -0.00000000000E+00 -0.70933991413E+03  0.70933991413E+03  0.00000000000E+00 0.  1.
         24    2    1    2    0    0  0.42718023625E+03 -0.42686856612E+03 -0.19900222547E+03  0.64080122716E+03  0.79527353788E+02 0.  0.
        254    2    1    2    0    0 -0.42718023625E+03  0.42686856612E+03  0.72494940790E+03  0.13038257835E+04  0.89983904273E+03 0.  0.
         23    2    4    4    0    0 -0.55588354520E+03  0.10953879978E+03  0.95663969914E+02  0.58195591251E+03  0.92281224981E+02 0.  0.
         23    2    4    4    0    0  0.12870330895E+03  0.31732976634E+03  0.62928543798E+03  0.72186987103E+03  0.88505513383E+02 0.  0.
          4    1    3    3  502    0  0.27653080606E+03 -0.31679402014E+03 -0.11345531193E+03  0.43554545768E+03  0.00000000000E+00 0. -1.
         -3    1    3    3    0  502  0.15064943018E+03 -0.11007454598E+03 -0.85546913542E+02  0.20525576948E+03  0.00000000000E+00 0.  1.
         11    1    5    5    0    0 -0.11449003436E+03  0.18545940074E+02 -0.17487773453E+02  0.11729340169E+03  0.00000000000E+00 0. -1.
        -11    1    5    5    0    0 -0.44139351084E+03  0.90992859706E+02  0.11315174337E+03  0.46466251082E+03  0.00000000000E+00 0.  1.
          3    1    6    6  503    0  0.29160733082E+02  0.18351783078E+03  0.30322594095E+03  0.35563339808E+03  0.00000000000E+00 0. -1.
         -3    1    6    6    0  503  0.99542575868E+02  0.13381193557E+03  0.32605949704E+03  0.36623647295E+03  0.00000000000E+00 0.  1.
<mgrwt>
<rscale>  0 0.18721522E+04</rscale>
<asrwt>0</asrwt>
<pdfrwt beam="1">  1        2 0.19004417E+00 0.18721522E+04</pdfrwt>
<pdfrwt beam="2">  1       -1 0.10912922E+00 0.18721522E+04</pdfrwt>
<totfact> 0.15019844E+01</totfact>
</mgrwt>
</event>
<event>
12    6  0.1395358E-007  0.2090981E+04  0.7818608E-02  0.8565227E-01
          2   -1    0    0  501    0  0.00000000000E+00  0.00000000000E+00  0.41057393026E+04  0.41057393026E+04  0.00000000000E+00 0. -1.
         -1   -1    0    0    0  501 -0.00000000000E+00 -0.00000000000E+00 -0.26622507714E+03  0.26622507714E+03  0.00000000000E+00 0.  1.
         24    2    1    2    0    0 -0.48808933109E+03 -0.46906096407E+03  0.26369897163E+04  0.27236658140E+04  0.79945725227E+02 0.  0.
        254    2    1    2    0    0  0.48808933109E+03  0.46906096407E+03  0.12025245091E+04  0.16482985658E+04  0.90142863484E+03 0.  0.
         23    2    4    4    0    0  0.73130528202E+03  0.36946008752E+03  0.72915178813E+03  0.11007307521E+04  0.92939155978E+02 0.  0.
         23    2    4    4    0    0 -0.24321595093E+03  0.99600876555E+02  0.47337272098E+03  0.54756781365E+03  0.81697271529E+02 0.  0.
          4    1    3    3  502    0 -0.24818717848E+02 -0.52249769674E+02  0.25849040102E+03  0.26488354915E+03  0.00000000000E+00 0. -1.
         -3    1    3    3    0  502 -0.46327061324E+03 -0.41681119440E+03  0.23784993153E+04  0.24587822648E+04  0.00000000000E+00 0.  1.
         11    1    5    5    0    0  0.64465549479E+03  0.31505524596E+03  0.59573099340E+03  0.93259633898E+03  0.00000000000E+00 0. -1.
        -11    1    5    5    0    0  0.86649787229E+02  0.54404841555E+02  0.13342079473E+03  0.16813441313E+03  0.00000000000E+00 0.  1.
          3    1    6    6  503    0 -0.22742845512E+03  0.65284354113E+02  0.42192266913E+03  0.48374010358E+03  0.00000000000E+00 0. -1.
         -3    1    6    6    0  503 -0.15787495815E+02  0.34316522442E+02  0.51450051857E+02  0.63827710070E+02  0.00000000000E+00 0.  1.
<mgrwt>
<rscale>  0 0.20909814E+04</rscale>
<asrwt>0</asrwt>
<pdfrwt beam="1">  1        2 0.63165216E+00 0.20909814E+04</pdfrwt>
<pdfrwt beam="2">  1       -1 0.40957707E-01 0.20909814E+04</pdfrwt>
<totfact> 0.17303069E+00</totfact>
</mgrwt>
</event>
<event>
12    6  0.1395358E-007  0.2393638E+04  0.7818608E-02  0.8441889E-01
         -1   -1    0    0    0  501 -0.00000000000E+00  0.00000000000E+00  0.10243269026E+04  0.10243269026E+04  0.00000000000E+00 0.  1.
          2   -1    0    0  501    0  0.00000000000E+00 -0.00000000000E+00 -0.13983577365E+04  0.13983577365E+04  0.00000000000E+00 0. -1.
         24    2    1    2    0    0  0.77296747105E+03 -0.58949779834E+03  0.17371746919E+03  0.98929953463E+03  0.59577215233E+02 0.  0.
        254    2    1    2    0    0 -0.77296747105E+03  0.58949779834E+03 -0.54774830311E+03  0.14333851045E+04  0.89976568551E+03 0.  0.
         23    2    4    4    0    0 -0.58788480967E+03  0.82137934988E+03 -0.42099477391E+03  0.10982286610E+04  0.92720043077E+02 0.  0.
         23    2    4    4    0    0 -0.18508266137E+03 -0.23188155154E+03 -0.12675352920E+03  0.33515644352E+03  0.90767499595E+02 0.  0.
          2    1    3    3  502    0  0.47418978601E+03 -0.39593210418E+03  0.11925120710E+03  0.62915740055E+03  0.00000000000E+00 0. -1.
         -1    1    3    3    0  502  0.29877768504E+03 -0.19356569416E+03  0.54466262098E+02  0.36014213408E+03  0.00000000000E+00 0.  1.
         11    1    5    5    0    0 -0.27353552490E+03  0.35167677213E+03 -0.23174338908E+03  0.50219840085E+03  0.00000000000E+00 0.  1.
        -11    1    5    5    0    0 -0.31434928477E+03  0.46970257776E+03 -0.18925138484E+03  0.59603026018E+03  0.00000000000E+00 0. -1.
          4    1    6    6  503    0 -0.57742133790E+02 -0.23456016887E+02 -0.47535954473E+02  0.78383708196E+02  0.00000000000E+00 0. -1.
         -4    1    6    6    0  503 -0.12734052758E+03 -0.20842553465E+03 -0.79217574723E+02  0.25677273532E+03  0.00000000000E+00 0.  1.
<mgrwt>
<rscale>  0 0.23936378E+04</rscale>
<asrwt>0</asrwt>
<pdfrwt beam="1">  1        2 0.21513196E+00 0.23936378E+04</pdfrwt>
<pdfrwt beam="2">  1       -1 0.15758876E+00 0.23936378E+04</pdfrwt>
<totfact> 0.45320403E+00</totfact>
</mgrwt>
</event>
<event>
12    6  0.1395358E-007  0.2086110E+04  0.7818608E-02  0.8567387E-01
         -1   -1    0    0    0  501 -0.00000000000E+00  0.00000000000E+00  0.70230849945E+03  0.70230849945E+03  0.00000000000E+00 0.  1.
          2   -1    0    0  501    0  0.00000000000E+00 -0.00000000000E+00 -0.15491246301E+04  0.15491246301E+04  0.00000000000E+00 0. -1.
         24    2    1    2    0    0  0.77224599695E+03  0.26132559496E+03 -0.95203887009E+02  0.82469525741E+03  0.80022128854E+02 0.  0.
        254    2    1    2    0    0 -0.77224599695E+03 -0.26132559496E+03 -0.75161224360E+03  0.14267378721E+04  0.89777783696E+03 0.  0.
         23    2    4    4    0    0 -0.19983177808E+03  0.29333399719E+03 -0.69480807657E+02  0.37358926914E+03  0.93615094649E+02 0.  0.
         23    2    4    4    0    0 -0.57241421887E+03 -0.55465959215E+03 -0.68213143594E+03  0.10531486029E+04  0.92267994793E+02 0.  0.
          2    1    3    3  502    0  0.57464214738E+03  0.18898029630E+03 -0.35505555816E+02  0.60596022512E+03  0.00000000000E+00 0. -1.
         -1    1    3    3    0  502  0.19760384957E+03  0.72345298662E+02 -0.59698331193E+02  0.21873503229E+03  0.00000000000E+00 0.  1.
         11    1    5    5    0    0 -0.11565471923E+03  0.93932641205E+02 -0.11069796758E+02  0.14940513902E+03  0.00000000000E+00 0.  1.
        -11    1    5    5    0    0 -0.84177058850E+02  0.19940135598E+03 -0.58411010899E+02  0.22418413012E+03  0.00000000000E+00 0. -1.
          3    1    6    6  503    0 -0.42088311943E+03 -0.42715063937E+03 -0.46164860199E+03  0.75678246587E+03  0.00000000000E+00 0. -1.
         -3    1    6    6    0  503 -0.15153109943E+03 -0.12750895279E+03 -0.22048283396E+03  0.29636613708E+03  0.00000000000E+00 0.  1.
<mgrwt>
<rscale>  0 0.20861097E+04</rscale>
<asrwt>0</asrwt>
<pdfrwt beam="1">  1        2 0.23832686E+00 0.20861097E+04</pdfrwt>
<pdfrwt beam="2">  1       -1 0.10804746E+00 0.20861097E+04</pdfrwt>
<totfact> 0.99655915E+00</totfact>
</mgrwt>
</event>
<event>
12    6  0.1395358E-007  0.1108630E+04  0.7818608E-02  0.9196822E-01
         -1   -1    0    0    0  501 -0.00000000000E+00  0.00000000000E+00  0.13452416405E+03  0.13452416405E+03  0.00000000000E+00 0.  1.
          2   -1    0    0  501    0  0.00000000000E+00 -0.00000000000E+00 -0.22840868926E+04  0.22840868926E+04  0.00000000000E+00 0. -1.
         24    2    1    2    0    0 -0.15381368160E+02 -0.12787968093E+03 -0.62838814274E+03  0.64638530214E+03  0.79702582188E+02 0.  0.
        254    2    1    2    0    0  0.15381368160E+02  0.12787968093E+03 -0.15211745858E+04  0.17722257545E+04  0.90012343883E+03 0.  0.
         23    2    4    4    0    0  0.24924774296E+03 -0.45786775262E+02 -0.14275210662E+04  0.14525193893E+04  0.88177750344E+02 0.  0.
         23    2    4    4    0    0 -0.23386637480E+03  0.17366645619E+03 -0.93653519639E+02  0.31970636524E+03  0.92669622685E+02 0.  0.
          2    1    3    3  502    0 -0.15448304111E+02 -0.12574327047E+03 -0.63066413281E+03  0.64326298555E+03  0.00000000000E+00 0. -1.
         -1    1    3    3    0  502  0.66935951561E-01 -0.21364104635E+01  0.22759900701E+01  0.31223165902E+01  0.00000000000E+00 0.  1.
         11    1    5    5    0    0  0.25513559557E+03 -0.51179103708E+02 -0.13918047895E+04  0.14159216239E+04  0.00000000000E+00 0.  1.
        -11    1    5    5    0    0 -0.58878526122E+01  0.53923284460E+01 -0.35716276623E+02  0.36597765373E+02  0.00000000000E+00 0. -1.
          3    1    6    6  503    0 -0.24113842752E+02  0.65631703915E+01  0.16327714612E+02  0.29852083383E+02  0.00000000000E+00 0. -1.
         -3    1    6    6    0  503 -0.20975253205E+03  0.16710328580E+03 -0.10998123425E+03  0.28985428186E+03  0.00000000000E+00 0.  1.
<mgrwt>
<rscale>  0 0.11086296E+04</rscale>
<asrwt>0</asrwt>
<pdfrwt beam="1">  1        2 0.35139798E+00 0.11086296E+04</pdfrwt>
<pdfrwt beam="2">  1       -1 0.20696026E-01 0.11086296E+04</pdfrwt>
<totfact> 0.10159085E+02</totfact>
</mgrwt>
</event>
<event>
12    6  0.1395358E-007  0.1137238E+04  0.7818608E-02  0.9169638E-01
         -3   -1    0    0    0  501 -0.00000000000E+00  0.00000000000E+00  0.17329725197E+03  0.17329725197E+03  0.00000000000E+00 0.  1.
          2   -1    0    0  501    0  0.00000000000E+00 -0.00000000000E+00 -0.18657404449E+04  0.18657404449E+04  0.00000000000E+00 0. -1.
         24    2    1    2    0    0 -0.98443013503E+02 -0.16830988048E+03 -0.25367898585E+03  0.32980465315E+03  0.79992740933E+02 0.  0.
        254    2    1    2    0    0  0.98443013503E+02  0.16830988048E+03 -0.14387642071E+04  0.17092330437E+04  0.90189573202E+03 0.  0.
         23    2    4    4    0    0 -0.12600312551E+03  0.30049250792E+03 -0.13882756655E+04  0.14289521863E+04  0.91774137796E+02 0.  0.
         23    2    4    4    0    0  0.22444613901E+03 -0.13218262745E+03 -0.50488541566E+02  0.28028085741E+03  0.90332440954E+02 0.  0.
          4    1    3    3  502    0 -0.26235850494E+02 -0.88918581214E+02 -0.17031899432E+03  0.19391594509E+03  0.00000000000E+00 0. -1.
         -3    1    3    3    0  502 -0.72207163008E+02 -0.79391299263E+02 -0.83359991538E+02  0.13588870806E+03  0.00000000000E+00 0.  1.
         11    1    5    5    0    0  0.74423724676E+01  0.38054730932E+02 -0.26094560040E+03  0.26381083720E+03  0.00000000000E+00 0. -1.
        -11    1    5    5    0    0 -0.13344549798E+03  0.26243777699E+03 -0.11273300651E+04  0.11651413491E+04  0.00000000000E+00 0.  1.
          3    1    6    6  503    0  0.12555694071E+03 -0.72696065200E+02 -0.73449468448E+02  0.16261638193E+03  0.00000000000E+00 0. -1.
         -3    1    6    6    0  503  0.98889198299E+02 -0.59486562246E+02  0.22960926883E+02  0.11766447549E+03  0.00000000000E+00 0.  1.
<mgrwt>
<rscale>  0 0.11372382E+04</rscale>
<asrwt>0</asrwt>
<pdfrwt beam="1">  1        2 0.28703700E+00 0.11372382E+04</pdfrwt>
<pdfrwt beam="2">  1       -3 0.26661115E-01 0.11372382E+04</pdfrwt>
<totfact> 0.68941592E+01</totfact>
</mgrwt>
</event>
<event>
12    6  0.1395358E-007  0.3839069E+04  0.7818608E-02  0.8037822E-01
          2   -1    0    0  501    0  0.00000000000E+00  0.00000000000E+00  0.13566366123E+04  0.13566366123E+04  0.00000000000E+00 0. -1.
         -1   -1    0    0    0  501 -0.00000000000E+00 -0.00000000000E+00 -0.27159905152E+04  0.27159905152E+04  0.00000000000E+00 0.  1.
         24    2    1    2    0    0 -0.68013267648E+02 -0.17362642865E+04 -0.92066029537E+02  0.17418266609E+04  0.79022058265E+02 0.  0.
        254    2    1    2    0    0  0.68013267648E+02  0.17362642865E+04 -0.12672878733E+04  0.23308004666E+04  0.89853925022E+03 0.  0.
         23    2    4    4    0    0 -0.18262654974E+03  0.14874811237E+04 -0.12701226275E+04  0.19664417127E+04  0.87914563754E+02 0.  0.
         23    2    4    4    0    0  0.25063981739E+03  0.24878316280E+03  0.28347542078E+01  0.36435875390E+03  0.89643101020E+02 0.  0.
          4    1    3    3  502    0 -0.23271913785E+02 -0.13275139834E+04 -0.52854026211E+02  0.13287695459E+04  0.00000000000E+00 0. -1.
         -3    1    3    3    0  502 -0.44741353863E+02 -0.40875030312E+03 -0.39212003326E+02  0.41305711500E+03  0.00000000000E+00 0.  1.
         11    1    5    5    0    0 -0.97612168406E+02  0.73258733125E+03 -0.56965574515E+03  0.93312378671E+03  0.00000000000E+00 0. -1.
        -11    1    5    5    0    0 -0.85014381336E+02  0.75489379246E+03 -0.70046688238E+03  0.10333179260E+04  0.00000000000E+00 0.  1.
          1    1    6    6  503    0  0.23532859617E+03  0.19570462675E+03 -0.14629764477E+02  0.30642108138E+03  0.00000000000E+00 0. -1.
         -1    1    6    6    0  503  0.15311221225E+02  0.53078536053E+02  0.17464518685E+02  0.57937672527E+02  0.00000000000E+00 0.  1.
<mgrwt>
<rscale>  0 0.38390687E+04</rscale>
<asrwt>0</asrwt>
<pdfrwt beam="1">  1        2 0.20871333E+00 0.38390687E+04</pdfrwt>
<pdfrwt beam="2">  1       -1 0.41784469E+00 0.38390687E+04</pdfrwt>
<totfact> 0.75225464E-02</totfact>
</mgrwt>
</event>
<event>
12    6  0.1395358E-007  0.1933779E+04  0.7818608E-02  0.8638223E-01
          2   -1    0    0  501    0  0.00000000000E+00  0.00000000000E+00  0.27822312051E+04  0.27822312051E+04  0.00000000000E+00 0. -1.
         -1   -1    0    0    0  501 -0.00000000000E+00 -0.00000000000E+00 -0.33601646466E+03  0.33601646466E+03  0.00000000000E+00 0.  1.
         24    2    1    2    0    0  0.23433755335E+03  0.50565106893E+03  0.17801828485E+04  0.18672305727E+04  0.83077945493E+02 0.  0.
        254    2    1    2    0    0 -0.23433755335E+03 -0.50565106893E+03  0.66603189191E+03  0.12510170971E+04  0.90047110097E+03 0.  0.
         23    2    4    4    0    0  0.64027119641E+02 -0.11867345647E+03 -0.19669488662E+03  0.25497847821E+03  0.90234608694E+02 0.  0.
         23    2    4    4    0    0 -0.29836467299E+03 -0.38697761246E+03  0.86272677853E+03  0.99603861885E+03  0.94985710565E+02 0.  0.
          2    1    3    3  502    0  0.10215574558E+03  0.14863585235E+03  0.65567713263E+03  0.68003008405E+03  0.00000000000E+00 0. -1.
         -1    1    3    3    0  502  0.13218180777E+03  0.35701521658E+03  0.11245057159E+04  0.11872004887E+04  0.00000000000E+00 0.  1.
         11    1    5    5    0    0  0.83923943731E+02 -0.88055462587E+02 -0.12442379357E+03  0.17400653214E+03  0.00000000000E+00 0. -1.
        -11    1    5    5    0    0 -0.19896824090E+02 -0.30617993886E+02 -0.72271093057E+02  0.80971946069E+02  0.00000000000E+00 0.  1.
          2    1    6    6  503    0 -0.87436916699E+02 -0.63142855511E+02  0.14298206830E+03  0.17909803589E+03  0.00000000000E+00 0. -1.
         -2    1    6    6    0  503 -0.21092775629E+03 -0.32383475695E+03  0.71974471023E+03  0.81694058296E+03  0.00000000000E+00 0.  1.
<mgrwt>
<rscale>  0 0.19337792E+04</rscale>
<asrwt>0</asrwt>
<pdfrwt beam="1">  1        2 0.42803556E+00 0.19337792E+04</pdfrwt>
<pdfrwt beam="2">  1       -1 0.51694842E-01 0.19337792E+04</pdfrwt>
<totfact> 0.95077348E+00</totfact>
</mgrwt>
</event>
<event>
12    6  0.1395358E-007  0.3334953E+04  0.7818608E-02  0.8154058E-01
         -1   -1    0    0    0  501 -0.00000000000E+00  0.00000000000E+00  0.16263968355E+04  0.16263968355E+04  0.00000000000E+00 0.  1.
          2   -1    0    0  501    0  0.00000000000E+00 -0.00000000000E+00 -0.17095940635E+04  0.17095940635E+04  0.00000000000E+00 0. -1.
         24    2    1    2    0    0  0.68879115077E+03 -0.10903476942E+04  0.81264707964E+03  0.15263482769E+04  0.77797446177E+02 0.  0.
        254    2    1    2    0    0 -0.68879115077E+03  0.10903476942E+04 -0.89584430758E+03  0.18096426222E+04  0.89943207248E+03 0.  0.
         23    2    4    4    0    0 -0.73269708505E+02 -0.83098334108E+02 -0.34087739532E+03  0.36976806830E+03  0.90869369876E+02 0.  0.
         23    2    4    4    0    0 -0.61552144227E+03  0.11734460283E+04 -0.55496691226E+03  0.14398745539E+04  0.96996030844E+02 0.  0.
          2    1    3    3  502    0  0.19406208933E+03 -0.25146499120E+03  0.18188439895E+03  0.36602823784E+03  0.00000000000E+00 0. -1.
         -1    1    3    3    0  502  0.49472906144E+03 -0.83888270298E+03  0.63076268069E+03  0.11603200390E+04  0.00000000000E+00 0.  1.
         11    1    5    5    0    0  0.20582229566E+02 -0.25239010833E+02 -0.65820758839E+02  0.73437103264E+02  0.00000000000E+00 0.  1.
        -11    1    5    5    0    0 -0.93851938070E+02 -0.57859323276E+02 -0.27505663648E+03  0.29633096504E+03  0.00000000000E+00 0. -1.
          4    1    6    6  503    0 -0.32076499526E+02  0.85972465785E+02 -0.15700101288E+02  0.93094897151E+02  0.00000000000E+00 0. -1.
         -4    1    6    6    0  503 -0.58344494274E+03  0.10874735625E+04 -0.53926681097E+03  0.13467796567E+04  0.00000000000E+00 0.  1.
<mgrwt>
<rscale>  0 0.33349533E+04</rscale>
<asrwt>0</asrwt>
<pdfrwt beam="1">  1        2 0.26301447E+00 0.33349533E+04</pdfrwt>
<pdfrwt beam="2">  1       -1 0.25021490E+00 0.33349533E+04</pdfrwt>
<totfact> 0.63807788E-01</totfact>
</mgrwt>
</event>
<event>
12    6  0.1395358E-007  0.1360078E+04  0.7818608E-02  0.8983234E-01
          2   -1    0    0  501    0  0.00000000000E+00  0.00000000000E+00  0.52536300772E+04  0.52536300772E+04  0.00000000000E+00 0. -1.
         -1   -1    0    0    0  501 -0.00000000000E+00 -0.00000000000E+00 -0.88025475417E+02  0.88025475417E+02  0.00000000000E+00 0.  1.
         24    2    1    2    0    0 -0.30912787048E+03  0.48181417541E+02  0.22832984443E+04  0.23060251620E+04  0.80117241588E+02 0.  0.
        254    2    1    2    0    0  0.30912787048E+03 -0.48181417541E+02  0.28823061574E+04  0.30356303906E+04  0.89971195062E+03 0.  0.
         23    2    4    4    0    0  0.52772343793E+03 -0.12353730015E+03  0.10378057085E+04  0.11744265008E+04  0.92105514861E+02 0.  0.
         23    2    4    4    0    0 -0.21859556745E+03  0.75355882610E+02  0.18445004490E+04  0.18612038898E+04  0.91844880336E+02 0.  0.
          4    1    3    3  502    0 -0.78923529328E+02 -0.18732557952E+02  0.47005432264E+03  0.47700198997E+03  0.00000000000E+00 0. -1.
         -3    1    3    3    0  502 -0.23020434115E+03  0.66913975493E+02  0.18132441217E+04  0.18290231720E+04  0.00000000000E+00 0.  1.
         11    1    5    5    0    0  0.24323570683E+03 -0.21168896808E+02  0.40080425000E+03  0.46931415714E+03  0.00000000000E+00 0.  1.
        -11    1    5    5    0    0  0.28448773110E+03 -0.10236840334E+03  0.63700145847E+03  0.70511234371E+03  0.00000000000E+00 0. -1.
          2    1    6    6  503    0 -0.58946798385E+02  0.60114313023E+01  0.80985028897E+03  0.81201499548E+03  0.00000000000E+00 0.  1.
         -2    1    6    6    0  503 -0.15964876906E+03  0.69344451308E+02  0.10346501600E+04  0.10491888943E+04  0.00000000000E+00 0. -1.
<mgrwt>
<rscale>  0 0.13600784E+04</rscale>
<asrwt>0</asrwt>
<pdfrwt beam="1">  1        2 0.80825054E+00 0.13600784E+04</pdfrwt>
<pdfrwt beam="2">  1       -1 0.13542385E-01 0.13600784E+04</pdfrwt>
<totfact> 0.71586442E-01</totfact>
</mgrwt>
</event>
<event>
12    6  0.1395358E-007  0.2037576E+04  0.7818608E-02  0.8589251E-01
         -1   -1    0    0    0  501 -0.00000000000E+00  0.00000000000E+00  0.67730108621E+03  0.67730108621E+03  0.00000000000E+00 0.  1.
          2   -1    0    0  501    0  0.00000000000E+00 -0.00000000000E+00 -0.15324483380E+04  0.15324483380E+04  0.00000000000E+00 0. -1.
         24    2    1    2    0    0 -0.19211845469E+03 -0.45071310202E+03 -0.10520161862E+04  0.11631756873E+04  0.78662714205E+02 0.  0.
        254    2    1    2    0    0  0.19211845469E+03  0.45071310202E+03  0.19686893440E+03  0.10465737369E+04  0.90360799491E+03 0.  0.
         23    2    4    4    0    0 -0.29786031075E+03 -0.23499108700E+01 -0.73890365740E+02  0.32021101222E+03  0.91372968627E+02 0.  0.
         23    2    4    4    0    0  0.48997876544E+03  0.45306301289E+03  0.27075930014E+03  0.72636272467E+03  0.94588186148E+02 0.  0.
          4    1    3    3  502    0 -0.12383747361E+03 -0.27557458903E+03 -0.73417016317E+03  0.79390358513E+03  0.00000000000E+00 0. -1.
         -3    1    3    3    0  502 -0.68280981076E+02 -0.17513851299E+03 -0.31784602302E+03  0.36927210219E+03  0.00000000000E+00 0.  1.
         11    1    5    5    0    0 -0.23273753117E+03  0.34060264687E+02 -0.70371801083E+02  0.24551792284E+03  0.00000000000E+00 0.  1.
        -11    1    5    5    0    0 -0.65122779575E+02 -0.36410175557E+02 -0.35185646573E+01  0.74693089379E+02  0.00000000000E+00 0. -1.
          1    1    6    6  503    0  0.30843577948E+03  0.32963711095E+03  0.14933933560E+03  0.47549499696E+03  0.00000000000E+00 0. -1.
         -1    1    6    6    0  503  0.18154298596E+03  0.12342590194E+03  0.12141996453E+03  0.25086772771E+03  0.00000000000E+00 0.  1.
<mgrwt>
<rscale>  0 0.20375759E+04</rscale>
<asrwt>0</asrwt>
<pdfrwt beam="1">  1        2 0.23576128E+00 0.20375759E+04</pdfrwt>
<pdfrwt beam="2">  1       -1 0.10420017E+00 0.20375759E+04</pdfrwt>
<totfact> 0.11129843E+01</totfact>
</mgrwt>
</event>
<event>
12    6  0.1395358E-007  0.1285346E+04  0.7818608E-02  0.9041268E-01
          2   -1    0    0  501    0  0.00000000000E+00  0.00000000000E+00  0.20585303086E+04  0.20585303086E+04  0.00000000000E+00 0. -1.
         -1   -1    0    0    0  501 -0.00000000000E+00 -0.00000000000E+00 -0.20064237435E+03  0.20064237435E+03  0.00000000000E+00 0.  1.
         24    2    1    2    0    0  0.34396877668E+02 -0.18397902956E+03  0.18125980920E+02  0.20288802582E+03  0.76181174332E+02 0.  0.
        254    2    1    2    0    0 -0.34396877668E+02  0.18397902956E+03  0.18397619533E+04  0.20562846571E+04  0.89919470514E+03 0.  0.
         23    2    4    4    0    0 -0.12236626516E+03 -0.31828048415E+03  0.10886718491E+04  0.11443990111E+04  0.90369973443E+02 0.  0.
         23    2    4    4    0    0  0.87969387496E+02  0.50225951371E+03  0.75109010417E+03  0.91188564601E+03  0.85999154414E+02 0.  0.
          2    1    3    3  502    0  0.31146569563E+02 -0.10524525952E+03  0.46408378710E+02  0.11916547764E+03  0.00000000000E+00 0. -1.
         -1    1    3    3    0  502  0.32503081052E+01 -0.78733770042E+02 -0.28282397790E+02  0.83722548173E+02  0.00000000000E+00 0.  1.
         11    1    5    5    0    0 -0.54651920623E+02 -0.23787105335E+03  0.83122670302E+03  0.86631824537E+03  0.00000000000E+00 0.  1.
        -11    1    5    5    0    0 -0.67714344541E+02 -0.80409430798E+02  0.25744514611E+03  0.27808076574E+03  0.00000000000E+00 0. -1.
          3    1    6    6  503    0  0.10063470522E+03  0.43732142833E+03  0.62399377036E+03  0.76859976647E+03  0.00000000000E+00 0. -1.
         -3    1    6    6    0  503 -0.12665317723E+02  0.64938085379E+02  0.12709633382E+03  0.14328587954E+03  0.00000000000E+00 0.  1.
<mgrwt>
<rscale>  0 0.12853457E+04</rscale>
<asrwt>0</asrwt>
<pdfrwt beam="1">  1        2 0.31669696E+00 0.12853457E+04</pdfrwt>
<pdfrwt beam="2">  1       -1 0.30868059E-01 0.12853457E+04</pdfrwt>
<totfact> 0.67303231E+01</totfact>
</mgrwt>
</event>
<event>
12    6  0.1395358E-007  0.1097390E+04  0.7818608E-02  0.9207740E-01
          2   -1    0    0  501    0  0.00000000000E+00  0.00000000000E+00  0.93206225945E+03  0.93206225945E+03  0.00000000000E+00 0. -1.
         -1   -1    0    0    0  501 -0.00000000000E+00 -0.00000000000E+00 -0.32301064625E+03  0.32301064625E+03  0.00000000000E+00 0.  1.
         24    2    1    2    0    0 -0.12799110545E+03  0.53082390920E+02  0.22711370011E+03  0.27697292312E+03  0.77031837971E+02 0.  0.
        254    2    1    2    0    0  0.12799110545E+03 -0.53082390920E+02  0.38193791309E+03  0.97809998259E+03  0.88972104796E+03 0.  0.
         23    2    4    4    0    0  0.33457086954E+03  0.41318088772E+02 -0.15953243933E+03  0.38376947455E+03  0.90463026676E+02 0.  0.
         23    2    4    4    0    0 -0.20657976409E+03 -0.94400479692E+02  0.54147035243E+03  0.59433050803E+03  0.91934545871E+02 0.  0.
          2    1    3    3  502    0 -0.24756941182E+02  0.18077785090E+02  0.12108398010E+03  0.12490413398E+03  0.00000000000E+00 0. -1.
         -1    1    3    3    0  502 -0.10323416427E+03  0.35004605830E+02  0.10602972002E+03  0.15206878913E+03  0.00000000000E+00 0.  1.
         11    1    5    5    0    0  0.15177717564E+02 -0.10858319575E+02 -0.29687941560E+02  0.35066224326E+02  0.00000000000E+00 0.  1.
        -11    1    5    5    0    0  0.31939315198E+03  0.52176408347E+02 -0.12984449777E+03  0.34870325023E+03  0.00000000000E+00 0. -1.
          2    1    6    6  503    0 -0.15632020287E+03 -0.11026439323E+03  0.44564818474E+03  0.48497066591E+03  0.00000000000E+00 0. -1.
         -2    1    6    6    0  503 -0.50259561223E+02  0.15863913542E+02  0.95822167691E+02  0.10935984212E+03  0.00000000000E+00 0.  1.
<mgrwt>
<rscale>  0 0.10973897E+04</rscale>
<asrwt>0</asrwt>
<pdfrwt beam="1">  1        2 0.14339419E+00 0.10973897E+04</pdfrwt>
<pdfrwt beam="2">  1       -1 0.49693946E-01 0.10973897E+04</pdfrwt>
<totfact> 0.12832440E+02</totfact>
</mgrwt>
</event>
<event>
12    6  0.1395358E-007  0.2018766E+04  0.7818608E-02  0.8597897E-01
          2   -1    0    0  501    0  0.00000000000E+00  0.00000000000E+00  0.26061641922E+04  0.26061641922E+04  0.00000000000E+00 0. -1.
         -1   -1    0    0    0  501 -0.00000000000E+00 -0.00000000000E+00 -0.39094000807E+03  0.39094000807E+03  0.00000000000E+00 0.  1.
         24    2    1    2    0    0  0.53178839040E+03 -0.23715224419E+03  0.17174087281E+04  0.18149743124E+04  0.74826038462E+02 0.  0.
        254    2    1    2    0    0 -0.53178839040E+03  0.23715224419E+03  0.49781545598E+03  0.11821298879E+04  0.90031703555E+03 0.  0.
         23    2    4    4    0    0 -0.65882813300E+03  0.16070556084E+03  0.32381640675E+02  0.68499218804E+03  0.91021650762E+02 0.  0.
         23    2    4    4    0    0  0.12703974260E+03  0.76446683353E+02  0.46543381531E+03  0.49713769983E+03  0.92380000872E+02 0.  0.
          4    1    3    3  502    0  0.33277564326E+03 -0.18685590736E+03  0.11356796663E+04  0.11980914252E+04  0.00000000000E+00 0. -1.
         -3    1    3    3    0  502  0.19901274714E+03 -0.50296336836E+02  0.58172906185E+03  0.61688288712E+03  0.00000000000E+00 0.  1.
         11    1    5    5    0    0 -0.50647562286E+03  0.94650871650E+02  0.51631331795E+02  0.51782442823E+03  0.00000000000E+00 0.  1.
        -11    1    5    5    0    0 -0.15235251014E+03  0.66054689191E+02 -0.19249691120E+02  0.16716775981E+03  0.00000000000E+00 0. -1.
          1    1    6    6  503    0 -0.67831757784E+01  0.30167485402E+02  0.56876948506E+02  0.64738519603E+02  0.00000000000E+00 0. -1.
         -1    1    6    6    0  503  0.13382291838E+03  0.46279197951E+02  0.40855686680E+03  0.43239918022E+03  0.00000000000E+00 0.  1.
<mgrwt>
<rscale>  0 0.20187658E+04</rscale>
<asrwt>0</asrwt>
<pdfrwt beam="1">  1        2 0.40094833E+00 0.20187658E+04</pdfrwt>
<pdfrwt beam="2">  1       -1 0.60144618E-01 0.20187658E+04</pdfrwt>
<totfact> 0.89395712E+00</totfact>
</mgrwt>
</event>
<event>
12    6  0.1395358E-007  0.2893033E+04  0.7818608E-02  0.8274953E-01
         -1   -1    0    0    0  501 -0.00000000000E+00  0.00000000000E+00  0.71383928480E+03  0.71383928480E+03  0.00000000000E+00 0.  1.
          2   -1    0    0  501    0  0.00000000000E+00 -0.00000000000E+00 -0.29312056446E+04  0.29312056446E+04  0.00000000000E+00 0. -1.
         24    2    1    2    0    0  0.32627437545E+03  0.82154968738E+03 -0.22118990246E+04  0.23833328950E+04  0.79872002375E+02 0.  0.
        254    2    1    2    0    0 -0.32627437545E+03 -0.82154968738E+03 -0.54673352687E+01  0.12617120344E+04  0.90027135303E+03 0.  0.
         23    2    4    4    0    0 -0.60616900528E+03 -0.44773418183E+03  0.11840617608E+03  0.76959862411E+03  0.10176079380E+03 0.  0.
         23    2    4    4    0    0  0.27989462983E+03 -0.37381550554E+03 -0.12387351135E+03  0.49211341029E+03  0.93551727807E+02 0.  0.
          4    1    3    3  502    0  0.16531251921E+03  0.50213934071E+03 -0.12568511429E+04  0.13635053875E+04  0.00000000000E+00 0. -1.
         -3    1    3    3    0  502  0.16096185624E+03  0.31941034667E+03 -0.95504788170E+03  0.10198275075E+04  0.00000000000E+00 0.  1.
         11    1    5    5    0    0 -0.31983103127E+03 -0.24119436727E+03  0.11636123107E+02  0.40075180689E+03  0.00000000000E+00 0.  1.
        -11    1    5    5    0    0 -0.28633797401E+03 -0.20653981456E+03  0.10677005297E+03  0.36884681722E+03  0.00000000000E+00 0. -1.
          1    1    6    6  503    0  0.72939122076E+02 -0.15355621362E+03 -0.75594151483E+02  0.18604865495E+03  0.00000000000E+00 0. -1.
         -1    1    6    6    0  503  0.20695550775E+03 -0.22025929192E+03 -0.48279359866E+02  0.30606475533E+03  0.00000000000E+00 0.  1.
<mgrwt>
<rscale>  0 0.28930328E+04</rscale>
<asrwt>0</asrwt>
<pdfrwt beam="1">  1        2 0.45095471E+00 0.28930328E+04</pdfrwt>
<pdfrwt beam="2">  1       -1 0.10982143E+00 0.28930328E+04</pdfrwt>
<totfact> 0.14441932E+00</totfact>
</mgrwt>
</event>
<event>
12    6  0.1395358E-007  0.2182459E+04  0.7818608E-02  0.8525765E-01
          2   -1    0    0  501    0  0.00000000000E+00  0.00000000000E+00  0.70269087732E+03  0.70269087732E+03  0.00000000000E+00 0. -1.
         -1   -1    0    0    0  501 -0.00000000000E+00 -0.00000000000E+00 -0.16946031963E+04  0.16946031963E+04  0.00000000000E+00 0.  1.
         24    2    1    2    0    0  0.34666312364E+03  0.43854292655E+03 -0.11887514240E+04  0.13161973301E+04  0.82159867841E+02 0.  0.
        254    2    1    2    0    0 -0.34666312364E+03 -0.43854292655E+03  0.19683910507E+03  0.10810967435E+04  0.90417327755E+03 0.  0.
         23    2    4    4    0    0 -0.16610287810E+03  0.58134279842E+02  0.44714722624E+03  0.48941973750E+03  0.92850831528E+02 0.  0.
         23    2    4    4    0    0 -0.18056024555E+03 -0.49667720639E+03 -0.25030812118E+03  0.59167700601E+03  0.90206841751E+02 0.  0.
          4    1    3    3  502    0  0.65055308352E+02  0.68762899757E+02 -0.13926922332E+03  0.16839372343E+03  0.00000000000E+00 0. -1.
         -1    1    3    3    0  502  0.28160781529E+03  0.36978002679E+03 -0.10494822007E+04  0.11478036066E+04  0.00000000000E+00 0.  1.
         11    1    5    5    0    0 -0.15036444699E+03  0.17302646497E+02  0.38246903489E+03  0.41132883578E+03  0.00000000000E+00 0.  1.
        -11    1    5    5    0    0 -0.15738431109E+02  0.40831633344E+02  0.64678191357E+02  0.78090901727E+02  0.00000000000E+00 0. -1.
          1    1    6    6  503    0 -0.50250587073E+02 -0.12452313949E+03 -0.22085484017E+02  0.13608417385E+03  0.00000000000E+00 0. -1.
         -1    1    6    6    0  503 -0.13030965847E+03 -0.37215406690E+03 -0.22822263716E+03  0.45559283216E+03  0.00000000000E+00 0.  1.
<mgrwt>
<rscale>  0 0.21824594E+04</rscale>
<asrwt>0</asrwt>
<pdfrwt beam="1">  1        2 0.10810629E+00 0.21824594E+04</pdfrwt>
<pdfrwt beam="2">  1       -1 0.26070818E+00 0.21824594E+04</pdfrwt>
<totfact> 0.25288907E+00</totfact>
</mgrwt>
</event>
<event>
12    6  0.1395358E-007  0.2120600E+04  0.7818608E-02  0.8552223E-01
         -1   -1    0    0    0  501 -0.00000000000E+00  0.00000000000E+00  0.73908180671E+03  0.73908180671E+03  0.00000000000E+00 0.  1.
          2   -1    0    0  501    0  0.00000000000E+00 -0.00000000000E+00 -0.15211256659E+04  0.15211256659E+04  0.00000000000E+00 0. -1.
         24    2    1    2    0    0  0.25591436731E+01 -0.76226556982E+03  0.11703769563E+03  0.77510310309E+03  0.77663698550E+02 0.  0.
        254    2    1    2    0    0 -0.25591436731E+01  0.76226556982E+03 -0.89908155480E+03  0.14851043695E+04  0.90340024241E+03 0.  0.
         23    2    4    4    0    0 -0.30271300197E+03  0.62316503518E+03 -0.90332706768E+03  0.11419433543E+04  0.89805403920E+02 0.  0.
         23    2    4    4    0    0  0.30015385830E+03  0.13910053464E+03  0.42455128879E+01  0.34316101521E+03  0.91105217146E+02 0.  0.
          4    1    3    3  502    0  0.10322719387E+02 -0.42908178137E+03  0.27886716145E+02  0.43011091893E+03  0.00000000000E+00 0. -1.
         -3    1    3    3    0  502 -0.77635757139E+01 -0.33318378844E+03  0.89150979482E+02  0.34499218416E+03  0.00000000000E+00 0.  1.
         11    1    5    5    0    0 -0.18202789119E+03  0.45772829808E+03 -0.60666193553E+03  0.78146532365E+03  0.00000000000E+00 0.  1.
        -11    1    5    5    0    0 -0.12068511079E+03  0.16543673710E+03 -0.29666513215E+03  0.36047803065E+03  0.00000000000E+00 0. -1.
          4    1    6    6  503    0  0.31256721755E+02  0.39070668183E+02  0.24175870266E+02  0.55569528252E+02  0.00000000000E+00 0. -1.
         -4    1    6    6    0  503  0.26889713654E+03  0.10002986646E+03 -0.19930357378E+02  0.28759148696E+03  0.00000000000E+00 0.  1.
<mgrwt>
<rscale>  0 0.21206002E+04</rscale>
<asrwt>0</asrwt>
<pdfrwt beam="1">  1        2 0.23401933E+00 0.21206002E+04</pdfrwt>
<pdfrwt beam="2">  1       -1 0.11370489E+00 0.21206002E+04</pdfrwt>
<totfact> 0.91296131E+00</totfact>
</mgrwt>
</event>
<event>
12    6  0.1395358E-007  0.3824266E+04  0.7818608E-02  0.8040967E-01
         -1   -1    0    0    0  501 -0.00000000000E+00  0.00000000000E+00  0.12186858969E+04  0.12186858969E+04  0.00000000000E+00 0.  1.
          2   -1    0    0  501    0  0.00000000000E+00 -0.00000000000E+00 -0.30001597394E+04  0.30001597394E+04  0.00000000000E+00 0. -1.
         24    2    1    2    0    0 -0.15078474268E+04  0.73911836702E+03 -0.15726351883E+04  0.23020486242E+04  0.79665610103E+02 0.  0.
        254    2    1    2    0    0  0.15078474268E+04 -0.73911836702E+03 -0.20883865419E+03  0.19167970122E+04  0.90033181623E+03 0.  0.
         23    2    4    4    0    0  0.47366059535E+03 -0.59950456800E+03 -0.37444884485E+03  0.85617739902E+03  0.95224547969E+02 0.  0.
         23    2    4    4    0    0  0.10341868315E+04 -0.13961379902E+03  0.16561019067E+03  0.10606196132E+04  0.91939182408E+02 0.  0.
          2    1    3    3  502    0 -0.95327893067E+03  0.46273379168E+03 -0.10442474319E+04  0.14877217417E+04  0.00000000000E+00 0. -1.
         -1    1    3    3    0  502 -0.55456849618E+03  0.27638457534E+03 -0.52838775642E+03  0.81432688251E+03  0.00000000000E+00 0.  1.
         11    1    5    5    0    0  0.25680562602E+03 -0.25983565273E+03 -0.15022583930E+03  0.39500822621E+03  0.00000000000E+00 0.  1.
        -11    1    5    5    0    0  0.21685496934E+03 -0.33966891527E+03 -0.22422300555E+03  0.46116917281E+03  0.00000000000E+00 0. -1.
          3    1    6    6  503    0  0.90189486384E+03 -0.15213388402E+03  0.13993485506E+03  0.92527878380E+03  0.00000000000E+00 0. -1.
         -3    1    6    6    0  503  0.13229196765E+03  0.12520085006E+02  0.25675335603E+02  0.13534082936E+03  0.00000000000E+00 0.  1.
<mgrwt>
<rscale>  0 0.38242659E+04</rscale>
<asrwt>0</asrwt>
<pdfrwt beam="1">  1        2 0.46156303E+00 0.38242659E+04</pdfrwt>
<pdfrwt beam="2">  1       -1 0.18749014E+00 0.38242659E+04</pdfrwt>
<totfact> 0.29094108E-01</totfact>
</mgrwt>
</event>
<event>
12    6  0.1395358E-007  0.1363061E+04  0.7818608E-02  0.8981000E-01
         -1   -1    0    0    0  501 -0.00000000000E+00  0.00000000000E+00  0.25233458549E+03  0.25233458549E+03  0.00000000000E+00 0.  1.
          2   -1    0    0  501    0  0.00000000000E+00 -0.00000000000E+00 -0.18407452269E+04  0.18407452269E+04  0.00000000000E+00 0. -1.
         24    2    1    2    0    0 -0.34829066551E+03 -0.82720055036E+02 -0.26180591704E+03  0.45058324598E+03  0.79585979772E+02 0.  0.
        254    2    1    2    0    0  0.34829066551E+03  0.82720055036E+02 -0.13266047244E+04  0.16424965664E+04  0.89986992435E+03 0.  0.
         23    2    4    4    0    0 -0.23210957694E+03 -0.19134755059E+03 -0.35293214835E+03  0.47262871126E+03  0.91258186184E+02 0.  0.
         23    2    4    4    0    0  0.58040024246E+03  0.27406760562E+03 -0.97367257606E+03  0.11698678552E+04  0.92601400159E+02 0.  0.
          4    1    3    3  502    0 -0.13334192924E+03 -0.37580407008E+02 -0.14978266716E+03  0.20402746008E+03  0.00000000000E+00 0. -1.
         -3    1    3    3    0  502 -0.21494873628E+03 -0.45139648028E+02 -0.11202324987E+03  0.24655578591E+03  0.00000000000E+00 0.  1.
         11    1    5    5    0    0 -0.14861362272E+03 -0.14567414292E+03 -0.17960081897E+03  0.27488801165E+03  0.00000000000E+00 0. -1.
        -11    1    5    5    0    0 -0.83495954227E+02 -0.45673407669E+02 -0.17333132938E+03  0.19774069961E+03  0.00000000000E+00 0.  1.
          1    1    6    6  503    0  0.52198367771E+03  0.27509563432E+03 -0.88233076011E+03  0.10614387114E+04  0.00000000000E+00 0. -1.
         -1    1    6    6    0  503  0.58416564744E+02 -0.10280286976E+01 -0.91341815952E+02  0.10842914378E+03  0.00000000000E+00 0.  1.
<mgrwt>
<rscale>  0 0.13630608E+04</rscale>
<asrwt>0</asrwt>
<pdfrwt beam="1">  1        2 0.28319156E+00 0.13630608E+04</pdfrwt>
<pdfrwt beam="2">  1       -1 0.38820707E-01 0.13630608E+04</pdfrwt>
<totfact> 0.58594154E+01</totfact>
</mgrwt>
</event>
<event>
12    6  0.1395358E-007  0.3611301E+04  0.7818608E-02  0.8087908E-01
         -1   -1    0    0    0  501 -0.00000000000E+00  0.00000000000E+00  0.14174688690E+04  0.14174688690E+04  0.00000000000E+00 0.  1.
          2   -1    0    0  501    0  0.00000000000E+00 -0.00000000000E+00 -0.23001381602E+04  0.23001381602E+04  0.00000000000E+00 0. -1.
         24    2    1    2    0    0 -0.22096852107E+03  0.16766366990E+04 -0.48301633009E+03  0.17605187327E+04  0.78636666303E+02 0.  0.
        254    2    1    2    0    0  0.22096852107E+03 -0.16766366990E+04 -0.39965296109E+03  0.19570882966E+04  0.90029684182E+03 0.  0.
         23    2    4    4    0    0 -0.11004924349E+03 -0.56870306030E+03  0.23935365901E+03  0.63324189232E+03  0.90394210658E+02 0.  0.
         23    2    4    4    0    0  0.33101776457E+03 -0.11079336387E+04 -0.63900662010E+03  0.13238464042E+04  0.84558460257E+02 0.  0.
          2    1    3    3  502    0 -0.40903772815E+02  0.40009759091E+03 -0.14771497619E+03  0.42845176517E+03  0.00000000000E+00 0. -1.
         -1    1    3    3    0  502 -0.18006474826E+03  0.12765391081E+04 -0.33530135390E+03  0.13320669675E+04  0.00000000000E+00 0.  1.
         11    1    5    5    0    0  0.36611151256E+01 -0.64352581948E+02  0.23551724318E+01  0.64499654298E+02  0.00000000000E+00 0. -1.
        -11    1    5    5    0    0 -0.11371035862E+03 -0.50435047835E+03  0.23699848658E+03  0.56874223802E+03  0.00000000000E+00 0.  1.
          3    1    6    6  503    0  0.11338095956E+03 -0.45158822354E+03 -0.21631238290E+03  0.51339868779E+03  0.00000000000E+00 0. -1.
         -3    1    6    6    0  503  0.21763680501E+03 -0.65634541519E+03 -0.42269423720E+03  0.81044771645E+03  0.00000000000E+00 0.  1.
<mgrwt>
<rscale>  0 0.36113013E+04</rscale>
<asrwt>0</asrwt>
<pdfrwt beam="1">  1        2 0.35386740E+00 0.36113013E+04</pdfrwt>
<pdfrwt beam="2">  1       -1 0.21807214E+00 0.36113013E+04</pdfrwt>
<totfact> 0.47574446E-01</totfact>
</mgrwt>
</event>
<event>
12    6  0.1395358E-007  0.3213136E+04  0.7818608E-02  0.8185357E-01
          2   -1    0    0  501    0  0.00000000000E+00  0.00000000000E+00  0.33111488048E+04  0.33111488048E+04  0.00000000000E+00 0. -1.
         -1   -1    0    0    0  501 -0.00000000000E+00 -0.00000000000E+00 -0.77950602686E+03  0.77950602686E+03  0.00000000000E+00 0.  1.
         24    2    1    2    0    0  0.10100404408E+03 -0.14708600976E+04  0.10144691373E+04  0.17912838902E+04  0.76935694212E+02 0.  0.
        254    2    1    2    0    0 -0.10100404408E+03  0.14708600976E+04  0.15171736407E+04  0.22993709415E+04  0.90092154316E+03 0.  0.
         23    2    4    4    0    0 -0.21089132416E+02 -0.10892668142E+03  0.12009245355E+03  0.18683621866E+03  0.90420140312E+02 0.  0.
         23    2    4    4    0    0 -0.79914911668E+02  0.15797867790E+04  0.13970811871E+04  0.21125347228E+04  0.94098094554E+02 0.  0.
          2    1    3    3  502    0  0.15824678985E+02 -0.69352047870E+03  0.50316151764E+03  0.85696708669E+03  0.00000000000E+00 0. -1.
         -1    1    3    3    0  502  0.85179365099E+02 -0.77733961891E+03  0.51130761961E+03  0.93431680347E+03  0.00000000000E+00 0.  1.
         11    1    5    5    0    0 -0.56065733485E+02 -0.75295433073E+02  0.87908392161E+02  0.12861047440E+03  0.00000000000E+00 0.  1.
        -11    1    5    5    0    0  0.34976601070E+02 -0.33631248347E+02  0.32184061389E+02  0.58225744266E+02  0.00000000000E+00 0. -1.
          3    1    6    6  503    0 -0.16649135067E+02  0.21624469605E+03  0.23583270751E+03  0.32039979432E+03  0.00000000000E+00 0. -1.
         -3    1    6    6    0  503 -0.63265776601E+02  0.13635420830E+04  0.11612484796E+04  0.17921349285E+04  0.00000000000E+00 0.  1.
<mgrwt>
<rscale>  0 0.32131358E+04</rscale>
<asrwt>0</asrwt>
<pdfrwt beam="1">  1        2 0.50940750E+00 0.32131358E+04</pdfrwt>
<pdfrwt beam="2">  1       -1 0.11992401E+00 0.32131358E+04</pdfrwt>
<totfact> 0.64781341E-01</totfact>
</mgrwt>
</event>
<event>
12    6  0.1395358E-007  0.2311848E+04  0.7818608E-02  0.8473264E-01
         -1   -1    0    0    0  501 -0.00000000000E+00  0.00000000000E+00  0.11303016764E+04  0.11303016764E+04  0.00000000000E+00 0.  1.
          2   -1    0    0  501    0  0.00000000000E+00 -0.00000000000E+00 -0.11821269881E+04  0.11821269881E+04  0.00000000000E+00 0. -1.
         24    2    1    2    0    0 -0.90039809447E+03 -0.34657421711E+03 -0.18176623405E+03  0.98496602605E+03  0.79301274568E+02 0.  0.
        254    2    1    2    0    0  0.90039809447E+03  0.34657421711E+03  0.12994092230E+03  0.13274626385E+04  0.90246440193E+03 0.  0.
         23    2    4    4    0    0  0.10529029451E+04  0.39584185474E+03  0.55684688618E+02  0.11296793620E+04  0.88200286936E+02 0.  0.
         23    2    4    4    0    0 -0.15250485066E+03 -0.49267637626E+02  0.74256233680E+02  0.19778327644E+03  0.88989924186E+02 0.  0.
          4    1    3    3  502    0 -0.88445290783E+03 -0.33891907139E+03 -0.18903107562E+03  0.96584462036E+03  0.00000000000E+00 0. -1.
         -1    1    3    3    0  502 -0.15945186632E+02 -0.76551457196E+01  0.72648415609E+01  0.19121405692E+02  0.00000000000E+00 0.  1.
         11    1    5    5    0    0  0.99854232654E+03  0.37959462312E+03  0.71883528749E+02  0.10706755333E+04  0.00000000000E+00 0. -1.
        -11    1    5    5    0    0  0.54360618588E+02  0.16247231619E+02 -0.16198840131E+02  0.59003828775E+02  0.00000000000E+00 0.  1.
          3    1    6    6  503    0 -0.14174115137E+03 -0.32678099293E+02  0.91247712380E+02  0.17171067870E+03  0.00000000000E+00 0. -1.
         -3    1    6    6    0  503 -0.10763699292E+02 -0.16589538334E+02 -0.16991478700E+02  0.26072597741E+02  0.00000000000E+00 0.  1.
<mgrwt>
<rscale>  0 0.23118478E+04</rscale>
<asrwt>0</asrwt>
<pdfrwt beam="1">  1        2 0.18186569E+00 0.23118478E+04</pdfrwt>
<pdfrwt beam="2">  1       -1 0.17389257E+00 0.23118478E+04</pdfrwt>
<totfact> 0.46191194E+00</totfact>
</mgrwt>
</event>
<event>
12    6  0.1395358E-007  0.1405417E+04  0.7818608E-02  0.8949907E-01
          2   -1    0    0  501    0  0.00000000000E+00  0.00000000000E+00  0.24954170582E+04  0.24954170582E+04  0.00000000000E+00 0. -1.
         -1   -1    0    0    0  501 -0.00000000000E+00 -0.00000000000E+00 -0.19788239959E+03  0.19788239959E+03  0.00000000000E+00 0.  1.
         24    2    1    2    0    0 -0.30521263752E+03  0.24167501262E+03  0.46053407239E+03  0.61056026087E+03  0.95554353618E+02 0.  0.
        254    2    1    2    0    0  0.30521263752E+03 -0.24167501262E+03  0.18370005862E+04  0.20827391969E+04  0.90092721281E+03 0.  0.
         23    2    4    4    0    0 -0.19414346089E+03 -0.13665749128E+03  0.10515651124E+03  0.27502877221E+03  0.90642045206E+02 0.  0.
         23    2    4    4    0    0  0.49935609841E+03 -0.10501752134E+03  0.17318440750E+04  0.18077104247E+04  0.90265645382E+02 0.  0.
          2    1    3    3  502    0 -0.40010397278E+02  0.61931084816E+02  0.46973426014E+02  0.87423074233E+02  0.00000000000E+00 0. -1.
         -1    1    3    3    0  502 -0.26520224025E+03  0.17974392780E+03  0.41356064638E+03  0.52313718664E+03  0.00000000000E+00 0.  1.
         11    1    5    5    0    0 -0.11348806323E+03 -0.10773854003E+03  0.26489615557E+02  0.15870990277E+03  0.00000000000E+00 0.  1.
        -11    1    5    5    0    0 -0.80655397655E+02 -0.28918951251E+02  0.78666895680E+02  0.11631886944E+03  0.00000000000E+00 0. -1.
          4    1    6    6  503    0  0.18324538410E+03 -0.10695663274E+02  0.74093264469E+03  0.76333115485E+03  0.00000000000E+00 0.  1.
         -4    1    6    6    0  503  0.31611071431E+03 -0.94321858062E+02  0.99091143028E+03  0.10443792698E+04  0.00000000000E+00 0. -1.
<mgrwt>
<rscale>  0 0.14054168E+04</rscale>
<asrwt>0</asrwt>
<pdfrwt beam="1">  1        2 0.38391029E+00 0.14054168E+04</pdfrwt>
<pdfrwt beam="2">  1       -1 0.30443448E-01 0.14054168E+04</pdfrwt>
<totfact> 0.38730678E+01</totfact>
</mgrwt>
</event>
<event>
12    6  0.1395358E-007  0.2765511E+04  0.7818608E-02  0.8314056E-01
          2   -1    0    0  501    0  0.00000000000E+00  0.00000000000E+00  0.20462509542E+04  0.20462509542E+04  0.00000000000E+00 0. -1.
         -1   -1    0    0    0  501 -0.00000000000E+00 -0.00000000000E+00 -0.93439817854E+03  0.93439817854E+03  0.00000000000E+00 0.  1.
         24    2    1    2    0    0  0.23908066563E+03 -0.11195058571E+04  0.99237179403E+03  0.15171230824E+04  0.80048364581E+02 0.  0.
        254    2    1    2    0    0 -0.23908066563E+03  0.11195058571E+04  0.11948098159E+03  0.14635260503E+04  0.90398001432E+03 0.  0.
         23    2    4    4    0    0 -0.39070874268E+03  0.30484108108E+03 -0.23709581438E+03  0.55682877013E+03  0.90898007272E+02 0.  0.
         23    2    4    4    0    0  0.15162807705E+03  0.81466477602E+03  0.35657679598E+03  0.90669728021E+03  0.91011952339E+02 0.  0.
          2    1    3    3  502    0  0.74432757232E+02 -0.51939896227E+03  0.47754899526E+03  0.70948471458E+03  0.00000000000E+00 0. -1.
         -1    1    3    3    0  502  0.16464790840E+03 -0.60010689484E+03  0.51482279877E+03  0.80763836778E+03  0.00000000000E+00 0.  1.
         11    1    5    5    0    0 -0.45130311653E+02  0.50776480137E+02 -0.25811468507E+01  0.67982779320E+02  0.00000000000E+00 0.  1.
        -11    1    5    5    0    0 -0.34557843102E+03  0.25406460095E+03 -0.23451466753E+03  0.48884599081E+03  0.00000000000E+00 0. -1.
          4    1    6    6  503    0  0.11472916430E+03  0.75352647967E+03  0.32437678008E+03  0.82836298333E+03  0.00000000000E+00 0. -1.
         -4    1    6    6    0  503  0.36898912750E+02  0.61138296352E+02  0.32200015899E+02  0.78334296875E+02  0.00000000000E+00 0.  1.
<mgrwt>
<rscale>  0 0.27655113E+04</rscale>
<asrwt>0</asrwt>
<pdfrwt beam="1">  1        2 0.31480784E+00 0.27655113E+04</pdfrwt>
<pdfrwt beam="2">  1       -1 0.14375357E+00 0.27655113E+04</pdfrwt>
<totfact> 0.24432983E+00</totfact>
</mgrwt>
</event>
<event>
12    6  0.1395358E-007  0.1406681E+04  0.7818608E-02  0.8948997E-01
         -1   -1    0    0    0  501 -0.00000000000E+00  0.00000000000E+00  0.26587580969E+03  0.26587580969E+03  0.00000000000E+00 0.  1.
          2   -1    0    0  501    0  0.00000000000E+00 -0.00000000000E+00 -0.18605974924E+04  0.18605974924E+04  0.00000000000E+00 0. -1.
         24    2    1    2    0    0 -0.23761443691E+03 -0.20767184134E+03 -0.87139743536E+03  0.93076434789E+03  0.86026546123E+02 0.  0.
        254    2    1    2    0    0  0.23761443691E+03  0.20767184134E+03 -0.72332424734E+03  0.11957089542E+04  0.89829489703E+03 0.  0.
         23    2    4    4    0    0 -0.30908403644E+03 -0.63010908017E+02 -0.18639650972E+03  0.37747437942E+03  0.90774072136E+02 0.  0.
         23    2    4    4    0    0  0.54669847335E+03  0.27068274936E+03 -0.53692773762E+03  0.81823457477E+03  0.95226321773E+02 0.  0.
          2    1    3    3  502    0 -0.21551512523E+03 -0.21299321734E+03 -0.82929885767E+03  0.88292099033E+03  0.00000000000E+00 0. -1.
         -1    1    3    3    0  502 -0.22099311675E+02  0.53213759934E+01 -0.42098577690E+02  0.47843357559E+02  0.00000000000E+00 0.  1.
         11    1    5    5    0    0 -0.31388532824E+03 -0.55939855495E+02 -0.18553133746E+03  0.36888364548E+03  0.00000000000E+00 0. -1.
        -11    1    5    5    0    0  0.48012918017E+01 -0.70710525222E+01 -0.86517226326E+00  0.85907339489E+01  0.00000000000E+00 0.  1.
          3    1    6    6  503    0  0.54325663679E+03  0.25372820303E+03 -0.51574470877E+03  0.79088455482E+03  0.00000000000E+00 0. -1.
         -3    1    6    6    0  503  0.34418365636E+01  0.16954546328E+02 -0.21183028841E+02  0.27350019945E+02  0.00000000000E+00 0.  1.
<mgrwt>
<rscale>  0 0.14066810E+04</rscale>
<asrwt>0</asrwt>
<pdfrwt beam="1">  1        2 0.28624577E+00 0.14066810E+04</pdfrwt>
<pdfrwt beam="2">  1       -1 0.40903971E-01 0.14066810E+04</pdfrwt>
<totfact> 0.51747149E+01</totfact>
</mgrwt>
</event>
<event>
12    6  0.1395358E-007  0.2938633E+04  0.7818608E-02  0.8261475E-01
         -1   -1    0    0    0  501 -0.00000000000E+00  0.00000000000E+00  0.10110322027E+04  0.10110322027E+04  0.00000000000E+00 0.  1.
          2   -1    0    0  501    0  0.00000000000E+00 -0.00000000000E+00 -0.21353333206E+04  0.21353333206E+04  0.00000000000E+00 0. -1.
         24    2    1    2    0    0  0.24111091502E+03  0.10281899007E+04 -0.13758032172E+04  0.17361569984E+04  0.78087676278E+02 0.  0.
        254    2    1    2    0    0 -0.24111091502E+03 -0.10281899007E+04  0.25150209931E+03  0.14102085250E+04  0.90006990437E+03 0.  0.
         23    2    4    4    0    0  0.17950805932E+03  0.64805402078E+02  0.26419431283E+02  0.21335014585E+03  0.91637409857E+02 0.  0.
         23    2    4    4    0    0 -0.42061897434E+03 -0.10929953028E+04  0.22508266803E+03  0.11968583792E+04  0.10123595608E+03 0.  0.
          4    1    3    3  502    0  0.70993480636E+02  0.34073150725E+03 -0.39606174565E+03  0.52725984172E+03  0.00000000000E+00 0. -1.
         -3    1    3    3    0  502  0.17011743439E+03  0.68745839346E+03 -0.97974147156E+03  0.12088971566E+04  0.00000000000E+00 0.  1.
         11    1    5    5    0    0  0.97198833639E+02  0.30075464729E+02 -0.31940187358E+02  0.10664109155E+03  0.00000000000E+00 0. -1.
        -11    1    5    5    0    0  0.82309225676E+02  0.34729937350E+02  0.58359618642E+02  0.10670905429E+03  0.00000000000E+00 0.  1.
          4    1    6    6  503    0 -0.34196209249E+03 -0.94809217503E+03  0.22157504578E+03  0.10319459026E+04  0.00000000000E+00 0. -1.
         -4    1    6    6    0  503 -0.78656881850E+02 -0.14490312776E+03  0.35076222483E+01  0.16491247652E+03  0.00000000000E+00 0.  1.
<mgrwt>
<rscale>  0 0.29386328E+04</rscale>
<asrwt>0</asrwt>
<pdfrwt beam="1">  1        2 0.32851282E+00 0.29386328E+04</pdfrwt>
<pdfrwt beam="2">  1       -1 0.15554342E+00 0.29386328E+04</pdfrwt>
<totfact> 0.17361437E+00</totfact>
</mgrwt>
</event>
<event>
12    6  0.1395358E-007  0.2937130E+04  0.7818608E-02  0.8261915E-01
         -1   -1    0    0    0  501 -0.00000000000E+00  0.00000000000E+00  0.13355287719E+04  0.13355287719E+04  0.00000000000E+00 0.  1.
          2   -1    0    0  501    0  0.00000000000E+00 -0.00000000000E+00 -0.16148538503E+04  0.16148538503E+04  0.00000000000E+00 0. -1.
         24    2    1    2    0    0 -0.77837202003E+03  0.10439966707E+04  0.14083890926E+03  0.13122479997E+04  0.79794512565E+02 0.  0.
        254    2    1    2    0    0  0.77837202003E+03 -0.10439966707E+04 -0.42016398769E+03  0.16381346226E+04  0.90064155753E+03 0.  0.
         23    2    4    4    0    0  0.87856198814E+03 -0.95654149881E+03 -0.13226408861E+03  0.13087598365E+04  0.92280628830E+02 0.  0.
         23    2    4    4    0    0 -0.10018996810E+03 -0.87455171915E+02 -0.28789989908E+03  0.32937478613E+03  0.88966066842E+02 0.  0.
          2    1    3    3  502    0 -0.38722108446E+03  0.45416723004E+03  0.56535408919E+02  0.59950337243E+03  0.00000000000E+00 0. -1.
         -1    1    3    3    0  502 -0.39115093557E+03  0.58982944068E+03  0.84303500346E+02  0.71274462725E+03  0.00000000000E+00 0.  1.
         11    1    5    5    0    0  0.16137796856E+03 -0.22915886471E+03 -0.17111756176E+02  0.28080143556E+03  0.00000000000E+00 0. -1.
        -11    1    5    5    0    0  0.71718401958E+03 -0.72738263410E+03 -0.11515233243E+03  0.10279584009E+04  0.00000000000E+00 0.  1.
          3    1    6    6  503    0 -0.56271582444E+02 -0.12852415789E+02 -0.19055020587E+03  0.19910061913E+03  0.00000000000E+00 0. -1.
         -3    1    6    6    0  503 -0.43918385658E+02 -0.74602756126E+02 -0.97349693211E+02  0.13027416700E+03  0.00000000000E+00 0.  1.
<mgrwt>
<rscale>  0 0.29371304E+04</rscale>
<asrwt>0</asrwt>
<pdfrwt beam="1">  1        2 0.24843905E+00 0.29371304E+04</pdfrwt>
<pdfrwt beam="2">  1       -1 0.20546596E+00 0.29371304E+04</pdfrwt>
<totfact> 0.14793517E+00</totfact>
</mgrwt>
</event>
<event>
12    6  0.1395358E-007  0.2481753E+04  0.7818608E-02  0.8409515E-01
          2   -1    0    0  501    0  0.00000000000E+00  0.00000000000E+00  0.81647788447E+03  0.81647788447E+03  0.00000000000E+00 0. -1.
         -1   -1    0    0    0  501 -0.00000000000E+00 -0.00000000000E+00 -0.18858740659E+04  0.18858740659E+04  0.00000000000E+00 0.  1.
         24    2    1    2    0    0 -0.67166903547E+03 -0.21021900382E+03  0.42340681609E+03  0.82525458268E+03  0.80252548583E+02 0.  0.
        254    2    1    2    0    0  0.67166903547E+03  0.21021900382E+03 -0.14928029975E+04  0.18770973677E+04  0.89426082078E+03 0.  0.
         23    2    4    4    0    0  0.59561722037E+03  0.38675183349E+03 -0.52874848804E+03  0.88976408648E+03  0.88138028574E+02 0.  0.
         23    2    4    4    0    0  0.76051815102E+02 -0.17653282967E+03 -0.96405450945E+03  0.98733328118E+03  0.92077100280E+02 0.  0.
          4    1    3    3  502    0 -0.18085484945E+03 -0.20776539173E+02  0.10015183197E+03  0.20777519245E+03  0.00000000000E+00 0. -1.
         -3    1    3    3    0  502 -0.49081418602E+03 -0.18944246464E+03  0.32325498412E+03  0.61747939024E+03  0.00000000000E+00 0.  1.
         11    1    5    5    0    0  0.51285667598E+02  0.22035270665E+02 -0.16912745680E+02  0.58325070259E+02  0.00000000000E+00 0. -1.
        -11    1    5    5    0    0  0.54433155277E+03  0.36471656282E+03 -0.51183574236E+03  0.83143901622E+03  0.00000000000E+00 0.  1.
          4    1    6    6  503    0  0.24879267999E+02 -0.14974639045E+02 -0.51024300885E+02  0.58708577495E+02  0.00000000000E+00 0. -1.
         -4    1    6    6    0  503  0.51172547103E+02 -0.16155819063E+03 -0.91303020856E+03  0.92862470368E+03  0.00000000000E+00 0.  1.
<mgrwt>
<rscale>  0 0.24817530E+04</rscale>
<asrwt>0</asrwt>
<pdfrwt beam="1">  1        2 0.12561198E+00 0.24817530E+04</pdfrwt>
<pdfrwt beam="2">  1       -1 0.29013447E+00 0.24817530E+04</pdfrwt>
<totfact> 0.13066796E+00</totfact>
</mgrwt>
</event>
<event>
12    6  0.1395358E-007  0.2577194E+04  0.7818608E-02  0.8375990E-01
          2   -1    0    0  501    0  0.00000000000E+00  0.00000000000E+00  0.10406844038E+04  0.10406844038E+04  0.00000000000E+00 0. -1.
         -1   -1    0    0    0  501 -0.00000000000E+00 -0.00000000000E+00 -0.15955669213E+04  0.15955669213E+04  0.00000000000E+00 0.  1.
         24    2    1    2    0    0  0.75430276882E+03 -0.65440883394E+03  0.29722379374E+03  0.10449573754E+04  0.79814434121E+02 0.  0.
        254    2    1    2    0    0 -0.75430276882E+03  0.65440883394E+03 -0.85210631118E+03  0.15912939497E+04  0.89939295070E+03 0.  0.
         23    2    4    4    0    0 -0.66215238325E+03  0.13036620448E+03 -0.13560713292E+03  0.69437714883E+03  0.91264475035E+02 0.  0.
         23    2    4    4    0    0 -0.92150385563E+02  0.52404262946E+03 -0.71649917826E+03  0.89691680085E+03  0.89310157028E+02 0.  0.
          4    1    3    3  502    0  0.46339800845E+03 -0.35048855017E+03  0.17864130225E+03  0.60785907323E+03  0.00000000000E+00 0. -1.
         -3    1    3    3    0  502  0.29090476037E+03 -0.30392028377E+03  0.11858249149E+03  0.43709830219E+03  0.00000000000E+00 0.  1.
         11    1    5    5    0    0 -0.32641122051E+03  0.37399353317E+02 -0.10379728678E+03  0.34455315011E+03  0.00000000000E+00 0.  1.
        -11    1    5    5    0    0 -0.33574116274E+03  0.92966851158E+02 -0.31809846139E+02  0.34982399873E+03  0.00000000000E+00 0. -1.
          4    1    6    6  503    0 -0.82912282847E+01  0.28759100386E+03 -0.35634760404E+03  0.45799666470E+03  0.00000000000E+00 0.  1.
         -4    1    6    6    0  503 -0.83859157279E+02  0.23645162561E+03 -0.36015157422E+03  0.43892013616E+03  0.00000000000E+00 0. -1.
<mgrwt>
<rscale>  0 0.25771935E+04</rscale>
<asrwt>0</asrwt>
<pdfrwt beam="1">  1        2 0.16010529E+00 0.25771935E+04</pdfrwt>
<pdfrwt beam="2">  1       -1 0.24547183E+00 0.25771935E+04</pdfrwt>
<totfact> 0.17891184E+00</totfact>
</mgrwt>
</event>
<event>
12    6  0.1395358E-007  0.3244053E+04  0.7818608E-02  0.8177279E-01
         -1   -1    0    0    0  501 -0.00000000000E+00  0.00000000000E+00  0.90287087393E+03  0.90287087393E+03  0.00000000000E+00 0.  1.
          2   -1    0    0  501    0  0.00000000000E+00 -0.00000000000E+00 -0.29140053986E+04  0.29140053986E+04  0.00000000000E+00 0. -1.
         24    2    1    2    0    0  0.13474865759E+04  0.63390059599E+03 -0.11127740704E+04  0.18607020419E+04  0.79974491678E+02 0.  0.
        254    2    1    2    0    0 -0.13474865759E+04 -0.63390059599E+03 -0.89836045426E+03  0.19561742306E+04  0.89555350307E+03 0.  0.
         23    2    4    4    0    0 -0.14490833912E+04 -0.47449788307E+03 -0.80506605545E+03  0.17266539694E+04  0.90618213877E+02 0.  0.
         23    2    4    4    0    0  0.10159681529E+03 -0.15940271292E+03 -0.93294398809E+02  0.22952026122E+03  0.90799601857E+02 0.  0.
          4    1    3    3  502    0  0.71840045321E+03  0.36857393341E+03 -0.63860620976E+03  0.10294483215E+04  0.00000000000E+00 0. -1.
         -3    1    3    3    0  502  0.62908612267E+03  0.26532666257E+03 -0.47416786063E+03  0.83125372039E+03  0.00000000000E+00 0.  1.
         11    1    5    5    0    0 -0.13806639266E+04 -0.43594629318E+03 -0.77761103949E+03  0.16434600626E+04  0.00000000000E+00 0.  1.
        -11    1    5    5    0    0 -0.68419464576E+02 -0.38551589888E+02 -0.27455015954E+02  0.83193906729E+02  0.00000000000E+00 0. -1.
          3    1    6    6  503    0  0.36424127414E+02  0.27157766785E+00 -0.24201867514E+02  0.43732381635E+02  0.00000000000E+00 0. -1.
         -3    1    6    6    0  503  0.65172687877E+02 -0.15967429058E+03 -0.69092531295E+02  0.18578787958E+03  0.00000000000E+00 0.  1.
<mgrwt>
<rscale>  0 0.32440534E+04</rscale>
<asrwt>0</asrwt>
<pdfrwt beam="1">  1        2 0.44830853E+00 0.32440534E+04</pdfrwt>
<pdfrwt beam="2">  1       -1 0.13890321E+00 0.32440534E+04</pdfrwt>
<totfact> 0.80262066E-01</totfact>
</mgrwt>
</event>
<event>
12    6  0.1395358E-007  0.1543125E+04  0.7818608E-02  0.8856271E-01
         -1   -1    0    0    0  501 -0.00000000000E+00  0.00000000000E+00  0.44004616705E+03  0.44004616705E+03  0.00000000000E+00 0.  1.
          2   -1    0    0  501    0  0.00000000000E+00 -0.00000000000E+00 -0.13528326828E+04  0.13528326828E+04  0.00000000000E+00 0. -1.
         24    2    1    2    0    0 -0.40087328091E+03  0.28965954018E+03 -0.41305110187E+03  0.64898632806E+03  0.77265805454E+02 0.  0.
        254    2    1    2    0    0  0.40087328091E+03 -0.28965954018E+03 -0.49973541385E+03  0.11438925218E+04  0.90230404017E+03 0.  0.
         23    2    4    4    0    0  0.21625225792E+03  0.29951720010E+03 -0.76689686646E+02  0.38990225595E+03  0.98320236712E+02 0.  0.
         23    2    4    4    0    0  0.18462102300E+03 -0.58917674028E+03 -0.42304572720E+03  0.75399026581E+03  0.91211184712E+02 0.  0.
          2    1    3    3  502    0 -0.35243197095E+03  0.22970097818E+03 -0.37246356223E+03  0.56187181697E+03  0.00000000000E+00 0. -1.
         -1    1    3    3    0  502 -0.48441309964E+02  0.59958562000E+02 -0.40587539639E+02  0.87114511088E+02  0.00000000000E+00 0.  1.
         11    1    5    5    0    0  0.13863867419E+03  0.11037611305E+03 -0.24465474855E+02  0.17889138541E+03  0.00000000000E+00 0.  1.
        -11    1    5    5    0    0  0.77613583725E+02  0.18914108705E+03 -0.52224211791E+02  0.21101087054E+03  0.00000000000E+00 0. -1.
          1    1    6    6  503    0  0.74921838315E+02 -0.11841666080E+03 -0.81211083369E+02  0.16195995639E+03  0.00000000000E+00 0. -1.
         -1    1    6    6    0  503  0.10969918468E+03 -0.47076007947E+03 -0.34183464383E+03  0.59203030942E+03  0.00000000000E+00 0.  1.
<mgrwt>
<rscale>  0 0.15431252E+04</rscale>
<asrwt>0</asrwt>
<pdfrwt beam="1">  1        2 0.20812811E+00 0.15431252E+04</pdfrwt>
<pdfrwt beam="2">  1       -1 0.67699410E-01 0.15431252E+04</pdfrwt>
<totfact> 0.37360385E+01</totfact>
</mgrwt>
</event>
<event>
12    6  0.1395358E-007  0.1393742E+04  0.7818608E-02  0.8958361E-01
          2   -1    0    0  501    0  0.00000000000E+00  0.00000000000E+00  0.94583775666E+03  0.94583775666E+03  0.00000000000E+00 0. -1.
         -1   -1    0    0    0  501 -0.00000000000E+00 -0.00000000000E+00 -0.51343830347E+03  0.51343830347E+03  0.00000000000E+00 0.  1.
         24    2    1    2    0    0  0.24781061106E+02 -0.39726165093E+03  0.17846344714E+03  0.44355257206E+03  0.80366422860E+02 0.  0.
        254    2    1    2    0    0 -0.24781061106E+02  0.39726165093E+03  0.25393600605E+03  0.10157234881E+04  0.89932184937E+03 0.  0.
         23    2    4    4    0    0  0.71972488694E+02 -0.23914557057E+03  0.25096921869E+03  0.36582195965E+03  0.92029964573E+02 0.  0.
         23    2    4    4    0    0 -0.96753549801E+02  0.63640722150E+03  0.29667873574E+01  0.64990152842E+03  0.89374458475E+02 0.  0.
          2    1    3    3  502    0  0.50644279947E+02 -0.29829023240E+03  0.14800441113E+03  0.33681925650E+03  0.00000000000E+00 0. -1.
         -1    1    3    3    0  502 -0.25863218840E+02 -0.98971418531E+02  0.30459036014E+02  0.10673331556E+03  0.00000000000E+00 0.  1.
         11    1    5    5    0    0  0.67533535084E+02 -0.72461895040E+02  0.10284184301E+03  0.14278637634E+03  0.00000000000E+00 0. -1.
        -11    1    5    5    0    0  0.44389536104E+01 -0.16668367553E+03  0.14812737568E+03  0.22303558331E+03  0.00000000000E+00 0.  1.
          4    1    6    6  503    0 -0.69245037439E+02  0.24261587971E+03 -0.28446478240E+02  0.25390262390E+03  0.00000000000E+00 0. -1.
         -4    1    6    6    0  503 -0.27508512361E+02  0.39379134179E+03  0.31413265598E+02  0.39599890452E+03  0.00000000000E+00 0.  1.
<mgrwt>
<rscale>  0 0.13937422E+04</rscale>
<asrwt>0</asrwt>
<pdfrwt beam="1">  1        2 0.14551350E+00 0.13937422E+04</pdfrwt>
<pdfrwt beam="2">  1       -1 0.78990509E-01 0.13937422E+04</pdfrwt>
<totfact> 0.48668049E+01</totfact>
</mgrwt>
</event>
<event>
12    6  0.1395358E-007  0.2384216E+04  0.7818608E-02  0.8445437E-01
         -1   -1    0    0    0  501 -0.00000000000E+00  0.00000000000E+00  0.10448050034E+04  0.10448050034E+04  0.00000000000E+00 0.  1.
          2   -1    0    0  501    0  0.00000000000E+00 -0.00000000000E+00 -0.13601785210E+04  0.13601785210E+04  0.00000000000E+00 0. -1.
         24    2    1    2    0    0 -0.54714546539E+03 -0.31204887977E+03 -0.94264257312E+03  0.11364275594E+04  0.78421384452E+02 0.  0.
        254    2    1    2    0    0  0.54714546539E+03  0.31204887977E+03  0.62726905547E+03  0.12685559649E+04  0.90500005778E+03 0.  0.
         23    2    4    4    0    0  0.53864856278E+03  0.48318464269E+03  0.13728571273E+03  0.74192934328E+03  0.89454515735E+02 0.  0.
         23    2    4    4    0    0  0.84969026074E+01 -0.17113576292E+03  0.48998334274E+03  0.52662662166E+03  0.88838481364E+02 0.  0.
          4    1    3    3  502    0 -0.17540706154E+03 -0.14011496958E+03 -0.35891781070E+03  0.42334600125E+03  0.00000000000E+00 0. -1.
         -3    1    3    3    0  502 -0.37173840384E+03 -0.17193391019E+03 -0.58372476242E+03  0.71308155819E+03  0.00000000000E+00 0.  1.
         11    1    5    5    0    0  0.38604817494E+03  0.37999620216E+03  0.71838308308E+02  0.54643485391E+03  0.00000000000E+00 0.  1.
        -11    1    5    5    0    0  0.15260038784E+03  0.10318844053E+03  0.65447404418E+02  0.19549448937E+03  0.00000000000E+00 0. -1.
          1    1    6    6  503    0 -0.28393991196E+02 -0.14261932891E+02  0.75213424178E+02  0.81649743676E+02  0.00000000000E+00 0. -1.
         -1    1    6    6    0  503  0.36890893803E+02 -0.15687383003E+03  0.41476991856E+03  0.44497687798E+03  0.00000000000E+00 0.  1.
<mgrwt>
<rscale>  0 0.23842159E+04</rscale>
<asrwt>0</asrwt>
<pdfrwt beam="1">  1        2 0.20925823E+00 0.23842159E+04</pdfrwt>
<pdfrwt beam="2">  1       -1 0.16073923E+00 0.23842159E+04</pdfrwt>
<totfact> 0.45150777E+00</totfact>
</mgrwt>
</event>
<event>
12    6  0.1395358E-007  0.3421970E+04  0.7818608E-02  0.8132535E-01
          2   -1    0    0  501    0  0.00000000000E+00  0.00000000000E+00  0.26086951647E+04  0.26086951647E+04  0.00000000000E+00 0. -1.
         -3   -1    0    0    0  501 -0.00000000000E+00 -0.00000000000E+00 -0.11221970837E+04  0.11221970837E+04  0.00000000000E+00 0.  1.
         24    2    1    2    0    0  0.11312439314E+03 -0.15545931247E+04  0.10410047274E+04  0.18761297511E+04  0.81333196501E+02 0.  0.
        254    2    1    2    0    0 -0.11312439314E+03  0.15545931247E+04  0.44549335360E+03  0.18547624973E+04  0.90117849586E+03 0.  0.
         23    2    4    4    0    0  0.30868551184E+03  0.75898337359E+03  0.47119808520E+03  0.94924960412E+03  0.87776242941E+02 0.  0.
         23    2    4    4    0    0 -0.42180990499E+03  0.79560975112E+03 -0.25704731599E+02  0.90551289313E+03  0.91511717154E+02 0.  0.
          4    1    3    3  502    0  0.85922819877E+01 -0.49322114713E+03  0.36102790682E+03  0.61129540878E+03  0.00000000000E+00 0. -1.
         -3    1    3    3    0  502  0.10453211116E+03 -0.10613719776E+04  0.67997682062E+03  0.12648343424E+04  0.00000000000E+00 0.  1.
         11    1    5    5    0    0  0.51458844615E+02  0.68990253053E+02  0.68158527683E+02  0.10978730619E+03  0.00000000000E+00 0.  1.
        -11    1    5    5    0    0  0.25722666723E+03  0.68999312054E+03  0.40303955752E+03  0.83946229793E+03  0.00000000000E+00 0. -1.
          1    1    6    6  503    0 -0.13752710371E+02  0.74108640464E+02  0.88605350426E+01  0.75892929284E+02  0.00000000000E+00 0.  1.
         -1    1    6    6    0  503 -0.40805719462E+03  0.72150111066E+03 -0.34565266642E+02  0.82961996385E+03  0.00000000000E+00 0. -1.
<mgrwt>
<rscale>  0 0.34219703E+04</rscale>
<asrwt>0</asrwt>
<pdfrwt beam="1">  1        2 0.40133772E+00 0.34219703E+04</pdfrwt>
<pdfrwt beam="2">  1       -3 0.17264571E+00 0.34219703E+04</pdfrwt>
<totfact> 0.35015384E-01</totfact>
</mgrwt>
</event>
<event>
12    6  0.1395358E-007  0.1382718E+04  0.7818608E-02  0.8966424E-01
         -1   -1    0    0    0  501 -0.00000000000E+00  0.00000000000E+00  0.40459889521E+03  0.40459889521E+03  0.00000000000E+00 0.  1.
          2   -1    0    0  501    0  0.00000000000E+00 -0.00000000000E+00 -0.11813614026E+04  0.11813614026E+04  0.00000000000E+00 0. -1.
         24    2    1    2    0    0  0.36024159643E+03 -0.15440598654E+03 -0.18949050025E+03  0.44249151437E+03  0.79226726116E+02 0.  0.
        254    2    1    2    0    0 -0.36024159643E+03  0.15440598654E+03 -0.58727200710E+03  0.11434687834E+04  0.89945385196E+03 0.  0.
         23    2    4    4    0    0  0.13554169926E+03  0.12874590457E+03 -0.60327074101E+03  0.63828943631E+03  0.92362099178E+02 0.  0.
         23    2    4    4    0    0 -0.49578329568E+03  0.25660081969E+02  0.15998733915E+02  0.50517934709E+03  0.92144978987E+02 0.  0.
          2    1    3    3  502    0  0.20133022890E+03 -0.53148924211E+02 -0.12733228553E+03  0.24407412839E+03  0.00000000000E+00 0. -1.
         -1    1    3    3    0  502  0.15891136753E+03 -0.10125706233E+03 -0.62158214721E+02  0.19841738598E+03  0.00000000000E+00 0.  1.
         11    1    5    5    0    0  0.99815783075E+01  0.32196411598E+02 -0.35983984656E+02  0.49306064303E+02  0.00000000000E+00 0. -1.
        -11    1    5    5    0    0  0.12556012095E+03  0.96549492973E+02 -0.56728675635E+03  0.58898337201E+03  0.00000000000E+00 0.  1.
          3    1    6    6  503    0 -0.14160699169E+03  0.71936834131E+01 -0.37115220235E+02  0.14656680644E+03  0.00000000000E+00 0. -1.
         -3    1    6    6    0  503 -0.35417630399E+03  0.18466398556E+02  0.53113954149E+02  0.35861254065E+03  0.00000000000E+00 0.  1.
<mgrwt>
<rscale>  0 0.13827184E+04</rscale>
<asrwt>0</asrwt>
<pdfrwt beam="1">  1        2 0.18174791E+00 0.13827184E+04</pdfrwt>
<pdfrwt beam="2">  1       -1 0.62245984E-01 0.13827184E+04</pdfrwt>
<totfact> 0.56534695E+01</totfact>
</mgrwt>
</event>
<event>
12    6  0.1395358E-007  0.1759025E+04  0.7818608E-02  0.8728398E-01
         -1   -1    0    0    0  501 -0.00000000000E+00  0.00000000000E+00  0.64466077045E+03  0.64466077045E+03  0.00000000000E+00 0.  1.
          2   -1    0    0  501    0  0.00000000000E+00 -0.00000000000E+00 -0.11999212153E+04  0.11999212153E+04  0.00000000000E+00 0. -1.
         24    2    1    2    0    0  0.51462753373E+03 -0.10353272373E+03 -0.60117138289E+03  0.80209088287E+03  0.79888856702E+02 0.  0.
        254    2    1    2    0    0 -0.51462753373E+03  0.10353272373E+03  0.45910938074E+02  0.10424911028E+04  0.89951062358E+03 0.  0.
         23    2    4    4    0    0 -0.52302251433E+03  0.48325559309E+02  0.40315507347E+03  0.66988978768E+03  0.10163859596E+03 0.  0.
         23    2    4    4    0    0  0.83949806018E+01  0.55207164421E+02 -0.35724413540E+03  0.37260131517E+03  0.89944766885E+02 0.  0.
          2    1    3    3  502    0  0.43184561743E+03 -0.78890835112E+02 -0.54159387640E+03  0.69716449143E+03  0.00000000000E+00 0. -1.
         -1    1    3    3    0  502  0.82781916302E+02 -0.24641888618E+02 -0.59577506482E+02  0.10492639144E+03  0.00000000000E+00 0.  1.
         11    1    5    5    0    0 -0.32305521964E+03  0.45885230958E+02  0.30690072546E+03  0.44794886387E+03  0.00000000000E+00 0. -1.
        -11    1    5    5    0    0 -0.19996729469E+03  0.24403283506E+01  0.96254348011E+02  0.22194092380E+03  0.00000000000E+00 0.  1.
          4    1    6    6  503    0 -0.14179327601E+01  0.62917102258E+01 -0.28345956089E+03  0.28353292368E+03  0.00000000000E+00 0. -1.
         -4    1    6    6    0  503  0.98129133619E+01  0.48915454195E+02 -0.73784574505E+02  0.89068391490E+02  0.00000000000E+00 0.  1.
<mgrwt>
<rscale>  0 0.17590249E+04</rscale>
<asrwt>0</asrwt>
<pdfrwt beam="1">  1        2 0.18460326E+00 0.17590249E+04</pdfrwt>
<pdfrwt beam="2">  1       -1 0.99178580E-01 0.17590249E+04</pdfrwt>
<totfact> 0.19872698E+01</totfact>
</mgrwt>
</event>
<event>
12    6  0.1395358E-007  0.1662823E+04  0.7818608E-02  0.8782857E-01
         -3   -1    0    0    0  501 -0.00000000000E+00  0.00000000000E+00  0.15265214249E+04  0.15265214249E+04  0.00000000000E+00 0.  1.
          4   -1    0    0  501    0  0.00000000000E+00 -0.00000000000E+00 -0.45282349332E+03  0.45282349332E+03  0.00000000000E+00 0. -1.
         24    2    1    2    0    0  0.53650387346E+03 -0.13170876566E+03  0.14802907273E+03  0.57739134538E+03  0.79275179963E+02 0.  0.
        254    2    1    2    0    0 -0.53650387346E+03  0.13170876566E+03  0.92566885885E+03  0.14019535729E+04  0.89634110638E+03 0.  0.
         23    2    4    4    0    0 -0.77248257527E+03  0.26612270217E+02  0.67034726531E+03  0.10271331274E+04  0.90550887476E+02 0.  0.
         23    2    4    4    0    0  0.23597870181E+03  0.10509649545E+03  0.25532159354E+03  0.37482044547E+03  0.92574451938E+02 0.  0.
          4    1    3    3  502    0  0.83232800036E+02 -0.49800552952E+02  0.16683138664E+02  0.98418093823E+02  0.00000000000E+00 0. -1.
         -3    1    3    3    0  502  0.45327107342E+03 -0.81908212711E+02  0.13134593407E+03  0.47897325156E+03  0.00000000000E+00 0.  1.
         11    1    5    5    0    0 -0.35208094044E+03  0.21325484204E+02  0.36448259981E+03  0.50721132722E+03  0.00000000000E+00 0. -1.
        -11    1    5    5    0    0 -0.42040163483E+03  0.52867860126E+01  0.30586466550E+03  0.51992180016E+03  0.00000000000E+00 0.  1.
          2    1    6    6  503    0  0.39944211099E+02  0.26042608112E+02  0.61632146304E+01  0.48080584982E+02  0.00000000000E+00 0. -1.
         -2    1    6    6    0  503  0.19603449071E+03  0.79053887334E+02  0.24915837891E+03  0.32673986049E+03  0.00000000000E+00 0.  1.
<mgrwt>
<rscale>  0 0.16628226E+04</rscale>
<asrwt>0</asrwt>
<pdfrwt beam="1">  1        4 0.69665154E-01 0.16628226E+04</pdfrwt>
<pdfrwt beam="2">  1       -3 0.23484945E+00 0.16628226E+04</pdfrwt>
<totfact> 0.37130960E-01</totfact>
</mgrwt>
</event>
<event>
12    6  0.1395358E-007  0.3946207E+04  0.7818608E-02  0.8015487E-01
         -1   -1    0    0    0  501 -0.00000000000E+00  0.00000000000E+00  0.16158193344E+04  0.16158193344E+04  0.00000000000E+00 0.  1.
          2   -1    0    0  501    0  0.00000000000E+00 -0.00000000000E+00 -0.24093895355E+04  0.24093895355E+04  0.00000000000E+00 0. -1.
         24    2    1    2    0    0  0.25734198595E+03 -0.17179142552E+04  0.32975669262E+03  0.17698977222E+04  0.79650389870E+02 0.  0.
        254    2    1    2    0    0 -0.25734198595E+03  0.17179142552E+04 -0.11233268937E+04  0.22553111477E+04  0.89839344217E+03 0.  0.
         23    2    4    4    0    0 -0.38455757002E+02  0.82163359033E+03 -0.38836444283E+02  0.82855087853E+03  0.91802434037E+02 0.  0.
         23    2    4    4    0    0 -0.21888622895E+03  0.89628066488E+03 -0.10844904494E+04  0.14267602692E+04  0.91077546096E+02 0.  0.
          2    1    3    3  502    0  0.15019177795E+03 -0.86721832779E+03  0.13201643042E+03  0.88997389631E+03  0.00000000000E+00 0. -1.
         -1    1    3    3    0  502  0.10715020800E+03 -0.85069592743E+03  0.19774026220E+03  0.87992382586E+03  0.00000000000E+00 0.  1.
         11    1    5    5    0    0 -0.67966875881E+02  0.50987528249E+03 -0.17803370656E+02  0.51469336494E+03  0.00000000000E+00 0.  1.
        -11    1    5    5    0    0  0.29511118879E+02  0.31175830785E+03 -0.21033073627E+02  0.31385751359E+03  0.00000000000E+00 0. -1.
          1    1    6    6  503    0 -0.18641643509E+03  0.58421654061E+03 -0.70653684934E+03  0.93555030494E+03  0.00000000000E+00 0. -1.
         -1    1    6    6    0  503 -0.32469793856E+02  0.31206412427E+03 -0.37795360009E+03  0.49120996427E+03  0.00000000000E+00 0.  1.
<mgrwt>
<rscale>  0 0.39462074E+04</rscale>
<asrwt>0</asrwt>
<pdfrwt beam="1">  1        2 0.37067531E+00 0.39462074E+04</pdfrwt>
<pdfrwt beam="2">  1       -1 0.24858759E+00 0.39462074E+04</pdfrwt>
<totfact> 0.25186713E-01</totfact>
</mgrwt>
</event>
<event>
12    6  0.1395358E-007  0.1485816E+04  0.7818608E-02  0.8893940E-01
         -1   -1    0    0    0  501 -0.00000000000E+00  0.00000000000E+00  0.12809030634E+04  0.12809030634E+04  0.00000000000E+00 0.  1.
          2   -1    0    0  501    0  0.00000000000E+00 -0.00000000000E+00 -0.43087729197E+03  0.43087729197E+03  0.00000000000E+00 0. -1.
         24    2    1    2    0    0 -0.12996065632E+03  0.16058955511E+03  0.75145497440E+03  0.78339155718E+03  0.79617685856E+02 0.  0.
        254    2    1    2    0    0  0.12996065632E+03 -0.16058955511E+03  0.98570796993E+02  0.92838879815E+03  0.89972817068E+03 0.  0.
         23    2    4    4    0    0 -0.30748098136E+03  0.12356131955E+03  0.18790504016E+03  0.39146972749E+03  0.90157028785E+02 0.  0.
         23    2    4    4    0    0  0.43744163768E+03 -0.28415087466E+03 -0.89334243166E+02  0.53691907066E+03  0.90579111759E+02 0.  0.
          2    1    3    3  502    0 -0.23513890739E+02  0.57126211400E+02  0.12298716386E+03  0.13763048194E+03  0.00000000000E+00 0. -1.
         -1    1    3    3    0  502 -0.10644676558E+03  0.10346334371E+03  0.62846781055E+03  0.64576107524E+03  0.00000000000E+00 0.  1.
         11    1    5    5    0    0 -0.21458903997E+03  0.42459945103E+02  0.10323565685E+03  0.24188613821E+03  0.00000000000E+00 0.  1.
        -11    1    5    5    0    0 -0.92891941388E+02  0.81101374445E+02  0.84669383311E+02  0.14958358928E+03  0.00000000000E+00 0. -1.
          4    1    6    6  503    0  0.30160968390E+03 -0.18002352470E+03 -0.10067178380E+03  0.36539249982E+03  0.00000000000E+00 0. -1.
         -4    1    6    6    0  503  0.13583195378E+03 -0.10412734996E+03  0.11337540632E+02  0.17152657084E+03  0.00000000000E+00 0.  1.
<mgrwt>
<rscale>  0 0.14858157E+04</rscale>
<asrwt>0</asrwt>
<pdfrwt beam="1">  1        2 0.66288815E-01 0.14858157E+04</pdfrwt>
<pdfrwt beam="2">  1       -1 0.19706201E+00 0.14858157E+04</pdfrwt>
<totfact> 0.12750725E+01</totfact>
</mgrwt>
</event>
<event>
12    6  0.1395358E-007  0.1554286E+04  0.7818608E-02  0.8849135E-01
         -1   -1    0    0    0  501 -0.00000000000E+00  0.00000000000E+00  0.46466416743E+03  0.46466416743E+03  0.00000000000E+00 0.  1.
          2   -1    0    0  501    0  0.00000000000E+00 -0.00000000000E+00 -0.12997584720E+04  0.12997584720E+04  0.00000000000E+00 0. -1.
         24    2    1    2    0    0  0.26602806806E+03  0.42740488917E+03 -0.38838079851E+03  0.64074246623E+03  0.79154223521E+02 0.  0.
        254    2    1    2    0    0 -0.26602806806E+03 -0.42740488917E+03 -0.44671350601E+03  0.11236801731E+04  0.89981014819E+03 0.  0.
         23    2    4    4    0    0 -0.23495076482E+03 -0.19392745286E+03  0.23592504682E+03  0.39584786730E+03  0.90692819269E+02 0.  0.
         23    2    4    4    0    0 -0.31077303236E+02 -0.23347743631E+03 -0.68263855283E+03  0.72783230585E+03  0.90922822130E+02 0.  0.
          2    1    3    3  502    0  0.23017271595E+03  0.31841207573E+03 -0.32344268310E+03  0.50890165886E+03  0.00000000000E+00 0. -1.
         -1    1    3    3    0  502  0.35855352109E+02  0.10899281343E+03 -0.64938115415E+02  0.13184080737E+03  0.00000000000E+00 0.  1.
         11    1    5    5    0    0 -0.12879007013E+03 -0.48844826466E+02  0.93262744754E+02  0.16634493919E+03  0.00000000000E+00 0. -1.
        -11    1    5    5    0    0 -0.10616069469E+03 -0.14508262639E+03  0.14266230206E+03  0.22950292811E+03  0.00000000000E+00 0.  1.
          4    1    6    6  503    0 -0.60899822699E+02 -0.12718755039E+03 -0.41570765064E+03  0.43897415889E+03  0.00000000000E+00 0.  1.
         -4    1    6    6    0  503  0.29822519462E+02 -0.10628988592E+03 -0.26693090219E+03  0.28885814695E+03  0.00000000000E+00 0. -1.
<mgrwt>
<rscale>  0 0.15542859E+04</rscale>
<asrwt>0</asrwt>
<pdfrwt beam="1">  1        2 0.19996284E+00 0.15542859E+04</pdfrwt>
<pdfrwt beam="2">  1       -1 0.71486797E-01 0.15542859E+04</pdfrwt>
<totfact> 0.35840763E+01</totfact>
</mgrwt>
</event>
<event>
12    6  0.1395358E-007  0.1077465E+04  0.7818608E-02  0.9227439E-01
         -1   -1    0    0    0  501 -0.00000000000E+00  0.00000000000E+00  0.65524106596E+03  0.65524106596E+03  0.00000000000E+00 0.  1.
          2   -1    0    0  501    0  0.00000000000E+00 -0.00000000000E+00 -0.44294014967E+03  0.44294014967E+03  0.00000000000E+00 0. -1.
         24    2    1    2    0    0  0.10117014292E+03  0.80669987730E+02  0.66674034697E+02  0.17815415159E+03  0.10271528654E+03 0.  0.
        254    2    1    2    0    0 -0.10117014292E+03 -0.80669987730E+02  0.14562688159E+03  0.92002706404E+03  0.89916603872E+03 0.  0.
         23    2    4    4    0    0  0.30217825417E+03 -0.24874641753E+03 -0.97503059163E+02  0.41240103437E+03  0.85914428789E+02 0.  0.
         23    2    4    4    0    0 -0.40334839709E+03  0.16807642980E+03  0.24312994075E+03  0.50762602967E+03  0.87363620707E+02 0.  0.
          2    1    3    3  502    0  0.65655330250E+02 -0.94056013230E+01  0.41033469117E+02  0.77992520886E+02  0.00000000000E+00 0. -1.
         -1    1    3    3    0  502  0.35514812667E+02  0.90075589053E+02  0.25640565580E+02  0.10016163070E+03  0.00000000000E+00 0.  1.
         11    1    5    5    0    0  0.75089137592E+02 -0.32518801153E+02  0.63751552372E+01  0.82076145237E+02  0.00000000000E+00 0. -1.
        -11    1    5    5    0    0  0.22708911658E+03 -0.21622761637E+03 -0.10387821440E+03  0.33032488913E+03  0.00000000000E+00 0.  1.
          3    1    6    6  503    0 -0.21647525114E+03  0.42947941290E+02  0.12297439248E+03  0.25264354578E+03  0.00000000000E+00 0. -1.
         -3    1    6    6    0  503 -0.18687314595E+03  0.12512848850E+03  0.12015554827E+03  0.25498248390E+03  0.00000000000E+00 0.  1.
<mgrwt>
<rscale>  0 0.10774648E+04</rscale>
<asrwt>0</asrwt>
<pdfrwt beam="1">  1        2 0.68144638E-01 0.10774648E+04</pdfrwt>
<pdfrwt beam="2">  1       -1 0.10080632E+00 0.10774648E+04</pdfrwt>
<totfact> 0.75418919E+01</totfact>
</mgrwt>
</event>
<event>
12    6  0.1395358E-007  0.3760589E+04  0.7818608E-02  0.8054666E-01
          2   -1    0    0  501    0  0.00000000000E+00  0.00000000000E+00  0.21194991797E+04  0.21194991797E+04  0.00000000000E+00 0. -1.
         -1   -1    0    0    0  501 -0.00000000000E+00 -0.00000000000E+00 -0.16680865438E+04  0.16680865438E+04  0.00000000000E+00 0.  1.
         24    2    1    2    0    0 -0.80695930771E+03 -0.32341309508E+03  0.17674919490E+04  0.19713399196E+04  0.79836925279E+02 0.  0.
        254    2    1    2    0    0  0.80695930771E+03  0.32341309508E+03 -0.13160793131E+04  0.18162458039E+04  0.90050247487E+03 0.  0.
         23    2    4    4    0    0  0.21189876561E+03 -0.18464659892E+03 -0.12533318863E+02  0.29348715224E+03  0.83559386605E+02 0.  0.
         23    2    4    4    0    0  0.59506054210E+03  0.50805969399E+03 -0.13035459943E+04  0.15227586516E+04  0.85674094664E+02 0.  0.
          2    1    3    3  502    0 -0.40870964490E+03 -0.20464559915E+03  0.89784681211E+03  0.10074980363E+04  0.00000000000E+00 0. -1.
         -1    1    3    3    0  502 -0.39824966281E+03 -0.11876749592E+03  0.86964513689E+03  0.96384188337E+03  0.00000000000E+00 0.  1.
         11    1    5    5    0    0  0.15332827012E+02 -0.56334584590E+02 -0.55149417021E+01  0.58643802632E+02  0.00000000000E+00 0.  1.
        -11    1    5    5    0    0  0.19656593860E+03 -0.12831201433E+03 -0.70183771609E+01  0.23484334961E+03  0.00000000000E+00 0. -1.
          2    1    6    6  503    0  0.12937346622E+03  0.77926358035E+02 -0.20855355764E+03  0.25749679113E+03  0.00000000000E+00 0.  1.
         -2    1    6    6    0  503  0.46568707588E+03  0.43013333596E+03 -0.10949924366E+04  0.12652618605E+04  0.00000000000E+00 0. -1.
<mgrwt>
<rscale>  0 0.37605893E+04</rscale>
<asrwt>0</asrwt>
<pdfrwt beam="1">  1        2 0.32607680E+00 0.37605893E+04</pdfrwt>
<pdfrwt beam="2">  1       -1 0.25662870E+00 0.37605893E+04</pdfrwt>
<totfact> 0.33084670E-01</totfact>
</mgrwt>
</event>
<event>
12    6  0.1395358E-007  0.2349170E+04  0.7818608E-02  0.8458782E-01
         -1   -1    0    0    0  501 -0.00000000000E+00  0.00000000000E+00  0.96110121681E+03  0.96110121681E+03  0.00000000000E+00 0.  1.
          2   -1    0    0  501    0  0.00000000000E+00 -0.00000000000E+00 -0.14354887498E+04  0.14354887498E+04  0.00000000000E+00 0. -1.
         24    2    1    2    0    0 -0.86507357272E+03 -0.36636445030E+03 -0.55562447217E+03  0.10944371119E+04  0.80615390664E+02 0.  0.
        254    2    1    2    0    0  0.86507357272E+03  0.36636445030E+03  0.81236939183E+02  0.13021528547E+04  0.89801304001E+03 0.  0.
         23    2    4    4    0    0  0.52530606647E+03 -0.16188776530E+03 -0.22120174648E+03  0.59913445416E+03  0.88756799689E+02 0.  0.
         23    2    4    4    0    0  0.33976750625E+03  0.52825221560E+03  0.30243868566E+03  0.70301840053E+03  0.90957964537E+02 0.  0.
          2    1    3    3  502    0 -0.37286702558E+03 -0.19227260388E+03 -0.21910191707E+03  0.47329084402E+03  0.00000000000E+00 0. -1.
         -1    1    3    3    0  502 -0.49220654714E+03 -0.17409184642E+03 -0.33652255511E+03  0.62114626790E+03  0.00000000000E+00 0.  1.
         11    1    5    5    0    0  0.53873391161E+02  0.45041617024E+01 -0.40481285068E+02  0.67537872254E+02  0.00000000000E+00 0.  1.
        -11    1    5    5    0    0  0.47143267530E+03 -0.16639192700E+03 -0.18072046141E+03  0.53159658190E+03  0.00000000000E+00 0. -1.
          3    1    6    6  503    0  0.29108749088E+03  0.48994397654E+03  0.29149195101E+03  0.64011294706E+03  0.00000000000E+00 0. -1.
         -3    1    6    6    0  503  0.48680015377E+02  0.38308239065E+02  0.10946734648E+02  0.62905453475E+02  0.00000000000E+00 0.  1.
<mgrwt>
<rscale>  0 0.23491701E+04</rscale>
<asrwt>0</asrwt>
<pdfrwt beam="1">  1        2 0.22084442E+00 0.23491701E+04</pdfrwt>
<pdfrwt beam="2">  1       -1 0.14786173E+00 0.23491701E+04</pdfrwt>
<totfact> 0.51524599E+00</totfact>
</mgrwt>
</event>
<event>
12    6  0.1395358E-007  0.2662509E+04  0.7818608E-02  0.8347273E-01
         -1   -1    0    0    0  501 -0.00000000000E+00  0.00000000000E+00  0.88066258307E+03  0.88066258307E+03  0.00000000000E+00 0.  1.
          2   -1    0    0  501    0  0.00000000000E+00 -0.00000000000E+00 -0.20123915401E+04  0.20123915401E+04  0.00000000000E+00 0. -1.
         24    2    1    2    0    0 -0.70169015833E+03 -0.93419662197E+03 -0.43809461566E+03  0.12503878168E+04  0.80314340399E+02 0.  0.
        254    2    1    2    0    0  0.70169015833E+03  0.93419662197E+03 -0.69363434141E+03  0.16426663064E+04  0.92310973776E+03 0.  0.
         23    2    4    4    0    0 -0.91996005340E+01  0.28523181535E+03 -0.60071887686E+03  0.67122657017E+03  0.90775097637E+02 0.  0.
         23    2    4    4    0    0  0.71088975886E+03  0.64896480662E+03 -0.92915464555E+02  0.97143973627E+03  0.92424608045E+02 0.  0.
          4    1    3    3  502    0 -0.23664287978E+03 -0.25446926785E+03 -0.13488563985E+03  0.37275809404E+03  0.00000000000E+00 0. -1.
         -3    1    3    3    0  502 -0.46504727854E+03 -0.67972735412E+03 -0.30320897580E+03  0.87762972273E+03  0.00000000000E+00 0.  1.
         11    1    5    5    0    0  0.20981543472E+02  0.21280268869E+02 -0.10030336432E+03  0.10466059384E+03  0.00000000000E+00 0. -1.
        -11    1    5    5    0    0 -0.30181144006E+02  0.26395154648E+03 -0.50041551254E+03  0.56656597633E+03  0.00000000000E+00 0.  1.
          2    1    6    6  503    0  0.49210670701E+02  0.46309038133E+02 -0.30890534614E+02  0.74299678683E+02  0.00000000000E+00 0. -1.
         -2    1    6    6    0  503  0.66167908816E+03  0.60265576848E+03 -0.62024929941E+02  0.89714005759E+03  0.00000000000E+00 0.  1.
<mgrwt>
<rscale>  0 0.26625085E+04</rscale>
<asrwt>0</asrwt>
<pdfrwt beam="1">  1        2 0.30959869E+00 0.26625085E+04</pdfrwt>
<pdfrwt beam="2">  1       -1 0.13548655E+00 0.26625085E+04</pdfrwt>
<totfact> 0.30047202E+00</totfact>
</mgrwt>
</event>
<event>
12    6  0.1395358E-007  0.3536350E+04  0.7818608E-02  0.8105229E-01
         -1   -1    0    0    0  501 -0.00000000000E+00  0.00000000000E+00  0.12250266981E+04  0.12250266981E+04  0.00000000000E+00 0.  1.
          2   -1    0    0  501    0  0.00000000000E+00 -0.00000000000E+00 -0.25521423670E+04  0.25521423670E+04  0.00000000000E+00 0. -1.
         24    2    1    2    0    0 -0.11192405756E+04 -0.79825180454E+03 -0.16019049547E+04  0.21122348262E+04  0.74371147157E+02 0.  0.
        254    2    1    2    0    0  0.11192405756E+04  0.79825180454E+03  0.27478928585E+03  0.16649342389E+04  0.89810436948E+03 0.  0.
         23    2    4    4    0    0 -0.62774948612E+02  0.49911018283E+02 -0.15643784768E+03  0.19804262612E+03  0.91193627259E+02 0.  0.
         23    2    4    4    0    0  0.11820155243E+04  0.74834078626E+03  0.43122713353E+03  0.14668916127E+04  0.92949076774E+02 0.  0.
          2    1    3    3  502    0 -0.89698479588E+03 -0.67368499613E+03 -0.13180411431E+04  0.17307991371E+04  0.00000000000E+00 0. -1.
         -3    1    3    3    0  502 -0.22225577977E+03 -0.12456680842E+03 -0.28386381166E+03  0.38143568917E+03  0.00000000000E+00 0.  1.
         11    1    5    5    0    0 -0.82801172126E+02  0.20479876772E+02 -0.10151851471E+03  0.13259512920E+03  0.00000000000E+00 0. -1.
        -11    1    5    5    0    0  0.20026223514E+02  0.29431141511E+02 -0.54919332970E+02  0.65447496918E+02  0.00000000000E+00 0.  1.
          3    1    6    6  503    0  0.10121476016E+04  0.61475603300E+03  0.39085732376E+03  0.12470514003E+04  0.00000000000E+00 0. -1.
         -3    1    6    6    0  503  0.16986792269E+03  0.13358475327E+03  0.40369809770E+02  0.21984021244E+03  0.00000000000E+00 0.  1.
<mgrwt>
<rscale>  0 0.35363498E+04</rscale>
<asrwt>0</asrwt>
<pdfrwt beam="1">  1        2 0.39263729E+00 0.35363498E+04</pdfrwt>
<pdfrwt beam="2">  1       -1 0.18846565E+00 0.35363498E+04</pdfrwt>
<totfact> 0.54735232E-01</totfact>
</mgrwt>
</event>
<event>
12    6  0.1395358E-007  0.1391722E+04  0.7818608E-02  0.8959833E-01
          2   -1    0    0  501    0  0.00000000000E+00  0.00000000000E+00  0.10375683126E+04  0.10375683126E+04  0.00000000000E+00 0. -1.
         -1   -1    0    0    0  501 -0.00000000000E+00 -0.00000000000E+00 -0.46668954920E+03  0.46668954920E+03  0.00000000000E+00 0.  1.
         24    2    1    2    0    0 -0.52674393982E+02  0.27910183364E+03  0.46430258608E+03  0.54972622601E+03  0.77133694293E+02 0.  0.
        254    2    1    2    0    0  0.52674393982E+02 -0.27910183364E+03  0.10657617733E+03  0.95453163581E+03  0.90504129014E+03 0.  0.
         23    2    4    4    0    0  0.35501728417E+02  0.19723925779E+03  0.34854425517E+03  0.41238107212E+03  0.91713430303E+02 0.  0.
         23    2    4    4    0    0  0.17172665565E+02 -0.47634109143E+03 -0.24196807784E+03  0.54215056369E+03  0.90459643970E+02 0.  0.
          2    1    3    3  502    0 -0.38321088424E+02  0.15667939811E+03  0.33075899523E+03  0.36799246261E+03  0.00000000000E+00 0. -1.
         -1    1    3    3    0  502 -0.14353305558E+02  0.12242243553E+03  0.13354359085E+03  0.18173376340E+03  0.00000000000E+00 0.  1.
         11    1    5    5    0    0 -0.24875057191E+02  0.11455624064E+03  0.16855687792E+03  0.20531274152E+03  0.00000000000E+00 0.  1.
        -11    1    5    5    0    0  0.60376785608E+02  0.82683017152E+02  0.17998737725E+03  0.20706833059E+03  0.00000000000E+00 0. -1.
          2    1    6    6  503    0  0.17842220783E+02 -0.90460967491E+02 -0.85529572506E+02  0.12576501602E+03  0.00000000000E+00 0. -1.
         -2    1    6    6    0  503 -0.66955521797E+00 -0.38588012394E+03 -0.15643850534E+03  0.41638554767E+03  0.00000000000E+00 0.  1.
<mgrwt>
<rscale>  0 0.13917217E+04</rscale>
<asrwt>0</asrwt>
<pdfrwt beam="1">  1        2 0.15962589E+00 0.13917217E+04</pdfrwt>
<pdfrwt beam="2">  1       -1 0.71798393E-01 0.13917217E+04</pdfrwt>
<totfact> 0.51856175E+01</totfact>
</mgrwt>
</event>
<event>
12    6  0.1395358E-007  0.3395532E+04  0.7818608E-02  0.8139004E-01
          2   -1    0    0  501    0  0.00000000000E+00  0.00000000000E+00  0.35752277054E+04  0.35752277054E+04  0.00000000000E+00 0. -1.
         -1   -1    0    0    0  501 -0.00000000000E+00 -0.00000000000E+00 -0.80621722650E+03  0.80621722650E+03  0.00000000000E+00 0.  1.
         24    2    1    2    0    0  0.74316387256E+03  0.13486382507E+04  0.84654866496E+03  0.17589979961E+04  0.79445800259E+02 0.  0.
        254    2    1    2    0    0 -0.74316387256E+03 -0.13486382507E+04  0.19224618139E+04  0.26224469358E+04  0.90013934050E+03 0.  0.
         23    2    4    4    0    0 -0.64957991425E+03 -0.30632905823E+03  0.91547810659E+03  0.11670889718E+04  0.90581166058E+02 0.  0.
         23    2    4    4    0    0 -0.93583958307E+02 -0.10423091925E+04  0.10069837073E+04  0.14553579640E+04  0.94256068238E+02 0.  0.
          4    1    3    3  502    0  0.46110727257E+03  0.75778703108E+03  0.47631832336E+03  0.10068466847E+04  0.00000000000E+00 0. -1.
         -3    1    3    3    0  502  0.28205659999E+03  0.59085121967E+03  0.37023034160E+03  0.75215131139E+03  0.00000000000E+00 0.  1.
         11    1    5    5    0    0 -0.15797039423E+03 -0.11503318616E+03  0.27447537316E+03  0.33693324241E+03  0.00000000000E+00 0. -1.
        -11    1    5    5    0    0 -0.49160952002E+03 -0.19129587207E+03  0.64100273343E+03  0.83015572944E+03  0.00000000000E+00 0.  1.
          1    1    6    6  503    0 -0.64267233800E+02 -0.41818121610E+03  0.35469993918E+03  0.55210311871E+03  0.00000000000E+00 0. -1.
         -1    1    6    6    0  503 -0.29316724508E+02 -0.62412797641E+03  0.65228376817E+03  0.90325484526E+03  0.00000000000E+00 0.  1.
<mgrwt>
<rscale>  0 0.33955325E+04</rscale>
<asrwt>0</asrwt>
<pdfrwt beam="1">  1        2 0.55003502E+00 0.33955325E+04</pdfrwt>
<pdfrwt beam="2">  1       -1 0.12403342E+00 0.33955325E+04</pdfrwt>
<totfact> 0.38542669E-01</totfact>
</mgrwt>
</event>
<event>
12    6  0.1395358E-007  0.2168810E+04  0.7818608E-02  0.8531523E-01
          2   -1    0    0  501    0  0.00000000000E+00  0.00000000000E+00  0.17075961911E+04  0.17075961911E+04  0.00000000000E+00 0. -1.
         -1   -1    0    0    0  501 -0.00000000000E+00 -0.00000000000E+00 -0.68864883798E+03  0.68864883798E+03  0.00000000000E+00 0.  1.
         24    2    1    2    0    0 -0.35279753143E+03  0.80571143472E+03  0.24350321910E+03  0.91616163959E+03  0.80133126313E+02 0.  0.
        254    2    1    2    0    0  0.35279753143E+03 -0.80571143472E+03  0.77544413400E+03  0.14800833895E+04  0.90315902287E+03 0.  0.
         23    2    4    4    0    0  0.41806590551E+02  0.12786130460E+03 -0.72671993536E+02  0.17781293655E+03  0.90773991499E+02 0.  0.
         23    2    4    4    0    0  0.31099094088E+03 -0.93357273932E+03  0.84811612754E+03  0.13022704529E+04  0.91290425671E+02 0.  0.
          4    1    3    3  502    0 -0.31106308323E+03  0.71076617957E+03  0.18706340052E+03  0.79808616050E+03  0.00000000000E+00 0. -1.
         -3    1    3    3    0  502 -0.41734448203E+02  0.94945255146E+02  0.56439818579E+02  0.11807547909E+03  0.00000000000E+00 0.  1.
         11    1    5    5    0    0  0.23460315064E+02  0.19640202649E+02  0.17949841158E+02  0.35472816925E+02  0.00000000000E+00 0.  1.
        -11    1    5    5    0    0  0.18346275487E+02  0.10822110196E+03 -0.90621834694E+02  0.14234011963E+03  0.00000000000E+00 0. -1.
          1    1    6    6  503    0  0.24377406193E+03 -0.72772939270E+03  0.70936442980E+03  0.10450903102E+04  0.00000000000E+00 0. -1.
         -1    1    6    6    0  503  0.67216878953E+02 -0.20584334662E+03  0.13875169774E+03  0.25718014268E+03  0.00000000000E+00 0.  1.
<mgrwt>
<rscale>  0 0.21688099E+04</rscale>
<asrwt>0</asrwt>
<pdfrwt beam="1">  1        2 0.26270710E+00 0.21688099E+04</pdfrwt>
<pdfrwt beam="2">  1       -1 0.10594598E+00 0.21688099E+04</pdfrwt>
<totfact> 0.84493194E+00</totfact>
</mgrwt>
</event>
<event>
12    6  0.1395358E-007  0.5558403E+04  0.7818608E-02  0.7747704E-01
          2   -1    0    0  501    0  0.00000000000E+00  0.00000000000E+00  0.18397641376E+04  0.18397641376E+04  0.00000000000E+00 0. -1.
         -1   -1    0    0    0  501 -0.00000000000E+00 -0.00000000000E+00 -0.41983437053E+04  0.41983437053E+04  0.00000000000E+00 0.  1.
         24    2    1    2    0    0  0.19062655040E+04 -0.12450025903E+04 -0.27366026984E+04  0.35607902125E+04  0.79705627420E+02 0.  0.
        254    2    1    2    0    0 -0.19062655040E+04  0.12450025903E+04  0.37802313072E+03  0.24773176303E+04  0.90017861150E+03 0.  0.
         23    2    4    4    0    0 -0.69329932580E+03  0.69268984584E+03 -0.22811851737E+03  0.10101813407E+04  0.89135320366E+02 0.  0.
         23    2    4    4    0    0 -0.12129661782E+04  0.55231274446E+03  0.60614164809E+03  0.14671362897E+04  0.93514051502E+02 0.  0.
          4    1    3    3  502    0  0.15400063716E+04 -0.10412601662E+04 -0.22462639552E+04  0.29157407489E+04  0.00000000000E+00 0. -1.
         -3    1    3    3    0  502  0.36625913239E+03 -0.20374242414E+03 -0.49033874316E+03  0.64504946361E+03  0.00000000000E+00 0.  1.
         11    1    5    5    0    0 -0.67406860084E+03  0.68664270971E+03 -0.21442638273E+03  0.98581203231E+03  0.00000000000E+00 0.  1.
        -11    1    5    5    0    0 -0.19230724961E+02  0.60471361360E+01 -0.13692134641E+02  0.24369308341E+02  0.00000000000E+00 0. -1.
          3    1    6    6  503    0 -0.34649604845E+03  0.20226447040E+03  0.19753842236E+03  0.44720449001E+03  0.00000000000E+00 0. -1.
         -3    1    6    6    0  503 -0.86647012975E+03  0.35004827407E+03  0.40860322572E+03  0.10199317997E+04  0.00000000000E+00 0.  1.
<mgrwt>
<rscale>  0 0.55584034E+04</rscale>
<asrwt>0</asrwt>
<pdfrwt beam="1">  1        2 0.28304064E+00 0.55584034E+04</pdfrwt>
<pdfrwt beam="2">  1       -1 0.64589902E+00 0.55584034E+04</pdfrwt>
<totfact> 0.20017375E-03</totfact>
</mgrwt>
</event>
<event>
12    6  0.2071994E-007  0.2637819E+04  0.7818608E-02  0.8355467E-01
         -1   -1    0    0    0  501 -0.00000000000E+00  0.00000000000E+00  0.11302330594E+04  0.11302330594E+04  0.00000000000E+00 0.  1.
          2   -1    0    0  501    0  0.00000000000E+00 -0.00000000000E+00 -0.15390826831E+04  0.15390826831E+04  0.00000000000E+00 0. -1.
         24    2    1    2    0    0  0.20451820329E+03 -0.11399589781E+04 -0.65316983782E+02  0.11626838910E+04  0.78951597893E+02 0.  0.
        254    2    1    2    0    0 -0.20451820329E+03  0.11399589781E+04 -0.34353263985E+03  0.15066318515E+04  0.90032810369E+03 0.  0.
         23    2    4    4    0    0 -0.20573774444E+03  0.25704670583E+02  0.16386853219E+03  0.27921270452E+03  0.90100438103E+02 0.  0.
         23    2    4    4    0    0  0.12195411495E+01  0.11142543075E+04 -0.50740117204E+03  0.12274191470E+04  0.86819721667E+02 0.  0.
          4    1    3    3  502    0  0.15218377949E+03 -0.65187887380E+03 -0.55562212616E+02  0.67170910990E+03  0.00000000000E+00 0. -1.
         -3    1    3    3    0  502  0.52334423806E+02 -0.48808010425E+03 -0.97547711655E+01  0.49097478106E+03  0.00000000000E+00 0.  1.
         11    1    5    5    0    0  0.70457381480E+01  0.75577868939E+01  0.17461839790E+02  0.20289859971E+02  0.00000000000E+00 0. -1.
        -11    1    5    5    0    0 -0.21278348259E+03  0.18146883689E+02  0.14640669240E+03  0.25892284455E+03  0.00000000000E+00 0.  1.
          3    1    6    6  503    0 -0.23626603998E+02  0.10033350938E+03 -0.38306109096E+02  0.10996539235E+03  0.00000000000E+00 0. -1.
         -3    1    6    6    0  503  0.24846145147E+02  0.10139207981E+04 -0.46909506294E+03  0.11174537547E+04  0.00000000000E+00 0.  1.
<mgrwt>
<rscale>  0 0.26378189E+04</rscale>
<asrwt>0</asrwt>
<pdfrwt beam="1">  1        2 0.23678195E+00 0.26378189E+04</pdfrwt>
<pdfrwt beam="2">  1       -1 0.17388201E+00 0.26378189E+04</pdfrwt>
<totfact> 0.27925761E+00</totfact>
</mgrwt>
</event>
<event>
12    6  0.1395358E-007  0.1569062E+04  0.7818608E-02  0.8839783E-01
          2   -1    0    0  501    0  0.00000000000E+00  0.00000000000E+00  0.80807473431E+03  0.80807473431E+03  0.00000000000E+00 0. -1.
         -1   -1    0    0    0  501 -0.00000000000E+00 -0.00000000000E+00 -0.76167319922E+03  0.76167319922E+03  0.00000000000E+00 0.  1.
         24    2    1    2    0    0  0.25566102201E+03 -0.33837548578E+03 -0.28900230443E+03  0.51958884614E+03  0.81177025794E+02 0.  0.
        254    2    1    2    0    0 -0.25566102201E+03  0.33837548578E+03  0.33540383952E+03  0.10501590874E+04  0.90026543070E+03 0.  0.
         23    2    4    4    0    0 -0.31505548229E+03 -0.22340958012E+03  0.22219211752E+02  0.39764593002E+03  0.91960833405E+02 0.  0.
         23    2    4    4    0    0  0.59394460283E+02  0.56178506590E+03  0.31318462777E+03  0.65251315737E+03  0.92512957388E+02 0.  0.
          4    1    3    3  502    0  0.15732404418E+03 -0.15240371782E+03 -0.12009339506E+03  0.24980026345E+03  0.00000000000E+00 0. -1.
         -3    1    3    3    0  502  0.98336977831E+02 -0.18597176796E+03 -0.16890890936E+03  0.26978858269E+03  0.00000000000E+00 0.  1.
         11    1    5    5    0    0 -0.14532319458E+03 -0.15013723650E+03 -0.13377011364E+02  0.20937756589E+03  0.00000000000E+00 0.  1.
        -11    1    5    5    0    0 -0.16973228771E+03 -0.73272343623E+02  0.35596223116E+02  0.18826836413E+03  0.00000000000E+00 0. -1.
          1    1    6    6  503    0  0.49333201026E+01  0.10450404550E+03  0.19778182321E+02  0.10647351628E+03  0.00000000000E+00 0. -1.
         -1    1    6    6    0  503  0.54461140180E+02  0.45728102041E+03  0.29340644545E+03  0.54603964109E+03  0.00000000000E+00 0.  1.
<mgrwt>
<rscale>  0 0.15690620E+04</rscale>
<asrwt>0</asrwt>
<pdfrwt beam="1">  1        2 0.12431919E+00 0.15690620E+04</pdfrwt>
<pdfrwt beam="2">  1       -1 0.11718049E+00 0.15690620E+04</pdfrwt>
<totfact> 0.24473081E+01</totfact>
</mgrwt>
</event>
<event>
12    6  0.1395358E-007  0.3496609E+04  0.7818608E-02  0.8114594E-01
          2   -1    0    0  501    0  0.00000000000E+00  0.00000000000E+00  0.27944269288E+04  0.27944269288E+04  0.00000000000E+00 0. -1.
         -1   -1    0    0    0  501 -0.00000000000E+00 -0.00000000000E+00 -0.10938084515E+04  0.10938084515E+04  0.00000000000E+00 0.  1.
         24    2    1    2    0    0  0.17910098570E+03  0.75601685228E+03  0.23922945222E+04  0.25165671838E+04  0.79991660906E+02 0.  0.
        254    2    1    2    0    0 -0.17910098570E+03 -0.75601685228E+03 -0.69167604490E+03  0.13716681965E+04  0.89410248076E+03 0.  0.
         23    2    4    4    0    0 -0.62502766100E+02  0.70590608645E+02  0.13852023484E+03  0.19084793787E+03  0.91353435242E+02 0.  0.
         23    2    4    4    0    0 -0.11659821960E+03 -0.82660746093E+03 -0.83019627974E+03  0.11808202586E+04  0.90750101694E+02 0.  0.
          4    1    3    3  502    0  0.24152845751E+01  0.13215945198E+03  0.43890381105E+03  0.45837594800E+03  0.00000000000E+00 0. -1.
         -3    1    3    3    0  502  0.17668570112E+03  0.62385740030E+03  0.19533907111E+04  0.20581912358E+04  0.00000000000E+00 0.  1.
         11    1    5    5    0    0 -0.22862418701E+02 -0.11965604599E+02  0.12523702607E+01  0.25834750116E+02  0.00000000000E+00 0. -1.
        -11    1    5    5    0    0 -0.39640347399E+02  0.82556213244E+02  0.13726786458E+03  0.16501318775E+03  0.00000000000E+00 0.  1.
          1    1    6    6  503    0 -0.18102126617E+02 -0.16788507308E+03 -0.11990049004E+03  0.20709710829E+03  0.00000000000E+00 0. -1.
         -1    1    6    6    0  503 -0.98496092978E+02 -0.65872238784E+03 -0.71029578970E+03  0.97372315031E+03  0.00000000000E+00 0.  1.
<mgrwt>
<rscale>  0 0.34966085E+04</rscale>
<asrwt>0</asrwt>
<pdfrwt beam="1">  1        2 0.42991183E+00 0.34966085E+04</pdfrwt>
<pdfrwt beam="2">  1       -1 0.16827822E+00 0.34966085E+04</pdfrwt>
<totfact> 0.55104827E-01</totfact>
</mgrwt>
</event>
<event>
12    6  0.1395358E-007  0.1539042E+04  0.7818608E-02  0.8858898E-01
         -1   -1    0    0    0  501 -0.00000000000E+00  0.00000000000E+00  0.45450914885E+03  0.45450914885E+03  0.00000000000E+00 0.  1.
          2   -1    0    0  501    0  0.00000000000E+00 -0.00000000000E+00 -0.13028618208E+04  0.13028618208E+04  0.00000000000E+00 0. -1.
         24    2    1    2    0    0 -0.29600318889E+03 -0.40566280344E+03 -0.31662907127E+03  0.59879164985E+03  0.78212999130E+02 0.  0.
        254    2    1    2    0    0  0.29600318889E+03  0.40566280344E+03 -0.53172360064E+03  0.11585793197E+04  0.89855208794E+03 0.  0.
         23    2    4    4    0    0  0.74472600369E+02  0.30741995675E+03  0.19893467972E+03  0.38470499798E+03  0.91486232086E+02 0.  0.
         23    2    4    4    0    0  0.22153058852E+03  0.98242846687E+02 -0.73065828035E+03  0.77387432177E+03  0.79325183061E+02 0.  0.
          2    1    3    3  502    0 -0.20083777666E+03 -0.33144257569E+03 -0.24169766595E+03  0.45673597979E+03  0.00000000000E+00 0. -1.
         -1    1    3    3    0  502 -0.95165412234E+02 -0.74220227749E+02 -0.74931405323E+02  0.14205567006E+03  0.00000000000E+00 0.  1.
         11    1    5    5    0    0  0.53442968068E+02  0.23234475348E+03  0.99481578052E+02  0.25833470475E+03  0.00000000000E+00 0. -1.
        -11    1    5    5    0    0  0.21029632301E+02  0.75075203277E+02  0.99453101664E+02  0.12637029324E+03  0.00000000000E+00 0.  1.
          2    1    6    6  503    0  0.17621992602E+03  0.45137422678E+02 -0.57937751981E+03  0.60726366573E+03  0.00000000000E+00 0. -1.
         -2    1    6    6    0  503  0.45310662504E+02  0.53105424009E+02 -0.15128076054E+03  0.16661065604E+03  0.00000000000E+00 0.  1.
<mgrwt>
<rscale>  0 0.15390421E+04</rscale>
<asrwt>0</asrwt>
<pdfrwt beam="1">  1        2 0.20044027E+00 0.15390421E+04</pdfrwt>
<pdfrwt beam="2">  1       -1 0.69924486E-01 0.15390421E+04</pdfrwt>
<totfact> 0.37398109E+01</totfact>
</mgrwt>
</event>
<event>
12    6  0.1395358E-007  0.1563197E+04  0.7818608E-02  0.8843482E-01
         -1   -1    0    0    0  501 -0.00000000000E+00  0.00000000000E+00  0.31159728689E+03  0.31159728689E+03  0.00000000000E+00 0.  1.
          2   -1    0    0  501    0  0.00000000000E+00 -0.00000000000E+00 -0.19605304663E+04  0.19605304663E+04  0.00000000000E+00 0. -1.
         24    2    1    2    0    0  0.23865668074E+03  0.49758257004E+02  0.11153682712E+03  0.27972551836E+03  0.79831111808E+02 0.  0.
        254    2    1    2    0    0 -0.23865668074E+03 -0.49758257004E+02 -0.17604700065E+04  0.19924022348E+04  0.90054379464E+03 0.  0.
         23    2    4    4    0    0  0.16657410983E+03  0.22064199344E+03 -0.19820253568E+03  0.35318926193E+03  0.95018873175E+02 0.  0.
         23    2    4    4    0    0 -0.40523079057E+03 -0.27040025044E+03 -0.15622674708E+04  0.16392129729E+04  0.94927503806E+02 0.  0.
          2    1    3    3  502    0  0.90077549696E+02 -0.15463341160E+02  0.20492003026E+02  0.93664305192E+02  0.00000000000E+00 0. -1.
         -1    1    3    3    0  502  0.14857913104E+03  0.65221598164E+02  0.91044824098E+02  0.18606121316E+03  0.00000000000E+00 0.  1.
         11    1    5    5    0    0 -0.93499090225E+01  0.35761860742E+01 -0.18352002089E+02  0.20904685749E+02  0.00000000000E+00 0. -1.
        -11    1    5    5    0    0  0.17592401885E+03  0.21706580737E+03 -0.17985053359E+03  0.33228457618E+03  0.00000000000E+00 0.  1.
          1    1    6    6  503    0 -0.19503363941E+01  0.34107268128E+01 -0.16867625542E+01  0.42757499174E+01  0.00000000000E+00 0. -1.
         -1    1    6    6    0  503 -0.40328045418E+03 -0.27381097726E+03 -0.15605807083E+04  0.16349372230E+04  0.00000000000E+00 0.  1.
<mgrwt>
<rscale>  0 0.15631967E+04</rscale>
<asrwt>0</asrwt>
<pdfrwt beam="1">  1        2 0.30162008E+00 0.15631967E+04</pdfrwt>
<pdfrwt beam="2">  1       -1 0.47938044E-01 0.15631967E+04</pdfrwt>
<totfact> 0.33477447E+01</totfact>
</mgrwt>
</event>
<event>
12    6  0.1395358E-007  0.2465781E+04  0.7818608E-02  0.8415279E-01
          2   -1    0    0  501    0  0.00000000000E+00  0.00000000000E+00  0.26453678816E+04  0.26453678816E+04  0.00000000000E+00 0. -1.
         -1   -1    0    0    0  501 -0.00000000000E+00 -0.00000000000E+00 -0.57459633598E+03  0.57459633598E+03  0.00000000000E+00 0.  1.
         24    2    1    2    0    0 -0.94162665048E+03  0.50083956063E+03  0.94591625774E+03  0.14278190010E+04  0.80053223491E+02 0.  0.
        254    2    1    2    0    0  0.94162665048E+03 -0.50083956063E+03  0.11248552879E+04  0.17921452166E+04  0.89943540302E+03 0.  0.
         23    2    4    4    0    0  0.92207213329E+03 -0.24565411531E+03  0.43913659868E+03  0.10545457639E+04  0.93074445660E+02 0.  0.
         23    2    4    4    0    0  0.19554517191E+02 -0.25518544532E+03  0.68571868918E+03  0.73759945268E+03  0.91328206329E+02 0.  0.
          4    1    3    3  502    0 -0.54569292954E+03  0.24550501688E+03  0.53503134360E+03  0.80269049160E+03  0.00000000000E+00 0. -1.
         -3    1    3    3    0  502 -0.39593372093E+03  0.25533454376E+03  0.41088491414E+03  0.62512850941E+03  0.00000000000E+00 0.  1.
         11    1    5    5    0    0  0.49990372706E+03 -0.16860709420E+03  0.20778795829E+03  0.56701668772E+03  0.00000000000E+00 0.  1.
        -11    1    5    5    0    0  0.42216840623E+03 -0.77047021115E+02  0.23134864039E+03  0.48752907615E+03  0.00000000000E+00 0. -1.
          3    1    6    6  503    0  0.24101796708E+02 -0.12243897215E+03  0.21593339087E+03  0.24939813110E+03  0.00000000000E+00 0. -1.
         -3    1    6    6    0  503 -0.45472795170E+01 -0.13274647317E+03  0.46978529830E+03  0.48820132158E+03  0.00000000000E+00 0.  1.
<mgrwt>
<rscale>  0 0.24657808E+04</rscale>
<asrwt>0</asrwt>
<pdfrwt beam="1">  1        2 0.40697967E+00 0.24657808E+04</pdfrwt>
<pdfrwt beam="2">  1       -1 0.88399438E-01 0.24657808E+04</pdfrwt>
<totfact> 0.36576336E+00</totfact>
</mgrwt>
</event>
<event>
12    6  0.1395358E-007  0.2183767E+04  0.7818608E-02  0.8525215E-01
         -1   -1    0    0    0  501 -0.00000000000E+00  0.00000000000E+00  0.54006140946E+03  0.54006140946E+03  0.00000000000E+00 0.  1.
          2   -1    0    0  501    0  0.00000000000E+00 -0.00000000000E+00 -0.22075441646E+04  0.22075441646E+04  0.00000000000E+00 0. -1.
         24    2    1    2    0    0  0.13566230770E+03 -0.72787781835E+03 -0.13475324011E+04  0.15395480701E+04  0.78449396523E+02 0.  0.
        254    2    1    2    0    0 -0.13566230770E+03  0.72787781835E+03 -0.31995035396E+03  0.12080575039E+04  0.89934660929E+03 0.  0.
         23    2    4    4    0    0 -0.15913089761E+03 -0.28840444094E+02 -0.39996640932E+03  0.44146347912E+03  0.93608017935E+02 0.  0.
         23    2    4    4    0    0  0.23468589909E+02  0.75671826244E+03  0.80016055357E+02  0.76659402482E+03  0.89947353196E+02 0.  0.
          4    1    3    3  502    0  0.25990121306E+02 -0.20175093528E+03 -0.44153325358E+03  0.48613839625E+03  0.00000000000E+00 0. -1.
         -3    1    3    3    0  502  0.10967218640E+03 -0.52612688306E+03 -0.90599914755E+03  0.10534096738E+04  0.00000000000E+00 0.  1.
         11    1    5    5    0    0 -0.68124073566E+02  0.19472241613E+02 -0.88329193331E+02  0.11323472960E+03  0.00000000000E+00 0. -1.
        -11    1    5    5    0    0 -0.91006824046E+02 -0.48312685707E+02 -0.31163721599E+03  0.32822874952E+03  0.00000000000E+00 0.  1.
          4    1    6    6  503    0  0.42240552549E+02  0.63166594033E+03  0.91351019566E+02  0.63963359295E+03  0.00000000000E+00 0. -1.
         -4    1    6    6    0  503 -0.18771962640E+02  0.12505232211E+03 -0.11334964209E+02  0.12696043187E+03  0.00000000000E+00 0.  1.
<mgrwt>
<rscale>  0 0.21837668E+04</rscale>
<asrwt>0</asrwt>
<pdfrwt beam="1">  1        2 0.33962218E+00 0.21837668E+04</pdfrwt>
<pdfrwt beam="2">  1       -1 0.83086371E-01 0.21837668E+04</pdfrwt>
<totfact> 0.76603952E+00</totfact>
</mgrwt>
</event>
<event>
12    6  0.1395358E-007  0.3977708E+04  0.7818608E-02  0.8009059E-01
         -1   -1    0    0    0  501 -0.00000000000E+00  0.00000000000E+00  0.22751280652E+04  0.22751280652E+04  0.00000000000E+00 0.  1.
          2   -1    0    0  501    0  0.00000000000E+00 -0.00000000000E+00 -0.17386015291E+04  0.17386015291E+04  0.00000000000E+00 0. -1.
         24    2    1    2    0    0  0.16985187872E+04  0.14105758488E+03 -0.55012366349E+03  0.17926731924E+04  0.78599090025E+02 0.  0.
        254    2    1    2    0    0 -0.16985187872E+04 -0.14105758488E+03  0.10866501996E+04  0.22210564019E+04  0.92055394822E+03 0.  0.
         23    2    4    4    0    0 -0.10350939430E+04 -0.42830122267E+03  0.96633848938E+03  0.14823803534E+04  0.93701803953E+02 0.  0.
         23    2    4    4    0    0 -0.66342484417E+03  0.28724363780E+03  0.12031171022E+03  0.73867604846E+03  0.92336155649E+02 0.  0.
          2    1    3    3  502    0  0.43847270839E+03  0.50574572536E+02 -0.17567970272E+03  0.47505732427E+03  0.00000000000E+00 0. -1.
         -1    1    3    3    0  502  0.12600460788E+04  0.90483012340E+02 -0.37444396076E+03  0.13176158681E+04  0.00000000000E+00 0.  1.
         11    1    5    5    0    0 -0.93214125163E+03 -0.35852991905E+03  0.87862895353E+03  0.13301954194E+04  0.00000000000E+00 0.  1.
        -11    1    5    5    0    0 -0.10295269135E+03 -0.69771303621E+02  0.87709535849E+02  0.15218493403E+03  0.00000000000E+00 0. -1.
          3    1    6    6  503    0 -0.45519596153E+03  0.15296509231E+03  0.96043307038E+02  0.48972032803E+03  0.00000000000E+00 0. -1.
         -3    1    6    6    0  503 -0.20822888263E+03  0.13427854548E+03  0.24268403178E+02  0.24895572043E+03  0.00000000000E+00 0.  1.
<mgrwt>
<rscale>  0 0.39777085E+04</rscale>
<asrwt>0</asrwt>
<pdfrwt beam="1">  1        2 0.26747716E+00 0.39777085E+04</pdfrwt>
<pdfrwt beam="2">  1       -1 0.35001970E+00 0.39777085E+04</pdfrwt>
<totfact> 0.13038568E-01</totfact>
</mgrwt>
</event>
<event>
12    6  0.1395358E-007  0.1848689E+04  0.7818608E-02  0.8680827E-01
          2   -1    0    0  501    0  0.00000000000E+00  0.00000000000E+00  0.95335294038E+03  0.95335294038E+03  0.00000000000E+00 0. -1.
         -1   -1    0    0    0  501 -0.00000000000E+00 -0.00000000000E+00 -0.89621909993E+03  0.89621909993E+03  0.00000000000E+00 0.  1.
         24    2    1    2    0    0  0.10620115378E+03 -0.36258683430E+03 -0.57198625757E+03  0.68999066615E+03  0.78555350247E+02 0.  0.
        254    2    1    2    0    0 -0.10620115378E+03  0.36258683430E+03  0.62912009802E+03  0.11595813742E+04  0.89782457534E+03 0.  0.
         23    2    4    4    0    0  0.22266933032E+03  0.22717398929E+03 -0.97418671072E+02  0.34490753293E+03  0.91000861094E+02 0.  0.
         23    2    4    4    0    0 -0.32887048410E+03  0.13541284500E+03  0.72653876910E+03  0.81467384123E+03  0.96656353556E+02 0.  0.
          2    1    3    3  502    0  0.64265420658E+01 -0.12288548448E+03 -0.14408672027E+03  0.18948120144E+03  0.00000000000E+00 0. -1.
         -1    1    3    3    0  502  0.99774611713E+02 -0.23970134982E+03 -0.42789953730E+03  0.50050946471E+03  0.00000000000E+00 0.  1.
         11    1    5    5    0    0  0.87654494531E+02  0.32090980633E+02 -0.33836916057E+02  0.99287855943E+02  0.00000000000E+00 0.  1.
        -11    1    5    5    0    0  0.13501483579E+03  0.19508300866E+03 -0.63581755015E+02  0.24561967699E+03  0.00000000000E+00 0. -1.
          1    1    6    6  503    0 -0.20123264584E+03  0.50631751862E+02  0.49820504056E+03  0.53969103614E+03  0.00000000000E+00 0. -1.
         -1    1    6    6    0  503 -0.12763783826E+03  0.84781093142E+02  0.22833372854E+03  0.27498280509E+03  0.00000000000E+00 0.  1.
<mgrwt>
<rscale>  0 0.18486894E+04</rscale>
<asrwt>0</asrwt>
<pdfrwt beam="1">  1        2 0.14666968E+00 0.18486894E+04</pdfrwt>
<pdfrwt beam="2">  1       -1 0.13787986E+00 0.18486894E+04</pdfrwt>
<totfact> 0.12643580E+01</totfact>
</mgrwt>
</event>
<event>
12    6  0.1395358E-007  0.3738973E+04  0.7818608E-02  0.8059379E-01
         -1   -1    0    0    0  501 -0.00000000000E+00  0.00000000000E+00  0.93329806139E+03  0.93329806139E+03  0.00000000000E+00 0.  1.
          2   -1    0    0  501    0  0.00000000000E+00 -0.00000000000E+00 -0.37447623526E+04  0.37447623526E+04  0.00000000000E+00 0. -1.
         24    2    1    2    0    0 -0.67720714965E+03  0.14168787323E+04 -0.23192249967E+04  0.28021464479E+04  0.84055130183E+02 0.  0.
        254    2    1    2    0    0  0.67720714965E+03 -0.14168787323E+04 -0.49223929451E+03  0.18759139660E+04  0.90033261589E+03 0.  0.
         23    2    4    4    0    0  0.51560512483E+03 -0.24671768613E+03 -0.36571695345E+03  0.68465262405E+03  0.91005846927E+02 0.  0.
         23    2    4    4    0    0  0.16160202481E+03 -0.11701610462E+04 -0.12652234107E+03  0.11912613420E+04  0.87770118241E+02 0.  0.
          4    1    3    3  502    0 -0.54005303711E+03  0.11772350109E+04 -0.19543243884E+04  0.23445518482E+04  0.00000000000E+00 0. -1.
         -3    1    3    3    0  502 -0.13715411254E+03  0.23964372143E+03 -0.36490060825E+03  0.45759459974E+03  0.00000000000E+00 0.  1.
         11    1    5    5    0    0  0.35411907308E+03 -0.13310635615E+03 -0.20643371754E+03  0.43096693574E+03  0.00000000000E+00 0. -1.
        -11    1    5    5    0    0  0.16148605176E+03 -0.11361132998E+03 -0.15928323590E+03  0.25368568831E+03  0.00000000000E+00 0.  1.
          3    1    6    6  503    0  0.98333253986E+02 -0.41329410467E+03 -0.35276905616E+02  0.42629321583E+03  0.00000000000E+00 0. -1.
         -3    1    6    6    0  503  0.63268770827E+02 -0.75686694151E+03 -0.91245435450E+02  0.76496812614E+03  0.00000000000E+00 0.  1.
<mgrwt>
<rscale>  0 0.37389728E+04</rscale>
<asrwt>0</asrwt>
<pdfrwt beam="1">  1        2 0.57611729E+00 0.37389728E+04</pdfrwt>
<pdfrwt beam="2">  1       -1 0.14358432E+00 0.37389728E+04</pdfrwt>
<totfact> 0.19339243E-01</totfact>
</mgrwt>
</event>
<event>
12    6  0.1395358E-007  0.3473107E+04  0.7818608E-02  0.8120193E-01
         -1   -1    0    0    0  501 -0.00000000000E+00  0.00000000000E+00  0.14057521400E+04  0.14057521400E+04  0.00000000000E+00 0.  1.
          2   -1    0    0  501    0  0.00000000000E+00 -0.00000000000E+00 -0.21451991109E+04  0.21451991109E+04  0.00000000000E+00 0. -1.
         24    2    1    2    0    0  0.15049394710E+04 -0.44257539839E+03 -0.75474659476E+03  0.17426607653E+04  0.80674196337E+02 0.  0.
        254    2    1    2    0    0 -0.15049394710E+04  0.44257539839E+03  0.15299623866E+02  0.18082904855E+04  0.89942459764E+03 0.  0.
         23    2    4    4    0    0 -0.14156370317E+04  0.24628158591E+03  0.26737651922E+03  0.14641999693E+04  0.87798189946E+02 0.  0.
         23    2    4    4    0    0 -0.89302439324E+02  0.19629381248E+03 -0.25207689535E+03  0.34409051617E+03  0.91374699236E+02 0.  0.
          2    1    3    3  502    0  0.37991918287E+03 -0.12101055561E+03 -0.22999436155E+03  0.46030375452E+03  0.00000000000E+00 0. -1.
         -1    1    3    3    0  502  0.11250202881E+04 -0.32156484278E+03 -0.52475223321E+03  0.12823570108E+04  0.00000000000E+00 0.  1.
         11    1    5    5    0    0 -0.78452627805E+03  0.95624133455E+02  0.12956840089E+03  0.80088290427E+03  0.00000000000E+00 0.  1.
        -11    1    5    5    0    0 -0.63111075365E+03  0.15065745245E+03  0.13780811833E+03  0.66331706508E+03  0.00000000000E+00 0. -1.
          1    1    6    6  503    0 -0.49879725828E+02  0.42332691754E+02 -0.12312984962E+03  0.13943099981E+03  0.00000000000E+00 0. -1.
         -1    1    6    6    0  503 -0.39422713496E+02  0.15396112073E+03 -0.12894704573E+03  0.20465951636E+03  0.00000000000E+00 0.  1.
<mgrwt>
<rscale>  0 0.34731071E+04</rscale>
<asrwt>0</asrwt>
<pdfrwt beam="1">  1        2 0.33003063E+00 0.34731071E+04</pdfrwt>
<pdfrwt beam="2">  1       -1 0.21626956E+00 0.34731071E+04</pdfrwt>
<totfact> 0.60523215E-01</totfact>
</mgrwt>
</event>
<event>
12    6  0.1395358E-007  0.2112674E+04  0.7818608E-02  0.8555681E-01
          2   -1    0    0  501    0  0.00000000000E+00  0.00000000000E+00  0.19487249833E+04  0.19487249833E+04  0.00000000000E+00 0. -1.
         -1   -1    0    0    0  501 -0.00000000000E+00 -0.00000000000E+00 -0.57260417940E+03  0.57260417940E+03  0.00000000000E+00 0.  1.
         24    2    1    2    0    0  0.65011364855E+03  0.54415589887E+03  0.75254635892E+03  0.11367771575E+04  0.84751903118E+02 0.  0.
        254    2    1    2    0    0 -0.65011364855E+03 -0.54415589887E+03  0.62357444496E+03  0.13845520052E+04  0.89965869554E+03 0.  0.
         23    2    4    4    0    0 -0.84916857872E+03 -0.54171993915E+03  0.46495262386E+03  0.11130670370E+04  0.90495961038E+02 0.  0.
         23    2    4    4    0    0  0.19905493016E+03 -0.24359597174E+01  0.15862182109E+03  0.27148496818E+03  0.94416135782E+02 0.  0.
          2    1    3    3  502    0  0.31836658437E+03  0.32142123560E+03  0.39467128586E+03  0.60036182142E+03  0.00000000000E+00 0. -1.
         -1    1    3    3    0  502  0.33174706419E+03  0.22273466327E+03  0.35787507306E+03  0.53641533604E+03  0.00000000000E+00 0.  1.
         11    1    5    5    0    0 -0.25526648898E+03 -0.14543450742E+03  0.93907783116E+02  0.30843289071E+03  0.00000000000E+00 0. -1.
        -11    1    5    5    0    0 -0.59390208974E+03 -0.39628543173E+03  0.37104484075E+03  0.80463414633E+03  0.00000000000E+00 0.  1.
          3    1    6    6  503    0  0.88777440296E+02  0.45614732391E+02  0.78031094105E+02  0.12669249924E+03  0.00000000000E+00 0. -1.
         -3    1    6    6    0  503  0.11027748987E+03 -0.48050692109E+02  0.80590726987E+02  0.14479246894E+03  0.00000000000E+00 0.  1.
<mgrwt>
<rscale>  0 0.21126742E+04</rscale>
<asrwt>0</asrwt>
<pdfrwt beam="1">  1        2 0.29980384E+00 0.21126742E+04</pdfrwt>
<pdfrwt beam="2">  1       -1 0.88092951E-01 0.21126742E+04</pdfrwt>
<totfact> 0.94681280E+00</totfact>
</mgrwt>
</event>
<event>
12    6  0.1395358E-007  0.1589434E+04  0.7818608E-02  0.8827066E-01
         -1   -1    0    0    0  501 -0.00000000000E+00  0.00000000000E+00  0.27951738436E+03  0.27951738436E+03  0.00000000000E+00 0.  1.
          2   -1    0    0  501    0  0.00000000000E+00 -0.00000000000E+00 -0.22595192728E+04  0.22595192728E+04  0.00000000000E+00 0. -1.
         24    2    1    2    0    0  0.24422297783E+03 -0.23076692878E+03 -0.72182979805E+01  0.34508756432E+03  0.78326782786E+02 0.  0.
        254    2    1    2    0    0 -0.24422297783E+03  0.23076692878E+03 -0.19727835904E+04  0.21939490928E+04  0.89924373160E+03 0.  0.
         23    2    4    4    0    0 -0.10359802373E+03  0.17494963385E+03 -0.10208381840E+02  0.22319515098E+03  0.91498303030E+02 0.  0.
         23    2    4    4    0    0 -0.14062495410E+03  0.55817294937E+02 -0.19625752086E+04  0.19707539418E+04  0.96326017786E+02 0.  0.
          4    1    3    3  502    0  0.93875234830E+02 -0.52020793218E+02 -0.27038435910E+02  0.11067881305E+03  0.00000000000E+00 0. -1.
         -3    1    3    3    0  502  0.15034774300E+03 -0.17874613557E+03  0.19820137929E+02  0.23440875127E+03  0.00000000000E+00 0.  1.
         11    1    5    5    0    0  0.16441381830E+02  0.27520778760E+02  0.51045224053E+01  0.32461799843E+02  0.00000000000E+00 0. -1.
        -11    1    5    5    0    0 -0.12003940556E+03  0.14742885509E+03 -0.15312904245E+02  0.19073335114E+03  0.00000000000E+00 0.  1.
          3    1    6    6  503    0 -0.10408811985E+03  0.75938790540E+02 -0.11680946751E+04  0.11751792232E+04  0.00000000000E+00 0. -1.
         -3    1    6    6    0  503 -0.36536834245E+02 -0.20121495603E+02 -0.79448053353E+03  0.79557471868E+03  0.00000000000E+00 0.  1.
<mgrwt>
<rscale>  0 0.15894338E+04</rscale>
<asrwt>0</asrwt>
<pdfrwt beam="1">  1        2 0.34761835E+00 0.15894338E+04</pdfrwt>
<pdfrwt beam="2">  1       -1 0.43002674E-01 0.15894338E+04</pdfrwt>
<totfact> 0.27870876E+01</totfact>
</mgrwt>
</event>
<event>
12    6  0.1395358E-007  0.2211911E+04  0.7818608E-02  0.8513487E-01
          2   -1    0    0  501    0  0.00000000000E+00  0.00000000000E+00  0.10290450850E+04  0.10290450850E+04  0.00000000000E+00 0. -1.
         -1   -1    0    0    0  501 -0.00000000000E+00 -0.00000000000E+00 -0.11886142124E+04  0.11886142124E+04  0.00000000000E+00 0.  1.
         24    2    1    2    0    0 -0.70804053413E+03 -0.50317182420E+03  0.24058643993E+03  0.90466775664E+03  0.77708636474E+02 0.  0.
        254    2    1    2    0    0  0.70804053413E+03  0.50317182420E+03 -0.40015556735E+03  0.13129915408E+04  0.89962160125E+03 0.  0.
         23    2    4    4    0    0  0.27362431813E+03 -0.19783770481E+03 -0.32912022452E+03  0.48015935927E+03  0.90680004345E+02 0.  0.
         23    2    4    4    0    0  0.43441621601E+03  0.70100952901E+03 -0.71035342826E+02  0.83283218152E+03  0.91823821228E+02 0.  0.
          2    1    3    3  502    0 -0.48740600029E+03 -0.32093720998E+03  0.13002453085E+03  0.59788935472E+03  0.00000000000E+00 0. -1.
         -1    1    3    3    0  502 -0.22063453385E+03 -0.18223461422E+03  0.11056190908E+03  0.30677840192E+03  0.00000000000E+00 0.  1.
         11    1    5    5    0    0  0.19306248942E+03 -0.18571261319E+03 -0.24434291907E+03  0.36258207570E+03  0.00000000000E+00 0. -1.
        -11    1    5    5    0    0  0.80561828705E+02 -0.12125091617E+02 -0.84777305455E+02  0.11757728357E+03  0.00000000000E+00 0.  1.
          3    1    6    6  503    0  0.38625510042E+03  0.66478715094E+03 -0.74605155341E+02  0.77246416607E+03  0.00000000000E+00 0. -1.
         -3    1    6    6    0  503  0.48161115586E+02  0.36222378066E+02  0.35698125151E+01  0.60368015444E+02  0.00000000000E+00 0.  1.
<mgrwt>
<rscale>  0 0.22119110E+04</rscale>
<asrwt>0</asrwt>
<pdfrwt beam="1">  1        2 0.15831463E+00 0.22119110E+04</pdfrwt>
<pdfrwt beam="2">  1       -1 0.18286372E+00 0.22119110E+04</pdfrwt>
<totfact> 0.49887483E+00</totfact>
</mgrwt>
</event>
<event>
12    6  0.1395358E-007  0.1390450E+04  0.7818608E-02  0.8960761E-01
         -1   -1    0    0    0  501 -0.00000000000E+00  0.00000000000E+00  0.10944092394E+04  0.10944092394E+04  0.00000000000E+00 0.  1.
          2   -1    0    0  501    0  0.00000000000E+00 -0.00000000000E+00 -0.44164250249E+03  0.44164250249E+03  0.00000000000E+00 0. -1.
         24    2    1    2    0    0 -0.23914019063E+03  0.31667466605E+03  0.23523648801E+03  0.46776953219E+03  0.77467767869E+02 0.  0.
        254    2    1    2    0    0  0.23914019063E+03 -0.31667466605E+03  0.41753024888E+03  0.10682822097E+04  0.89968021869E+03 0.  0.
         23    2    4    4    0    0  0.21918393204E+03 -0.14745289211E+03 -0.24918607239E+03  0.37399137441E+03  0.89397416125E+02 0.  0.
         23    2    4    4    0    0  0.19956258596E+02 -0.16922177394E+03  0.66671632126E+03  0.69429083527E+03  0.92167509853E+02 0.  0.
          2    1    3    3  502    0 -0.12915324883E+02  0.60479284337E+02  0.26441529887E+02  0.67258486108E+02  0.00000000000E+00 0. -1.
         -1    1    3    3    0  502 -0.22622486575E+03  0.25619538171E+03  0.20879495812E+03  0.40051104608E+03  0.00000000000E+00 0.  1.
         11    1    5    5    0    0  0.18683289227E+03 -0.10427286644E+03 -0.15073738930E+03  0.26172718781E+03  0.00000000000E+00 0. -1.
        -11    1    5    5    0    0  0.32351039770E+02 -0.43180025670E+02 -0.98448683090E+02  0.11226418660E+03  0.00000000000E+00 0.  1.
          2    1    6    6  503    0  0.20182786867E+01 -0.94806225059E+02  0.20003806172E+03  0.22137642127E+03  0.00000000000E+00 0.  1.
         -2    1    6    6    0  503  0.17937979909E+02 -0.74415548881E+02  0.46667825955E+03  0.47291441400E+03  0.00000000000E+00 0. -1.
<mgrwt>
<rscale>  0 0.13904498E+04</rscale>
<asrwt>0</asrwt>
<pdfrwt beam="1">  1        2 0.67945001E-01 0.13904498E+04</pdfrwt>
<pdfrwt beam="2">  1       -1 0.16837065E+00 0.13904498E+04</pdfrwt>
<totfact> 0.20025000E+01</totfact>
</mgrwt>
</event>
<event>
12    6  0.1395358E-007  0.1893519E+04  0.7818608E-02  0.8658089E-01
          2   -1    0    0  501    0  0.00000000000E+00  0.00000000000E+00  0.76124330805E+03  0.76124330805E+03  0.00000000000E+00 0. -1.
         -1   -1    0    0    0  501 -0.00000000000E+00 -0.00000000000E+00 -0.11774867701E+04  0.11774867701E+04  0.00000000000E+00 0.  1.
         24    2    1    2    0    0  0.32890488012E+03 -0.30621454268E+03 -0.74993864850E+03  0.87804367706E+03  0.81283183910E+02 0.  0.
        254    2    1    2    0    0 -0.32890488012E+03  0.30621454268E+03  0.33369518650E+03  0.10606864011E+04  0.90097580299E+03 0.  0.
         23    2    4    4    0    0 -0.23852054066E+03  0.26822234486E+02  0.60067604433E+03  0.65327263656E+03  0.91334258968E+02 0.  0.
         23    2    4    4    0    0 -0.90384339465E+02  0.27939230820E+03 -0.26698085783E+03  0.40741376450E+03  0.92075003944E+02 0.  0.
          2    1    3    3  502    0  0.18414211083E+03 -0.20230309557E+03 -0.38957418272E+03  0.47602825893E+03  0.00000000000E+00 0. -1.
         -1    1    3    3    0  502  0.14476276929E+03 -0.10391144711E+03 -0.36036446578E+03  0.40201541813E+03  0.00000000000E+00 0.  1.
         11    1    5    5    0    0 -0.85562671471E+02 -0.21056040036E+02  0.13909215121E+03  0.16465404368E+03  0.00000000000E+00 0.  1.
        -11    1    5    5    0    0 -0.15295786919E+03  0.47878274522E+02  0.46158389312E+03  0.48861859288E+03  0.00000000000E+00 0. -1.
          2    1    6    6  503    0 -0.18140137014E+02  0.15930906638E+02 -0.59989348381E+02  0.64665139576E+02  0.00000000000E+00 0. -1.
         -2    1    6    6    0  503 -0.72244202451E+02  0.26346140156E+03 -0.20699150945E+03  0.34274862492E+03  0.00000000000E+00 0.  1.
<mgrwt>
<rscale>  0 0.18935194E+04</rscale>
<asrwt>0</asrwt>
<pdfrwt beam="1">  1        2 0.11711436E+00 0.18935194E+04</pdfrwt>
<pdfrwt beam="2">  1       -1 0.18115181E+00 0.18935194E+04</pdfrwt>
<totfact> 0.80323593E+00</totfact>
</mgrwt>
</event>
<event>
12    6  0.1395358E-007  0.1295919E+04  0.7818608E-02  0.9032808E-01
         -1   -1    0    0    0  501 -0.00000000000E+00  0.00000000000E+00  0.19099940246E+03  0.19099940246E+03  0.00000000000E+00 0.  1.
          2   -1    0    0  501    0  0.00000000000E+00 -0.00000000000E+00 -0.21981819067E+04  0.21981819067E+04  0.00000000000E+00 0. -1.
         24    2    1    2    0    0  0.24030112765E+03  0.50320155944E+01 -0.93359908611E+03  0.96732361816E+03  0.79610147179E+02 0.  0.
        254    2    1    2    0    0 -0.24030112765E+03 -0.50320155944E+01 -0.10735834181E+04  0.14218576910E+04  0.90073746710E+03 0.  0.
         23    2    4    4    0    0 -0.49711803970E+03 -0.16277950778E+03 -0.35884102615E+03  0.64084519231E+03  0.91061325011E+02 0.  0.
         23    2    4    4    0    0  0.25681691205E+03  0.15774749219E+03 -0.71474239199E+03  0.78101249869E+03  0.91019990123E+02 0.  0.
          2    1    3    3  502    0  0.20158487781E+02 -0.22519856977E+02 -0.14461841335E+03  0.14774300006E+03  0.00000000000E+00 0. -1.
         -1    1    3    3    0  502  0.22014263987E+03  0.27551872571E+02 -0.78898067276E+03  0.81958061810E+03  0.00000000000E+00 0.  1.
         11    1    5    5    0    0 -0.22640365934E+03 -0.33065224098E+02 -0.12809610764E+03  0.26222230798E+03  0.00000000000E+00 0. -1.
        -11    1    5    5    0    0 -0.27071438035E+03 -0.12971428369E+03 -0.23074491851E+03  0.37862288433E+03  0.00000000000E+00 0.  1.
          1    1    6    6  503    0  0.71571054739E+02  0.32871919924E+02 -0.10236826440E+03  0.12915974819E+03  0.00000000000E+00 0. -1.
         -1    1    6    6    0  503  0.18524585731E+03  0.12487557227E+03 -0.61237412759E+03  0.65185275051E+03  0.00000000000E+00 0.  1.
<mgrwt>
<rscale>  0 0.12959189E+04</rscale>
<asrwt>0</asrwt>
<pdfrwt beam="1">  1        2 0.33818182E+00 0.12959189E+04</pdfrwt>
<pdfrwt beam="2">  1       -1 0.29384525E-01 0.12959189E+04</pdfrwt>
<totfact> 0.61298999E+01</totfact>
</mgrwt>
</event>
<event>
12    6  0.1395358E-007  0.1236158E+04  0.7818608E-02  0.9081783E-01
         -1   -1    0    0    0  501 -0.00000000000E+00  0.00000000000E+00  0.84211757505E+03  0.84211757505E+03  0.00000000000E+00 0.  1.
          2   -1    0    0  501    0  0.00000000000E+00 -0.00000000000E+00 -0.45364408128E+03  0.45364408128E+03  0.00000000000E+00 0. -1.
         24    2    1    2    0    0  0.27581688328E+03 -0.23081238965E+01  0.15700908576E+03  0.32762814903E+03  0.81290039288E+02 0.  0.
        254    2    1    2    0    0 -0.27581688328E+03  0.23081238965E+01  0.23146440801E+03  0.96813350731E+03  0.89868038548E+03 0.  0.
         23    2    4    4    0    0 -0.98961407922E+02 -0.38821045502E+03  0.31890582493E+03  0.52074863678E+03  0.94749669579E+02 0.  0.
         23    2    4    4    0    0 -0.17685547536E+03  0.39051857892E+03 -0.87441416920E+02  0.44738487053E+03  0.93405574456E+02 0.  0.
          2    1    3    3  502    0  0.13372317787E+03  0.10811820645E+02  0.32012490924E+02  0.13792600676E+03  0.00000000000E+00 0. -1.
         -1    1    3    3    0  502  0.14209370541E+03 -0.13119944541E+02  0.12499659483E+03  0.18970214227E+03  0.00000000000E+00 0.  1.
         11    1    5    5    0    0 -0.10794710710E+03 -0.24688245304E+03  0.22240113079E+03  0.34937914438E+03  0.00000000000E+00 0.  1.
        -11    1    5    5    0    0  0.89856991771E+01 -0.14132800198E+03  0.96504694136E+02  0.17136949240E+03  0.00000000000E+00 0. -1.
          3    1    6    6  503    0 -0.11986780885E+03  0.24962274237E+03 -0.10682993659E+02  0.27711718001E+03  0.00000000000E+00 0. -1.
         -3    1    6    6    0  503 -0.56987666511E+02  0.14089583655E+03 -0.76758423261E+02  0.17026769052E+03  0.00000000000E+00 0.  1.
<mgrwt>
<rscale>  0 0.12361580E+04</rscale>
<asrwt>0</asrwt>
<pdfrwt beam="1">  1        2 0.69791397E-01 0.12361580E+04</pdfrwt>
<pdfrwt beam="2">  1       -1 0.12955655E+00 0.12361580E+04</pdfrwt>
<totfact> 0.39707553E+01</totfact>
</mgrwt>
</event>
<event>
12    6  0.1395358E-007  0.1145617E+04  0.7818608E-02  0.9161837E-01
          2   -1    0    0  501    0  0.00000000000E+00  0.00000000000E+00  0.86179468577E+03  0.86179468577E+03  0.00000000000E+00 0. -1.
         -1   -1    0    0    0  501 -0.00000000000E+00 -0.00000000000E+00 -0.38072798114E+03  0.38072798114E+03  0.00000000000E+00 0.  1.
         24    2    1    2    0    0  0.73584492190E+02 -0.15340444528E+03 -0.36586243214E+02  0.19062599721E+03  0.77795348827E+02 0.  0.
        254    2    1    2    0    0 -0.73584492190E+02  0.15340444528E+03  0.51765294785E+03  0.10518966697E+04  0.89976354004E+03 0.  0.
         23    2    4    4    0    0  0.50612639467E+02  0.19362951544E+03 -0.21176786598E+03  0.30542581676E+03  0.91571130607E+02 0.  0.
         23    2    4    4    0    0 -0.12419713166E+03 -0.40225070160E+02  0.72942081383E+03  0.74647085294E+03  0.90116740135E+02 0.  0.
          2    1    3    3  502    0  0.17593004753E+02 -0.38291237947E+02  0.24548538189E+02  0.48768467753E+02  0.00000000000E+00 0. -1.
         -1    1    3    3    0  502  0.55991487437E+02 -0.11511320733E+03 -0.61134781403E+02  0.14185752946E+03  0.00000000000E+00 0.  1.
         11    1    5    5    0    0  0.36252257186E+02  0.12439433526E+02 -0.37575047133E+02  0.53673548649E+02  0.00000000000E+00 0. -1.
        -11    1    5    5    0    0  0.14360382281E+02  0.18119008191E+03 -0.17419281885E+03  0.25175226811E+03  0.00000000000E+00 0.  1.
          2    1    6    6  503    0 -0.18725446649E+01  0.19847723951E+02  0.57182833159E+02  0.60558360097E+02  0.00000000000E+00 0. -1.
         -2    1    6    6    0  503 -0.12232458699E+03 -0.60072794111E+02  0.67223798067E+03  0.68591249284E+03  0.00000000000E+00 0.  1.
<mgrwt>
<rscale>  0 0.11456166E+04</rscale>
<asrwt>0</asrwt>
<pdfrwt beam="1">  1        2 0.13258380E+00 0.11456166E+04</pdfrwt>
<pdfrwt beam="2">  1       -1 0.58573536E-01 0.11456166E+04</pdfrwt>
<totfact> 0.10395121E+02</totfact>
</mgrwt>
</event>
<event>
12    6  0.1395358E-007  0.1452106E+04  0.7818608E-02  0.8916941E-01
          2   -1    0    0  501    0  0.00000000000E+00  0.00000000000E+00  0.61756069863E+03  0.61756069863E+03  0.00000000000E+00 0. -1.
         -1   -1    0    0    0  501 -0.00000000000E+00 -0.00000000000E+00 -0.85360561482E+03  0.85360561482E+03  0.00000000000E+00 0.  1.
         24    2    1    2    0    0  0.71501921622E+02 -0.31688811833E+03  0.22823672959E+03  0.40498862693E+03  0.79957356597E+02 0.  0.
        254    2    1    2    0    0 -0.71501921622E+02  0.31688811833E+03 -0.46428164578E+03  0.10661776865E+04  0.90313166720E+03 0.  0.
         23    2    4    4    0    0  0.11848905925E+03 -0.35540563276E+01 -0.63032304225E+03  0.64844392935E+03  0.95499232680E+02 0.  0.
         23    2    4    4    0    0 -0.18999098087E+03  0.32044217465E+03  0.16604139647E+03  0.41773375717E+03  0.90288351581E+02 0.  0.
          4    1    3    3  502    0  0.47686726044E+02 -0.69358385561E+02  0.76081783697E+02  0.11345945222E+03  0.00000000000E+00 0. -1.
         -3    1    3    3    0  502  0.23815195579E+02 -0.24752973277E+03  0.15215494589E+03  0.29152917470E+03  0.00000000000E+00 0.  1.
         11    1    5    5    0    0 -0.42537525794E+01 -0.26597124602E+02 -0.94862981120E+02  0.98612811719E+02  0.00000000000E+00 0. -1.
        -11    1    5    5    0    0  0.12274281183E+03  0.23043068275E+02 -0.53546006113E+03  0.54983111763E+03  0.00000000000E+00 0.  1.
          2    1    6    6  503    0 -0.36655046901E+02  0.13020178787E+03  0.31829512502E+02  0.13895760466E+03  0.00000000000E+00 0. -1.
         -2    1    6    6    0  503 -0.15333593397E+03  0.19024038679E+03  0.13421188397E+03  0.27877615251E+03  0.00000000000E+00 0.  1.
<mgrwt>
<rscale>  0 0.14521064E+04</rscale>
<asrwt>0</asrwt>
<pdfrwt beam="1">  1        2 0.95009338E-01 0.14521064E+04</pdfrwt>
<pdfrwt beam="2">  1       -1 0.13132394E+00 0.14521064E+04</pdfrwt>
<totfact> 0.26230032E+01</totfact>
</mgrwt>
</event>
<event>
12    6  0.1395358E-007  0.7932337E+04  0.7818608E-02  0.7488248E-01
          2   -1    0    0  501    0  0.00000000000E+00  0.00000000000E+00  0.42746890590E+04  0.42746890590E+04  0.00000000000E+00 0. -1.
         -1   -1    0    0    0  501 -0.00000000000E+00 -0.00000000000E+00 -0.36799149075E+04  0.36799149075E+04  0.00000000000E+00 0.  1.
         24    2    1    2    0    0  0.37332588338E+04  0.11603558352E+04  0.87845353239E+02  0.39112158020E+04  0.79025688303E+02 0.  0.
        254    2    1    2    0    0 -0.37332588338E+04 -0.11603558352E+04  0.50692879833E+03  0.40433881645E+04  0.89909057283E+03 0.  0.
         23    2    4    4    0    0 -0.22566809946E+03 -0.11184939077E+03  0.25896477086E+03  0.37287412442E+03  0.92390382541E+02 0.  0.
         23    2    4    4    0    0 -0.35075907343E+04 -0.10485064444E+04  0.24796402747E+03  0.36705140401E+04  0.92890452441E+02 0.  0.
          4    1    3    3  502    0  0.16812108631E+04  0.49740435667E+03  0.70517645066E+02  0.17546662927E+04  0.00000000000E+00 0. -1.
         -3    1    3    3    0  502  0.20520479707E+04  0.66295147848E+03  0.17327708173E+02  0.21565495093E+04  0.00000000000E+00 0.  1.
         11    1    5    5    0    0 -0.33163239941E+02 -0.59742983202E+02  0.56261923427E+02  0.88512307354E+02  0.00000000000E+00 0. -1.
        -11    1    5    5    0    0 -0.19250485952E+03 -0.52106407564E+02  0.20270284744E+03  0.28436181707E+03  0.00000000000E+00 0.  1.
          3    1    6    6  503    0 -0.22158112522E+04 -0.61558605926E+03  0.15842213673E+03  0.23051818313E+04  0.00000000000E+00 0. -1.
         -3    1    6    6    0  503 -0.12917794821E+04 -0.43292038513E+03  0.89541890739E+02  0.13653322088E+04  0.00000000000E+00 0.  1.
<mgrwt>
<rscale>  0 0.79323369E+04</rscale>
<asrwt>0</asrwt>
<pdfrwt beam="1">  1        2 0.65764447E+00 0.79323369E+04</pdfrwt>
<pdfrwt beam="2">  1       -1 0.56614075E+00 0.79323369E+04</pdfrwt>
<totfact> 0.84098863E-05</totfact>
</mgrwt>
</event>
<event>
12    6  0.1395358E-007  0.1431427E+04  0.7818608E-02  0.8931379E-01
         -1   -1    0    0    0  501 -0.00000000000E+00  0.00000000000E+00  0.54224518544E+03  0.54224518544E+03  0.00000000000E+00 0.  1.
          2   -1    0    0  501    0  0.00000000000E+00 -0.00000000000E+00 -0.94467536889E+03  0.94467536889E+03  0.00000000000E+00 0. -1.
         24    2    1    2    0    0 -0.17332218003E+03  0.35905902233E+03 -0.28427470503E+03  0.49536311445E+03  0.74890237268E+02 0.  0.
        254    2    1    2    0    0  0.17332218003E+03 -0.35905902233E+03 -0.11815547842E+03  0.99155743989E+03  0.90014525489E+03 0.  0.
         23    2    4    4    0    0 -0.22365293241E+03  0.17066214429E+03 -0.12868171046E+03  0.32333795477E+03  0.94033231965E+02 0.  0.
         23    2    4    4    0    0  0.39697511244E+03 -0.52972116662E+03  0.10526232041E+02  0.66821948512E+03  0.90624083264E+02 0.  0.
          4    1    3    3  502    0 -0.81990122150E+02  0.14847188662E+03 -0.16524959211E+03  0.23679887867E+03  0.00000000000E+00 0. -1.
         -3    1    3    3    0  502 -0.91332057877E+02  0.21058713570E+03 -0.11902511292E+03  0.25856423578E+03  0.00000000000E+00 0.  1.
         11    1    5    5    0    0 -0.11384490173E+03  0.14396170036E+03 -0.75888711809E+02  0.19860697218E+03  0.00000000000E+00 0. -1.
        -11    1    5    5    0    0 -0.10980803069E+03  0.26700443932E+02 -0.52792998654E+02  0.12473098258E+03  0.00000000000E+00 0.  1.
          1    1    6    6  503    0  0.17401306022E+03 -0.30561383533E+03 -0.49027895560E+01  0.35171636132E+03  0.00000000000E+00 0. -1.
         -1    1    6    6    0  503  0.22296205222E+03 -0.22410733129E+03  0.15429021597E+02  0.31650312380E+03  0.00000000000E+00 0.  1.
<mgrwt>
<rscale>  0 0.14314268E+04</rscale>
<asrwt>0</asrwt>
<pdfrwt beam="1">  1        2 0.14533467E+00 0.14314268E+04</pdfrwt>
<pdfrwt beam="2">  1       -1 0.83422337E-01 0.14314268E+04</pdfrwt>
<totfact> 0.43256961E+01</totfact>
</mgrwt>
</event>
<event>
12    6  0.1395358E-007  0.2993377E+04  0.7818608E-02  0.8245625E-01
          2   -1    0    0  501    0  0.00000000000E+00  0.00000000000E+00  0.25489565069E+04  0.25489565069E+04  0.00000000000E+00 0. -1.
         -1   -1    0    0    0  501 -0.00000000000E+00 -0.00000000000E+00 -0.87882091554E+03  0.87882091554E+03  0.00000000000E+00 0.  1.
         24    2    1    2    0    0 -0.13365198391E+04 -0.24660537651E+03  0.82314433201E+03  0.15909420626E+04  0.80190792788E+02 0.  0.
        254    2    1    2    0    0  0.13365198391E+04  0.24660537651E+03  0.84699125937E+03  0.18368353599E+04  0.89970575960E+03 0.  0.
         23    2    4    4    0    0  0.10739851397E+04  0.28432664015E+02  0.19456659199E+03  0.10953959405E+04  0.88224776210E+02 0.  0.
         23    2    4    4    0    0  0.26253469939E+03  0.21817271250E+03  0.65242466738E+03  0.74143941935E+03  0.86894563185E+02 0.  0.
          4    1    3    3  502    0 -0.66602555396E+03 -0.15804960669E+03  0.39032869056E+03  0.78798870765E+03  0.00000000000E+00 0. -1.
         -3    1    3    3    0  502 -0.67049428510E+03 -0.88555769822E+02  0.43281564145E+03  0.80295335494E+03  0.00000000000E+00 0.  1.
         11    1    5    5    0    0  0.51172339417E+03 -0.28737413024E+02  0.10516488395E+03  0.52320772535E+03  0.00000000000E+00 0. -1.
        -11    1    5    5    0    0  0.56226174550E+03  0.57170077039E+02  0.89401708038E+02  0.57218821516E+03  0.00000000000E+00 0.  1.
          2    1    6    6  503    0  0.20792153755E+03  0.20752633041E+03  0.57955291893E+03  0.64975389912E+03  0.00000000000E+00 0. -1.
         -2    1    6    6    0  503  0.54613161843E+02  0.10646382083E+02  0.72871748449E+02  0.91685520231E+02  0.00000000000E+00 0.  1.
<mgrwt>
<rscale>  0 0.29933769E+04</rscale>
<asrwt>0</asrwt>
<pdfrwt beam="1">  1        2 0.39214715E+00 0.29933769E+04</pdfrwt>
<pdfrwt beam="2">  1       -1 0.13520322E+00 0.29933769E+04</pdfrwt>
<totfact> 0.14558492E+00</totfact>
</mgrwt>
</event>
<event>
12    6  0.1395358E-007  0.3295633E+04  0.7818608E-02  0.8164008E-01
          2   -1    0    0  501    0  0.00000000000E+00  0.00000000000E+00  0.19699912756E+04  0.19699912756E+04  0.00000000000E+00 0. -1.
         -1   -1    0    0    0  501 -0.00000000000E+00 -0.00000000000E+00 -0.13783302756E+04  0.13783302756E+04  0.00000000000E+00 0.  1.
         24    2    1    2    0    0 -0.85541679084E+03 -0.12340477125E+04  0.97133400226E+01  0.15036920119E+04  0.79897903050E+02 0.  0.
        254    2    1    2    0    0  0.85541679084E+03  0.12340477125E+04  0.58194766002E+03  0.18446295393E+04  0.89965738789E+03 0.  0.
         23    2    4    4    0    0  0.12357467359E+03  0.31868933142E+02  0.39099194950E+03  0.42137587697E+03  0.91632943108E+02 0.  0.
         23    2    4    4    0    0  0.73184211726E+03  0.12021787794E+04  0.19095571052E+03  0.14232536624E+04  0.91434139800E+02 0.  0.
          4    1    3    3  502    0 -0.44080061340E+03 -0.67364031256E+03  0.38756949823E+02  0.80597676929E+03  0.00000000000E+00 0. -1.
         -3    1    3    3    0  502 -0.41461617744E+03 -0.56040739995E+03 -0.29043609800E+02  0.69771524262E+03  0.00000000000E+00 0.  1.
         11    1    5    5    0    0 -0.27605256811E+01  0.28152645061E+02  0.10414652089E+03  0.10791983015E+03  0.00000000000E+00 0. -1.
        -11    1    5    5    0    0  0.12633519927E+03  0.37162880806E+01  0.28684542861E+03  0.31345604682E+03  0.00000000000E+00 0.  1.
          3    1    6    6  503    0  0.16745269953E+03  0.24513530108E+03  0.74687173781E+02  0.30612072184E+03  0.00000000000E+00 0. -1.
         -3    1    6    6    0  503  0.56438941773E+03  0.95704347828E+03  0.11626853674E+03  0.11171329405E+04  0.00000000000E+00 0.  1.
<mgrwt>
<rscale>  0 0.32956326E+04</rscale>
<asrwt>0</asrwt>
<pdfrwt beam="1">  1        2 0.30307558E+00 0.32956326E+04</pdfrwt>
<pdfrwt beam="2">  1       -1 0.21205081E+00 0.32956326E+04</pdfrwt>
<totfact> 0.82158431E-01</totfact>
</mgrwt>
</event>
<event>
12    6  0.1395358E-007  0.1805753E+04  0.7818608E-02  0.8703246E-01
         -1   -1    0    0    0  501 -0.00000000000E+00  0.00000000000E+00  0.43788526990E+03  0.43788526990E+03  0.00000000000E+00 0.  1.
          2   -1    0    0  501    0  0.00000000000E+00 -0.00000000000E+00 -0.18616422891E+04  0.18616422891E+04  0.00000000000E+00 0. -1.
         24    2    1    2    0    0 -0.29135527938E+03 -0.59440147846E+03 -0.36410926847E+03  0.75963723316E+03  0.79196907765E+02 0.  0.
        254    2    1    2    0    0  0.29135527938E+03  0.59440147846E+03 -0.10596477508E+04  0.15398903259E+04  0.90011546128E+03 0.  0.
         23    2    4    4    0    0 -0.26278027873E+03  0.28170071494E+03 -0.14450131260E+03  0.42170653682E+03  0.92450019840E+02 0.  0.
         23    2    4    4    0    0  0.55413555810E+03  0.31270076352E+03 -0.91514643817E+03  0.11181837891E+04  0.89409163846E+02 0.  0.
          4    1    3    3  502    0 -0.81753152150E+02 -0.11411481556E+03 -0.10331588887E+03  0.17429842773E+03  0.00000000000E+00 0. -1.
         -1    1    3    3    0  502 -0.20960212723E+03 -0.48028666289E+03 -0.26079337961E+03  0.58533880543E+03  0.00000000000E+00 0.  1.
         11    1    5    5    0    0 -0.96258702560E+02  0.50044899692E+02 -0.19507570287E+02  0.11023055430E+03  0.00000000000E+00 0.  1.
        -11    1    5    5    0    0 -0.16652157617E+03  0.23165581524E+03 -0.12499374231E+03  0.31147598251E+03  0.00000000000E+00 0. -1.
          3    1    6    6  503    0  0.34480511067E+03  0.14422529825E+03 -0.52435068195E+03  0.64392168675E+03  0.00000000000E+00 0. -1.
         -3    1    6    6    0  503  0.20933044743E+03  0.16847546527E+03 -0.39079575622E+03  0.47426210232E+03  0.00000000000E+00 0.  1.
<mgrwt>
<rscale>  0 0.18057527E+04</rscale>
<asrwt>0</asrwt>
<pdfrwt beam="1">  1        2 0.28640652E+00 0.18057527E+04</pdfrwt>
<pdfrwt beam="2">  1       -1 0.67366962E-01 0.18057527E+04</pdfrwt>
<totfact> 0.19127122E+01</totfact>
</mgrwt>
</event>
<event>
12    6  0.1395358E-007  0.2388459E+04  0.7818608E-02  0.8443837E-01
         -1   -1    0    0    0  501 -0.00000000000E+00  0.00000000000E+00  0.77500283899E+03  0.77500283899E+03  0.00000000000E+00 0.  1.
          2   -1    0    0  501    0  0.00000000000E+00 -0.00000000000E+00 -0.18402315277E+04  0.18402315277E+04  0.00000000000E+00 0. -1.
         24    2    1    2    0    0  0.78907128281E+03 -0.63128576336E+03 -0.27941134123E+03  0.10504369864E+04  0.64745350818E+02 0.  0.
        254    2    1    2    0    0 -0.78907128281E+03  0.63128576336E+03 -0.78581734748E+03  0.15647973803E+04  0.89995929536E+03 0.  0.
         23    2    4    4    0    0 -0.55204294800E+03  0.80359284250E+03 -0.36751744565E+03  0.10459560960E+04  0.91881494042E+02 0.  0.
         23    2    4    4    0    0 -0.23702833481E+03 -0.17230707914E+03 -0.41829990183E+03  0.51884128427E+03  0.91374555338E+02 0.  0.
          2    1    3    3  502    0  0.49365672790E+03 -0.39315670753E+03 -0.20685048570E+03  0.66412068565E+03  0.00000000000E+00 0. -1.
         -1    1    3    3    0  502  0.29541455492E+03 -0.23812905582E+03 -0.72560855534E+02  0.38631630077E+03  0.00000000000E+00 0.  1.
         11    1    5    5    0    0 -0.24074678979E+01 -0.25838928208E+01 -0.97561435163E+00  0.36639087259E+01  0.00000000000E+00 0.  1.
        -11    1    5    5    0    0 -0.54963548010E+03  0.80617673532E+03 -0.36654183130E+03  0.10422921873E+04  0.00000000000E+00 0. -1.
          3    1    6    6  503    0 -0.13164331723E+03 -0.14932197514E+03 -0.26798279623E+03  0.33382898961E+03  0.00000000000E+00 0. -1.
         -3    1    6    6    0  503 -0.10538501759E+03 -0.22985103998E+02 -0.15031710560E+03  0.18501229466E+03  0.00000000000E+00 0.  1.
<mgrwt>
<rscale>  0 0.23884595E+04</rscale>
<asrwt>0</asrwt>
<pdfrwt beam="1">  1        2 0.28311254E+00 0.23884595E+04</pdfrwt>
<pdfrwt beam="2">  1       -1 0.11923121E+00 0.23884595E+04</pdfrwt>
<totfact> 0.52812396E+00</totfact>
</mgrwt>
</event>
<event>
12    6  0.1395358E-007  0.1533776E+04  0.7818608E-02  0.8862298E-01
          2   -1    0    0  501    0  0.00000000000E+00  0.00000000000E+00  0.41153313771E+03  0.41153313771E+03  0.00000000000E+00 0. -1.
         -1   -1    0    0    0  501 -0.00000000000E+00 -0.00000000000E+00 -0.14290880068E+04  0.14290880068E+04  0.00000000000E+00 0.  1.
         24    2    1    2    0    0 -0.22256813686E+03 -0.12491838277E+03  0.17870622489E+03  0.32175658608E+03  0.80313186758E+02 0.  0.
        254    2    1    2    0    0  0.22256813686E+03  0.12491838277E+03 -0.11962610940E+04  0.15188645584E+04  0.90042643454E+03 0.  0.
         23    2    4    4    0    0  0.21638578641E+03  0.13043387274E+03  0.48070731357E+02  0.27091020642E+03  0.85121918509E+02 0.  0.
         23    2    4    4    0    0  0.61823504509E+01 -0.55154899634E+01 -0.12443318253E+04  0.12479543520E+04  0.94655856138E+02 0.  0.
          2    1    3    3  502    0 -0.20038305623E+03 -0.13536756654E+03  0.15263036548E+03  0.28596114379E+03  0.00000000000E+00 0. -1.
         -1    1    3    3    0  502 -0.22185080637E+02  0.10449183764E+02  0.26075859412E+02  0.35795442284E+02  0.00000000000E+00 0.  1.
         11    1    5    5    0    0  0.16193601145E+03  0.79261830626E+02 -0.31452713406E+01  0.18032083166E+03  0.00000000000E+00 0.  1.
        -11    1    5    5    0    0  0.54449774964E+02  0.51172042110E+02  0.51216002697E+02  0.90589374762E+02  0.00000000000E+00 0. -1.
          3    1    6    6  503    0  0.31953292864E+02  0.21109657738E+02 -0.10087055107E+04  0.10094322354E+04  0.00000000000E+00 0. -1.
         -3    1    6    6    0  503 -0.25770942413E+02 -0.26625147701E+02 -0.23562631466E+03  0.23852211663E+03  0.00000000000E+00 0.  1.
<mgrwt>
<rscale>  0 0.15337758E+04</rscale>
<asrwt>0</asrwt>
<pdfrwt beam="1">  1        2 0.63312791E-01 0.15337758E+04</pdfrwt>
<pdfrwt beam="2">  1       -1 0.21985969E+00 0.15337758E+04</pdfrwt>
<totfact> 0.93618729E+00</totfact>
</mgrwt>
</event>
<event>
12    6  0.1395358E-007  0.1638983E+04  0.7818608E-02  0.8796951E-01
         -1   -1    0    0    0  501 -0.00000000000E+00  0.00000000000E+00  0.51028401143E+03  0.51028401143E+03  0.00000000000E+00 0.  1.
          2   -1    0    0  501    0  0.00000000000E+00 -0.00000000000E+00 -0.13160634914E+04  0.13160634914E+04  0.00000000000E+00 0. -1.
         24    2    1    2    0    0 -0.52242582742E+03 -0.22485570618E+03 -0.33005376664E+03  0.66164264910E+03  0.73120944202E+02 0.  0.
        254    2    1    2    0    0  0.52242582742E+03  0.22485570618E+03 -0.47572571338E+03  0.11647048538E+04  0.89818350480E+03 0.  0.
         23    2    4    4    0    0  0.50320419537E+02  0.32710326776E+03 -0.56783060693E+03  0.66358286645E+03  0.91552881316E+02 0.  0.
         23    2    4    4    0    0  0.47210540788E+03 -0.10224756157E+03  0.92104893548E+02  0.50112198733E+03  0.96446123702E+02 0.  0.
          4    1    3    3  502    0 -0.30302154908E+03 -0.91894591085E+02 -0.17270660026E+03  0.36068579796E+03  0.00000000000E+00 0. -1.
         -3    1    3    3    0  502 -0.21940427834E+03 -0.13296111510E+03 -0.15734716637E+03  0.30095685114E+03  0.00000000000E+00 0.  1.
         11    1    5    5    0    0 -0.51511217747E+01  0.23166086188E+03 -0.35717532520E+03  0.42575521361E+03  0.00000000000E+00 0. -1.
        -11    1    5    5    0    0  0.55471541312E+02  0.95442405880E+02 -0.21065528173E+03  0.23782765284E+03  0.00000000000E+00 0.  1.
          2    1    6    6  503    0  0.16999837666E+03 -0.36302263465E+02 -0.13526892205E+02  0.17435675844E+03  0.00000000000E+00 0. -1.
         -2    1    6    6    0  503  0.30210703121E+03 -0.65945298108E+02  0.10563178575E+03  0.32676522889E+03  0.00000000000E+00 0.  1.
<mgrwt>
<rscale>  0 0.16389828E+04</rscale>
<asrwt>0</asrwt>
<pdfrwt beam="1">  1        2 0.20247130E+00 0.16389828E+04</pdfrwt>
<pdfrwt beam="2">  1       -1 0.78505235E-01 0.16389828E+04</pdfrwt>
<totfact> 0.28632987E+01</totfact>
</mgrwt>
</event>
<event>
12    6  0.1395358E-007  0.1856747E+04  0.7818608E-02  0.8676691E-01
         -1   -1    0    0    0  501 -0.00000000000E+00  0.00000000000E+00  0.37803930521E+03  0.37803930521E+03  0.00000000000E+00 0.  1.
          2   -1    0    0  501    0  0.00000000000E+00 -0.00000000000E+00 -0.22798626929E+04  0.22798626929E+04  0.00000000000E+00 0. -1.
         24    2    1    2    0    0  0.48059749423E+03  0.51847355498E+03 -0.75387169178E+03  0.10370944047E+04  0.86333642769E+02 0.  0.
        254    2    1    2    0    0 -0.48059749423E+03 -0.51847355498E+03 -0.11479516959E+04  0.16208075934E+04  0.89968626761E+03 0.  0.
         23    2    4    4    0    0 -0.60321548297E+03 -0.27104405193E+03 -0.11501067970E+04  0.13298362640E+04  0.91569904967E+02 0.  0.
         23    2    4    4    0    0  0.12261798874E+03 -0.24742950305E+03  0.21551011177E+01  0.29097132944E+03  0.91668642143E+02 0.  0.
          2    1    3    3  502    0  0.78374173049E+02  0.49244655935E+02 -0.12305912497E+03  0.15398407508E+03  0.00000000000E+00 0. -1.
         -1    1    3    3    0  502  0.40222332118E+03  0.46922889905E+03 -0.63081256681E+03  0.88311032960E+03  0.00000000000E+00 0.  1.
         11    1    5    5    0    0 -0.14681890168E+03 -0.25766736606E+02 -0.23750523507E+03  0.28040765198E+03  0.00000000000E+00 0.  1.
        -11    1    5    5    0    0 -0.45639658129E+03 -0.24527731533E+03 -0.91260156196E+03  0.10494286120E+04  0.00000000000E+00 0. -1.
          2    1    6    6  503    0  0.12458778559E+03 -0.16887471118E+03  0.18626909943E+02  0.21068399600E+03  0.00000000000E+00 0. -1.
         -2    1    6    6    0  503 -0.19697968509E+01 -0.78554791869E+02 -0.16471808826E+02  0.80287333442E+02  0.00000000000E+00 0.  1.
<mgrwt>
<rscale>  0 0.18567474E+04</rscale>
<asrwt>0</asrwt>
<pdfrwt beam="1">  1        2 0.35074812E+00 0.18567474E+04</pdfrwt>
<pdfrwt beam="2">  1       -1 0.58159891E-01 0.18567474E+04</pdfrwt>
<totfact> 0.14923499E+01</totfact>
</mgrwt>
</event>
<event>
12    6  0.1395358E-007  0.1823747E+04  0.7818608E-02  0.8693772E-01
          2   -1    0    0  501    0  0.00000000000E+00  0.00000000000E+00  0.17357976980E+04  0.17357976980E+04  0.00000000000E+00 0. -1.
         -1   -1    0    0    0  501 -0.00000000000E+00 -0.00000000000E+00 -0.47903823408E+03  0.47903823408E+03  0.00000000000E+00 0.  1.
         24    2    1    2    0    0 -0.19923383725E+03 -0.60861726735E+03  0.16786517158E+03  0.66691428380E+03  0.80540959030E+02 0.  0.
        254    2    1    2    0    0  0.19923383725E+03  0.60861726735E+03  0.10888942923E+04  0.15479216483E+04  0.89457338955E+03 0.  0.
         23    2    4    4    0    0 -0.25848396508E+03 -0.60598209526E+02  0.21956606550E+03  0.35641311024E+03  0.91295919002E+02 0.  0.
         23    2    4    4    0    0  0.45771780234E+03  0.66921547688E+03  0.86932822684E+03  0.11915085380E+04  0.81277851684E+02 0.  0.
          2    1    3    3  502    0 -0.80705265722E+02 -0.35687022348E+03  0.74300292101E+02  0.37335000968E+03  0.00000000000E+00 0. -1.
         -1    1    3    3    0  502 -0.11852857153E+03 -0.25174704387E+03  0.93564879477E+02  0.29356427411E+03  0.00000000000E+00 0.  1.
         11    1    5    5    0    0 -0.26018468520E+03 -0.61977944346E+02  0.19317216593E+03  0.32992850996E+03  0.00000000000E+00 0.  1.
        -11    1    5    5    0    0  0.17007201129E+01  0.13797348201E+01  0.26393899574E+02  0.26484600276E+02  0.00000000000E+00 0. -1.
          3    1    6    6  503    0  0.15522270077E+03  0.22187378164E+03  0.23582556589E+03  0.35907625839E+03  0.00000000000E+00 0. -1.
         -3    1    6    6    0  503  0.30249510157E+03  0.44734169523E+03  0.63350266095E+03  0.83243227964E+03  0.00000000000E+00 0.  1.
<mgrwt>
<rscale>  0 0.18237472E+04</rscale>
<asrwt>0</asrwt>
<pdfrwt beam="1">  1        2 0.26704580E+00 0.18237472E+04</pdfrwt>
<pdfrwt beam="2">  1       -1 0.73698191E-01 0.18237472E+04</pdfrwt>
<totfact> 0.18644417E+01</totfact>
</mgrwt>
</event>
<event>
12    6  0.1395358E-007  0.1488347E+04  0.7818608E-02  0.8892239E-01
         -1   -1    0    0    0  501 -0.00000000000E+00  0.00000000000E+00  0.82777373443E+03  0.82777373443E+03  0.00000000000E+00 0.  1.
          2   -1    0    0  501    0  0.00000000000E+00 -0.00000000000E+00 -0.66901639742E+03  0.66901639742E+03  0.00000000000E+00 0. -1.
         24    2    1    2    0    0  0.23733709219E+03  0.84935105605E+02 -0.34579339845E+03  0.43457128152E+03  0.75738080321E+02 0.  0.
        254    2    1    2    0    0 -0.23733709219E+03 -0.84935105605E+02  0.50455073547E+03  0.10622188503E+04  0.90010809010E+03 0.  0.
         23    2    4    4    0    0 -0.12512403790E+03  0.31577755294E+03  0.52923223126E+03  0.63556761047E+03  0.92130044354E+02 0.  0.
         23    2    4    4    0    0 -0.11221305430E+03 -0.40071265854E+03 -0.24681495795E+02  0.42665123987E+03  0.90882891548E+02 0.  0.
          4    1    3    3  502    0  0.15681975758E+03  0.90631784728E+02 -0.25893817610E+03  0.31599926553E+03  0.00000000000E+00 0. -1.
         -3    1    3    3    0  502  0.80517334614E+02 -0.56966791231E+01 -0.86855222350E+02  0.11857201599E+03  0.00000000000E+00 0.  1.
         11    1    5    5    0    0 -0.67683686277E+02  0.68126476094E+02  0.11854774887E+03  0.15256430413E+03  0.00000000000E+00 0.  1.
        -11    1    5    5    0    0 -0.57440351619E+02  0.24765107684E+03  0.41068448239E+03  0.48300330633E+03  0.00000000000E+00 0. -1.
          3    1    6    6  503    0 -0.12297544798E+03 -0.31703269922E+03 -0.53236070309E+01  0.34008974400E+03  0.00000000000E+00 0. -1.
         -3    1    6    6    0  503  0.10762393683E+02 -0.83679959321E+02 -0.19357888764E+02  0.86561495870E+02  0.00000000000E+00 0.  1.
<mgrwt>
<rscale>  0 0.14883470E+04</rscale>
<asrwt>0</asrwt>
<pdfrwt beam="1">  1        2 0.10292560E+00 0.14883470E+04</pdfrwt>
<pdfrwt beam="2">  1       -1 0.12734981E+00 0.14883470E+04</pdfrwt>
<totfact> 0.25602114E+01</totfact>
</mgrwt>
</event>
<event>
12    6  0.1395358E-007  0.2147022E+04  0.7818608E-02  0.8540808E-01
          2   -1    0    0  501    0  0.00000000000E+00  0.00000000000E+00  0.68289523770E+03  0.68289523770E+03  0.00000000000E+00 0. -1.
         -1   -1    0    0    0  501 -0.00000000000E+00 -0.00000000000E+00 -0.16875592158E+04  0.16875592158E+04  0.00000000000E+00 0.  1.
         24    2    1    2    0    0 -0.20847792707E+03  0.78928502979E+03 -0.43799215385E+02  0.82145075180E+03  0.80181432000E+02 0.  0.
        254    2    1    2    0    0  0.20847792707E+03 -0.78928502979E+03 -0.96086476275E+03  0.15490037017E+04  0.89984302595E+03 0.  0.
         23    2    4    4    0    0 -0.26803829635E+03 -0.14513167616E+01 -0.15752655263E+03  0.32370378450E+03  0.90127080769E+02 0.  0.
         23    2    4    4    0    0  0.47651622341E+03 -0.78783371303E+03 -0.80333821012E+03  0.12252999172E+04  0.90873190536E+02 0.  0.
          2    1    3    3  502    0 -0.13294516039E+03  0.56987512734E+03  0.68907593031E+00  0.58517736735E+03  0.00000000000E+00 0. -1.
         -1    1    3    3    0  502 -0.75532766681E+02  0.21940990245E+03 -0.44488291316E+02  0.23627338445E+03  0.00000000000E+00 0.  1.
         11    1    5    5    0    0 -0.21857114326E+03  0.30642444460E+02 -0.10366777499E+03  0.24384280108E+03  0.00000000000E+00 0.  1.
        -11    1    5    5    0    0 -0.49467153091E+02 -0.32093761221E+02 -0.53858777641E+02  0.79860983423E+02  0.00000000000E+00 0. -1.
          3    1    6    6  503    0  0.28923982591E+03 -0.39179829999E+03 -0.41274332593E+03  0.63837499784E+03  0.00000000000E+00 0. -1.
         -3    1    6    6    0  503  0.18727639750E+03 -0.39603541304E+03 -0.39059488419E+03  0.58692491938E+03  0.00000000000E+00 0.  1.
<mgrwt>
<rscale>  0 0.21470223E+04</rscale>
<asrwt>0</asrwt>
<pdfrwt beam="1">  1        2 0.10506081E+00 0.21470223E+04</pdfrwt>
<pdfrwt beam="2">  1       -1 0.25962450E+00 0.21470223E+04</pdfrwt>
<totfact> 0.26728584E+00</totfact>
</mgrwt>
</event>
<event>
12    6  0.1395358E-007  0.2032598E+04  0.7818608E-02  0.8591530E-01
          2   -1    0    0  501    0  0.00000000000E+00  0.00000000000E+00  0.12504383322E+04  0.12504383322E+04  0.00000000000E+00 0. -1.
         -1   -1    0    0    0  501 -0.00000000000E+00 -0.00000000000E+00 -0.82600153515E+03  0.82600153515E+03  0.00000000000E+00 0.  1.
         24    2    1    2    0    0 -0.31417357027E+03 -0.38120878876E+03  0.83326713812E+03  0.97197080105E+03  0.79799384365E+02 0.  0.
        254    2    1    2    0    0  0.31417357027E+03  0.38120878876E+03 -0.40883034108E+03  0.11044690663E+04  0.89926886844E+03 0.  0.
         23    2    4    4    0    0  0.50645802657E+03  0.35955362069E+03  0.16487922144E+02  0.62833914692E+03  0.93593232427E+02 0.  0.
         23    2    4    4    0    0 -0.19228445630E+03  0.21655168074E+02 -0.42531826322E+03  0.47612991937E+03  0.91442969414E+02 0.  0.
          2    1    3    3  502    0 -0.14765886121E+03 -0.14363836132E+03  0.40971868075E+03  0.45858970278E+03  0.00000000000E+00 0. -1.
         -1    1    3    3    0  502 -0.16651470906E+03 -0.23757042744E+03  0.42354845737E+03  0.51338109827E+03  0.00000000000E+00 0.  1.
         11    1    5    5    0    0  0.27132876595E+03  0.24907198772E+03  0.11831176172E+02  0.36850526594E+03  0.00000000000E+00 0. -1.
        -11    1    5    5    0    0  0.23512926062E+03  0.11048163297E+03  0.46567459718E+01  0.25983388098E+03  0.00000000000E+00 0.  1.
          2    1    6    6  503    0 -0.14977744337E+03 -0.86445461038E+01 -0.37382007766E+03  0.40280201238E+03  0.00000000000E+00 0. -1.
         -2    1    6    6    0  503 -0.42507012930E+02  0.30299714177E+02 -0.51498185564E+02  0.73327906992E+02  0.00000000000E+00 0.  1.
<mgrwt>
<rscale>  0 0.20325983E+04</rscale>
<asrwt>0</asrwt>
<pdfrwt beam="1">  1        2 0.19237513E+00 0.20325983E+04</pdfrwt>
<pdfrwt beam="2">  1       -1 0.12707716E+00 0.20325983E+04</pdfrwt>
<totfact> 0.10028929E+01</totfact>
</mgrwt>
</event>
<event>
12    6  0.1395358E-007  0.3293655E+04  0.7818608E-02  0.8164512E-01
          2   -1    0    0  501    0  0.00000000000E+00  0.00000000000E+00  0.16509875095E+04  0.16509875095E+04  0.00000000000E+00 0. -1.
         -1   -1    0    0    0  501 -0.00000000000E+00 -0.00000000000E+00 -0.16426775839E+04  0.16426775839E+04  0.00000000000E+00 0.  1.
         24    2    1    2    0    0  0.14808845065E+04  0.32972303003E+03  0.15195067445E+03  0.15269205713E+04  0.81616331498E+02 0.  0.
        254    2    1    2    0    0 -0.14808845065E+04 -0.32972303003E+03 -0.14364074882E+03  0.17667445221E+04  0.89387770052E+03 0.  0.
         23    2    4    4    0    0 -0.79970678283E+03  0.20192582933E+03 -0.30211345559E+03  0.88300342910E+03  0.90097373377E+02 0.  0.
         23    2    4    4    0    0 -0.68117772365E+03 -0.53164885936E+03  0.15847270678E+03  0.88374109298E+03  0.96078716531E+02 0.  0.
          4    1    3    3  502    0  0.85250409417E+03  0.20736087123E+03  0.12449047727E+03  0.88614876879E+03  0.00000000000E+00 0. -1.
         -3    1    3    3    0  502  0.62838041231E+03  0.12236215880E+03  0.27460197182E+02  0.64077180253E+03  0.00000000000E+00 0.  1.
         11    1    5    5    0    0 -0.45681245501E+02  0.29212707092E+02 -0.53793125215E+01  0.54489406763E+02  0.00000000000E+00 0. -1.
        -11    1    5    5    0    0 -0.75402553733E+03  0.17271312223E+03 -0.29673414307E+03  0.82851402233E+03  0.00000000000E+00 0.  1.
          3    1    6    6  503    0 -0.29118359685E+01  0.20124609742E+01  0.65297412845E+01  0.74274025825E+01  0.00000000000E+00 0. -1.
         -3    1    6    6    0  503 -0.67826588768E+03 -0.53366132033E+03  0.15194296549E+03  0.87631369039E+03  0.00000000000E+00 0.  1.
<mgrwt>
<rscale>  0 0.32936546E+04</rscale>
<asrwt>0</asrwt>
<pdfrwt beam="1">  1        2 0.25399808E+00 0.32936546E+04</pdfrwt>
<pdfrwt beam="2">  1       -1 0.25271963E+00 0.32936546E+04</pdfrwt>
<totfact> 0.66477606E-01</totfact>
</mgrwt>
</event>
<event>
12    6  0.1395358E-007  0.4166973E+04  0.7818608E-02  0.7971684E-01
         -1   -1    0    0    0  501 -0.00000000000E+00  0.00000000000E+00  0.26008311499E+04  0.26008311499E+04  0.00000000000E+00 0.  1.
          2   -1    0    0  501    0  0.00000000000E+00 -0.00000000000E+00 -0.16690498809E+04  0.16690498809E+04  0.00000000000E+00 0. -1.
         24    2    1    2    0    0 -0.13668042649E+04 -0.12078838603E+04 -0.35926450790E+03  0.18607961648E+04  0.79712370141E+02 0.  0.
        254    2    1    2    0    0  0.13668042649E+04  0.12078838603E+04  0.12910457769E+04  0.24090848660E+04  0.89986297564E+03 0.  0.
         23    2    4    4    0    0  0.55966230137E+02  0.55130119861E+03  0.42392585373E+03  0.70324523946E+03  0.88178834568E+02 0.  0.
         23    2    4    4    0    0  0.13108380347E+04  0.65658266168E+03  0.86711992320E+03  0.17058396265E+04  0.92707740955E+02 0.  0.
          4    1    3    3  502    0 -0.84702329941E+03 -0.71588440192E+03 -0.24915349147E+03  0.11366689971E+04  0.00000000000E+00 0. -1.
         -3    1    3    3    0  502 -0.51978096547E+03 -0.49199945836E+03 -0.11011101643E+03  0.72412716772E+03  0.00000000000E+00 0.  1.
         11    1    5    5    0    0 -0.12990428343E+02  0.23895025065E+02  0.35000017643E+02  0.44325215018E+02  0.00000000000E+00 0.  1.
        -11    1    5    5    0    0  0.68956658480E+02  0.52740617354E+03  0.38892583609E+03  0.65892002444E+03  0.00000000000E+00 0. -1.
          3    1    6    6  503    0  0.10700880219E+04  0.49755174772E+03  0.71190469663E+03  0.13782069560E+04  0.00000000000E+00 0. -1.
         -3    1    6    6    0  503  0.24075001280E+03  0.15903091396E+03  0.15521522656E+03  0.32763267055E+03  0.00000000000E+00 0.  1.
<mgrwt>
<rscale>  0 0.41669734E+04</rscale>
<asrwt>0</asrwt>
<pdfrwt beam="1">  1        2 0.25677691E+00 0.41669734E+04</pdfrwt>
<pdfrwt beam="2">  1       -1 0.40012787E+00 0.41669734E+04</pdfrwt>
<totfact> 0.64535575E-02</totfact>
</mgrwt>
</event>
<event>
12    6  0.1395358E-007  0.1459946E+04  0.7818608E-02  0.8911534E-01
          2   -1    0    0  501    0  0.00000000000E+00  0.00000000000E+00  0.84618181499E+03  0.84618181499E+03  0.00000000000E+00 0. -1.
         -1   -1    0    0    0  501 -0.00000000000E+00 -0.00000000000E+00 -0.62972357878E+03  0.62972357878E+03  0.00000000000E+00 0.  1.
         24    2    1    2    0    0 -0.36893533022E+03 -0.53393009409E+02  0.31940665410E+03  0.49724705000E+03  0.79182868777E+02 0.  0.
        254    2    1    2    0    0  0.36893533022E+03  0.53393009409E+02 -0.10294841789E+03  0.97865834377E+03  0.89900483077E+03 0.  0.
         23    2    4    4    0    0  0.21597533929E+03  0.43929614185E+03 -0.20911581586E+03  0.54011049626E+03  0.91452043742E+02 0.  0.
         23    2    4    4    0    0  0.15295999093E+03 -0.38590313244E+03  0.10616739797E+03  0.43854784751E+03  0.93459679599E+02 0.  0.
          4    1    3    3  502    0 -0.36687965163E+03 -0.42735316223E+02  0.30386066421E+03  0.47828682742E+03  0.00000000000E+00 0. -1.
         -3    1    3    3    0  502 -0.20556785981E+01 -0.10657693186E+02  0.15545989890E+02  0.18960222578E+02  0.00000000000E+00 0.  1.
         11    1    5    5    0    0  0.16674934025E+03  0.32306674719E+03 -0.19647495082E+03  0.41325521402E+03  0.00000000000E+00 0.  1.
        -11    1    5    5    0    0  0.49225999039E+02  0.11622939465E+03 -0.12640865039E+02  0.12685528224E+03  0.00000000000E+00 0. -1.
          2    1    6    6  503    0  0.71868844589E+02 -0.12981408974E+03 -0.34515603780E+01  0.14842082734E+03  0.00000000000E+00 0. -1.
         -2    1    6    6    0  503  0.81091146342E+02 -0.25608904269E+03  0.10961895835E+03  0.29012702017E+03  0.00000000000E+00 0.  1.
<mgrwt>
<rscale>  0 0.14599461E+04</rscale>
<asrwt>0</asrwt>
<pdfrwt beam="1">  1        2 0.13018182E+00 0.14599461E+04</pdfrwt>
<pdfrwt beam="2">  1       -1 0.96880551E-01 0.14599461E+04</pdfrwt>
<totfact> 0.36202351E+01</totfact>
</mgrwt>
</event>
<event>
12    6  0.1395358E-007  0.2467009E+04  0.7818608E-02  0.8414834E-01
         -1   -1    0    0    0  501 -0.00000000000E+00  0.00000000000E+00  0.13014869156E+04  0.13014869156E+04  0.00000000000E+00 0.  1.
          2   -1    0    0  501    0  0.00000000000E+00 -0.00000000000E+00 -0.11690727034E+04  0.11690727034E+04  0.00000000000E+00 0. -1.
         24    2    1    2    0    0  0.42221565242E+03 -0.97109862396E+03 -0.71253547932E+02  0.10644252139E+04  0.81396395488E+02 0.  0.
        254    2    1    2    0    0 -0.42221565242E+03  0.97109862396E+03  0.20366776018E+03  0.14061344051E+04  0.90246042247E+03 0.  0.
         23    2    4    4    0    0  0.16550937398E+03  0.69174718279E+03  0.21751353586E+03  0.74949737465E+03  0.92339907730E+02 0.  0.
         23    2    4    4    0    0 -0.58772502640E+03  0.27935144117E+03 -0.13845775676E+02  0.65663703047E+03  0.86732634764E+02 0.  0.
          2    1    3    3  502    0  0.29912998933E+03 -0.59425165437E+03 -0.57014039287E+02  0.66773076903E+03  0.00000000000E+00 0. -1.
         -1    1    3    3    0  502  0.12308566308E+03 -0.37684696959E+03 -0.14239508645E+02  0.39669444482E+03  0.00000000000E+00 0.  1.
         11    1    5    5    0    0  0.10445622343E+03  0.58479223942E+03  0.17721237454E+03  0.61991716510E+03  0.00000000000E+00 0. -1.
        -11    1    5    5    0    0  0.61053150555E+02  0.10695494336E+03  0.40301161321E+02  0.12958020955E+03  0.00000000000E+00 0.  1.
          1    1    6    6  503    0 -0.27553012870E+03  0.88518653268E+02 -0.25750336678E+02  0.29054342815E+03  0.00000000000E+00 0. -1.
         -1    1    6    6    0  503 -0.31219489770E+03  0.19083278790E+03  0.11904561001E+02  0.36609360232E+03  0.00000000000E+00 0.  1.
<mgrwt>
<rscale>  0 0.24670086E+04</rscale>
<asrwt>0</asrwt>
<pdfrwt beam="1">  1        2 0.17985734E+00 0.24670086E+04</pdfrwt>
<pdfrwt beam="2">  1       -1 0.20022876E+00 0.24670086E+04</pdfrwt>
<totfact> 0.30218390E+00</totfact>
</mgrwt>
</event>
<event>
12    6  0.1395358E-007  0.2274801E+04  0.7818608E-02  0.8487924E-01
         -1   -1    0    0    0  501 -0.00000000000E+00  0.00000000000E+00  0.11882233464E+04  0.11882233464E+04  0.00000000000E+00 0.  1.
          2   -1    0    0  501    0  0.00000000000E+00 -0.00000000000E+00 -0.10887511242E+04  0.10887511242E+04  0.00000000000E+00 0. -1.
         24    2    1    2    0    0 -0.89451621000E+03  0.24942879657E+03  0.27662150044E+03  0.97219616572E+03  0.79195679329E+02 0.  0.
        254    2    1    2    0    0  0.89451621000E+03 -0.24942879657E+03 -0.17714927829E+03  0.13047783049E+04  0.89927225220E+03 0.  0.
         23    2    4    4    0    0  0.26197709396E+03 -0.51096091679E+03 -0.19740167066E+03  0.61389567540E+03  0.90484387895E+02 0.  0.
         23    2    4    4    0    0  0.63253911605E+03  0.26153212021E+03  0.20252392376E+02  0.69088262949E+03  0.91672597290E+02 0.  0.
          2    1    3    3  502    0 -0.46435341517E+03  0.89689075980E+02  0.15074801939E+03  0.49638008610E+03  0.00000000000E+00 0. -1.
         -1    1    3    3    0  502 -0.43016279484E+03  0.15973972059E+03  0.12587348105E+03  0.47581607962E+03  0.00000000000E+00 0.  1.
         11    1    5    5    0    0  0.24430576112E+03 -0.49373594693E+03 -0.20545261131E+03  0.58793814786E+03  0.00000000000E+00 0. -1.
        -11    1    5    5    0    0  0.17671332837E+02 -0.17224969853E+02  0.80509406528E+01  0.25957527542E+02  0.00000000000E+00 0.  1.
          3    1    6    6  503    0  0.55497188142E+03  0.24470462173E+03  0.43760735519E+02  0.60810290497E+03  0.00000000000E+00 0. -1.
         -3    1    6    6    0  503  0.77567234631E+02  0.16827498481E+02 -0.23508343143E+02  0.82779724515E+02  0.00000000000E+00 0.  1.
<mgrwt>
<rscale>  0 0.22748007E+04</rscale>
<asrwt>0</asrwt>
<pdfrwt beam="1">  1        2 0.16750017E+00 0.22748007E+04</pdfrwt>
<pdfrwt beam="2">  1       -1 0.18280359E+00 0.22748007E+04</pdfrwt>
<totfact> 0.45565758E+00</totfact>
</mgrwt>
</event>
<event>
12    6  0.1395358E-007  0.1888639E+04  0.7818608E-02  0.8660532E-01
          2   -1    0    0  501    0  0.00000000000E+00  0.00000000000E+00  0.19811155576E+04  0.19811155576E+04  0.00000000000E+00 0. -1.
         -1   -1    0    0    0  501 -0.00000000000E+00 -0.00000000000E+00 -0.45011982963E+03  0.45011982963E+03  0.00000000000E+00 0.  1.
         24    2    1    2    0    0  0.59841953339E+03 -0.37759535577E+03  0.85313293845E+03  0.11112769354E+04  0.80102595151E+02 0.  0.
        254    2    1    2    0    0 -0.59841953339E+03  0.37759535577E+03  0.67786278950E+03  0.13199584518E+04  0.88436879331E+03 0.  0.
         23    2    4    4    0    0 -0.74598566716E+03  0.40207556211E+03  0.74684585047E+03  0.11334944285E+04  0.94188755740E+02 0.  0.
         23    2    4    4    0    0  0.14756613377E+03 -0.24480206345E+02 -0.68983060978E+02  0.18646402339E+03  0.87379202219E+02 0.  0.
          4    1    3    3  502    0  0.47003184969E+03 -0.25938560627E+03  0.66515858787E+03  0.85477878980E+03  0.00000000000E+00 0. -1.
         -3    1    3    3    0  502  0.12838768370E+03 -0.11820974950E+03  0.18797435058E+03  0.25649814556E+03  0.00000000000E+00 0.  1.
         11    1    5    5    0    0 -0.23388928098E+03  0.17648164818E+03  0.26379722450E+03  0.39425745846E+03  0.00000000000E+00 0. -1.
        -11    1    5    5    0    0 -0.51209638618E+03  0.22559391394E+03  0.48304862598E+03  0.73923696999E+03  0.00000000000E+00 0.  1.
          2    1    6    6  503    0  0.35480294680E+02 -0.24663463107E+02  0.15710923876E+02  0.45977938754E+02  0.00000000000E+00 0. -1.
         -2    1    6    6    0  503  0.11208583909E+03  0.18325676137E+00 -0.84693984854E+02  0.14048608464E+03  0.00000000000E+00 0.  1.
<mgrwt>
<rscale>  0 0.18886391E+04</rscale>
<asrwt>0</asrwt>
<pdfrwt beam="1">  1        2 0.30478700E+00 0.18886391E+04</pdfrwt>
<pdfrwt beam="2">  1       -1 0.69249206E-01 0.18886391E+04</pdfrwt>
<totfact> 0.15412448E+01</totfact>
</mgrwt>
</event>
<event>
12    6  0.1395358E-007  0.1194291E+04  0.7818608E-02  0.9117869E-01
         -1   -1    0    0    0  501 -0.00000000000E+00  0.00000000000E+00  0.28156789175E+03  0.28156789175E+03  0.00000000000E+00 0.  1.
          2   -1    0    0  501    0  0.00000000000E+00 -0.00000000000E+00 -0.12664177658E+04  0.12664177658E+04  0.00000000000E+00 0. -1.
         24    2    1    2    0    0 -0.17887840414E+03 -0.76716035694E+01 -0.43740579530E+03  0.47961230895E+03  0.81534042979E+02 0.  0.
        254    2    1    2    0    0  0.17887840414E+03  0.76716035694E+01 -0.54744407879E+03  0.10683733487E+04  0.89981679009E+03 0.  0.
         23    2    4    4    0    0 -0.28955388918E+03  0.21332125900E+03 -0.35674680140E+03  0.51479714598E+03  0.91653733794E+02 0.  0.
         23    2    4    4    0    0  0.46843229332E+03 -0.20564965544E+03 -0.19069727739E+03  0.55357620267E+03  0.91436132633E+02 0.  0.
          2    1    3    3  502    0 -0.76094776240E+02  0.51970652176E+01 -0.28717526897E+03  0.29713138435E+03  0.00000000000E+00 0. -1.
         -1    1    3    3    0  502 -0.10278362790E+03 -0.12868668787E+02 -0.15023052632E+03  0.18248092459E+03  0.00000000000E+00 0.  1.
         11    1    5    5    0    0 -0.84817315929E+02  0.76011010625E+02 -0.17387181418E+03  0.20785345458E+03  0.00000000000E+00 0.  1.
        -11    1    5    5    0    0 -0.20473657325E+03  0.13731024838E+03 -0.18287498723E+03  0.30694369140E+03  0.00000000000E+00 0. -1.
          1    1    6    6  503    0  0.22998762301E+03 -0.11256525811E+03 -0.14273143672E+03  0.29315099710E+03  0.00000000000E+00 0. -1.
         -1    1    6    6    0  503  0.23844467031E+03 -0.93084397321E+02 -0.47965840665E+02  0.26042520557E+03  0.00000000000E+00 0.  1.
<mgrwt>
<rscale>  0 0.11942907E+04</rscale>
<asrwt>0</asrwt>
<pdfrwt beam="1">  1        2 0.19483350E+00 0.11942907E+04</pdfrwt>
<pdfrwt beam="2">  1       -1 0.43318137E-01 0.11942907E+04</pdfrwt>
<totfact> 0.10227693E+02</totfact>
</mgrwt>
</event>
<event>
12    6  0.1395358E-007  0.2315758E+04  0.7818608E-02  0.8471734E-01
          2   -1    0    0  501    0  0.00000000000E+00  0.00000000000E+00  0.14227458274E+04  0.14227458274E+04  0.00000000000E+00 0. -1.
         -1   -1    0    0    0  501 -0.00000000000E+00 -0.00000000000E+00 -0.94232149909E+03  0.94232149909E+03  0.00000000000E+00 0.  1.
         24    2    1    2    0    0  0.28750384952E+03  0.76706118527E+03 -0.34737218170E+03  0.89348298175E+03  0.81259341728E+02 0.  0.
        254    2    1    2    0    0 -0.28750384952E+03 -0.76706118527E+03  0.82779651004E+03  0.14715843448E+04  0.89959551817E+03 0.  0.
         23    2    4    4    0    0 -0.56365970950E+03 -0.30687769693E+03  0.59533213657E+03  0.88008285984E+03  0.90770580982E+02 0.  0.
         23    2    4    4    0    0  0.27615585998E+03 -0.46018348834E+03  0.23246437347E+03  0.59150148493E+03  0.88336967315E+02 0.  0.
          2    1    3    3  502    0  0.20912609073E+03  0.46411785258E+03 -0.19143024079E+03  0.54386086456E+03  0.00000000000E+00 0. -1.
         -1    1    3    3    0  502  0.78377758788E+02  0.30294333269E+03 -0.15594194092E+03  0.34962211719E+03  0.00000000000E+00 0.  1.
         11    1    5    5    0    0 -0.37588931560E+03 -0.24640324078E+03  0.44032006894E+03  0.62919718512E+03  0.00000000000E+00 0. -1.
        -11    1    5    5    0    0 -0.18777039390E+03 -0.60474456149E+02  0.15501206763E+03  0.25088567472E+03  0.00000000000E+00 0.  1.
          1    1    6    6  503    0  0.25413222761E+03 -0.41970805214E+03  0.18239553474E+03  0.52345598596E+03  0.00000000000E+00 0. -1.
         -1    1    6    6    0  503  0.22023632376E+02 -0.40475436200E+02  0.50068838728E+02  0.68045498971E+02  0.00000000000E+00 0.  1.
<mgrwt>
<rscale>  0 0.23157582E+04</rscale>
<asrwt>0</asrwt>
<pdfrwt beam="1">  1        2 0.21888397E+00 0.23157582E+04</pdfrwt>
<pdfrwt beam="2">  1       -1 0.14497254E+00 0.23157582E+04</pdfrwt>
<totfact> 0.55383905E+00</totfact>
</mgrwt>
</event>
<event>
12    6  0.1395358E-007  0.1344137E+04  0.7818608E-02  0.8995278E-01
          2   -1    0    0  501    0  0.00000000000E+00  0.00000000000E+00  0.19190203135E+04  0.19190203135E+04  0.00000000000E+00 0. -1.
         -1   -1    0    0    0  501 -0.00000000000E+00 -0.00000000000E+00 -0.23536815913E+03  0.23536815913E+03  0.00000000000E+00 0.  1.
         24    2    1    2    0    0 -0.38451413531E+02 -0.28576566380E+03  0.10833731311E+03  0.31807930826E+03  0.79353305691E+02 0.  0.
        254    2    1    2    0    0  0.38451413531E+02  0.28576566380E+03  0.15753148412E+04  0.18363091643E+04  0.89848426377E+03 0.  0.
         23    2    4    4    0    0 -0.24939370785E+03  0.50349172038E+03  0.10068941462E+04  0.11565668520E+04  0.90055135426E+02 0.  0.
         23    2    4    4    0    0  0.28784512139E+03 -0.21772605658E+03  0.56842069503E+03  0.67974231237E+03  0.93209844284E+02 0.  0.
          2    1    3    3  502    0  0.13951469896E+02 -0.12867893451E+03  0.73540373719E+02  0.14886604134E+03  0.00000000000E+00 0. -1.
         -1    1    3    3    0  502 -0.52402883427E+02 -0.15708672929E+03  0.34796939392E+02  0.16921326692E+03  0.00000000000E+00 0.  1.
         11    1    5    5    0    0 -0.84751899253E+02  0.22142713113E+03  0.50314179679E+03  0.55620547148E+03  0.00000000000E+00 0.  1.
        -11    1    5    5    0    0 -0.16464180860E+03  0.28206458925E+03  0.50375234942E+03  0.60036138049E+03  0.00000000000E+00 0. -1.
          2    1    6    6  503    0  0.81323758709E+02 -0.14297808619E+02  0.13758312074E+03  0.16045901712E+03  0.00000000000E+00 0. -1.
         -2    1    6    6    0  503  0.20652136268E+03 -0.20342824796E+03  0.43083757429E+03  0.51928329526E+03  0.00000000000E+00 0.  1.
<mgrwt>
<rscale>  0 0.13441373E+04</rscale>
<asrwt>0</asrwt>
<pdfrwt beam="1">  1        2 0.29523388E+00 0.13441373E+04</pdfrwt>
<pdfrwt beam="2">  1       -1 0.36210487E-01 0.13441373E+04</pdfrwt>
<totfact> 0.60242728E+01</totfact>
</mgrwt>
</event>
<event>
12    6  0.1395358E-007  0.4429352E+04  0.7818608E-02  0.7923123E-01
          2   -1    0    0  501    0  0.00000000000E+00  0.00000000000E+00  0.37270395727E+04  0.37270395727E+04  0.00000000000E+00 0. -1.
         -1   -1    0    0    0  501 -0.00000000000E+00 -0.00000000000E+00 -0.13160014489E+04  0.13160014489E+04  0.00000000000E+00 0.  1.
         24    2    1    2    0    0  0.22925544423E+03 -0.20399907651E+04  0.54094392213E+03  0.21242609711E+04  0.75788957418E+02 0.  0.
        254    2    1    2    0    0 -0.22925544423E+03  0.20399907651E+04  0.18700942017E+04  0.29187800505E+04  0.89883495689E+03 0.  0.
         23    2    4    4    0    0 -0.53353022424E+03  0.83453577970E+03  0.80924081958E+03  0.12818119683E+04  0.84063965549E+02 0.  0.
         23    2    4    4    0    0  0.30427478001E+03  0.12054549854E+04  0.10608533822E+04  0.16369680822E+04  0.92464805271E+02 0.  0.
          4    1    3    3  502    0  0.84149580464E+02 -0.95530124966E+03  0.28364434760E+03  0.10000678704E+04  0.00000000000E+00 0. -1.
         -3    1    3    3    0  502  0.14510586377E+03 -0.10846895154E+04  0.25729957454E+03  0.11241931007E+04  0.00000000000E+00 0.  1.
         11    1    5    5    0    0 -0.13824264075E+03  0.15366639977E+03  0.16201089413E+03  0.26262505584E+03  0.00000000000E+00 0. -1.
        -11    1    5    5    0    0 -0.39528758349E+03  0.68086937993E+03  0.64722992545E+03  0.10191869125E+04  0.00000000000E+00 0.  1.
          1    1    6    6  503    0  0.28576768023E+03  0.11730629562E+04  0.10113542296E+04  0.15749848393E+04  0.00000000000E+00 0. -1.
         -1    1    6    6    0  503  0.18507099780E+02  0.32392029108E+02  0.49499152562E+02  0.61983242867E+02  0.00000000000E+00 0.  1.
<mgrwt>
<rscale>  0 0.44293519E+04</rscale>
<asrwt>0</asrwt>
<pdfrwt beam="1">  1        2 0.57339070E+00 0.44293519E+04</pdfrwt>
<pdfrwt beam="2">  1       -1 0.20246176E+00 0.44293519E+04</pdfrwt>
<totfact> 0.69562002E-02</totfact>
</mgrwt>
</event>
<event>
12    6  0.1395358E-007  0.1205165E+04  0.7818608E-02  0.9108347E-01
          2   -1    0    0  501    0  0.00000000000E+00  0.00000000000E+00  0.24255523777E+04  0.24255523777E+04  0.00000000000E+00 0. -1.
         -1   -1    0    0    0  501 -0.00000000000E+00 -0.00000000000E+00 -0.14970030672E+03  0.14970030672E+03  0.00000000000E+00 0.  1.
         24    2    1    2    0    0 -0.23496126539E+02 -0.13929800686E+03  0.48170834993E+02  0.16919724680E+03  0.79694895103E+02 0.  0.
        254    2    1    2    0    0  0.23496126539E+02  0.13929800686E+03  0.22276812359E+04  0.24060554376E+04  0.89809970329E+03 0.  0.
         23    2    4    4    0    0 -0.33095065336E+03 -0.16089148016E+03  0.14226168402E+04  0.14721862559E+04  0.89884896387E+02 0.  0.
         23    2    4    4    0    0  0.35444677990E+03  0.30018948702E+03  0.80506439575E+03  0.93386918172E+03  0.90756373622E+02 0.  0.
          4    1    3    3  502    0  0.14981222415E+02 -0.24977058381E+02  0.38377238896E+02  0.48177826182E+02  0.00000000000E+00 0. -1.
         -3    1    3    3    0  502 -0.38477348954E+02 -0.11432094848E+03  0.97935960970E+01  0.12101942062E+03  0.00000000000E+00 0.  1.
         11    1    5    5    0    0 -0.15639008808E+03 -0.26941497516E+02  0.58121844373E+03  0.60249363754E+03  0.00000000000E+00 0.  1.
        -11    1    5    5    0    0 -0.17456056529E+03 -0.13394998264E+03  0.84139839646E+03  0.86969261833E+03  0.00000000000E+00 0. -1.
          1    1    6    6  503    0  0.17873038727E+03  0.16739348563E+03  0.50922097375E+03  0.56504082195E+03  0.00000000000E+00 0. -1.
         -1    1    6    6    0  503  0.17571639264E+03  0.13279600139E+03  0.29584342200E+03  0.36882835977E+03  0.00000000000E+00 0.  1.
<mgrwt>
<rscale>  0 0.12051654E+04</rscale>
<asrwt>0</asrwt>
<pdfrwt beam="1">  1        2 0.37316188E+00 0.12051654E+04</pdfrwt>
<pdfrwt beam="2">  1       -1 0.23030818E-01 0.12051654E+04</pdfrwt>
<totfact> 0.69971487E+01</totfact>
</mgrwt>
</event>
<event>
12    6  0.1395358E-007  0.2609891E+04  0.7818608E-02  0.8364849E-01
          2   -1    0    0  501    0  0.00000000000E+00  0.00000000000E+00  0.11338437208E+04  0.11338437208E+04  0.00000000000E+00 0. -1.
         -1   -1    0    0    0  501 -0.00000000000E+00 -0.00000000000E+00 -0.15018673199E+04  0.15018673199E+04  0.00000000000E+00 0.  1.
         24    2    1    2    0    0 -0.34190877429E+03 -0.10554852580E+04 -0.46144132404E+03  0.12042235719E+04  0.79218531681E+02 0.  0.
        254    2    1    2    0    0  0.34190877429E+03  0.10554852580E+04  0.93417724909E+02  0.14314874689E+04  0.89971037694E+03 0.  0.
         23    2    4    4    0    0  0.18373186726E+03  0.15015497962E+03  0.38647702633E+03  0.46246173585E+03  0.90567368823E+02 0.  0.
         23    2    4    4    0    0  0.15817690703E+03  0.90533027839E+03 -0.29305930142E+03  0.96902573301E+03  0.92110098242E+02 0.  0.
          4    1    3    3  502    0 -0.16962999149E+03 -0.57994065333E+03 -0.28946433229E+03  0.66999633959E+03  0.00000000000E+00 0. -1.
         -3    1    3    3    0  502 -0.17227878280E+03 -0.47554460468E+03 -0.17197699175E+03  0.53422723230E+03  0.00000000000E+00 0.  1.
         11    1    5    5    0    0  0.18690226137E+03  0.13469315198E+03  0.32103486085E+03  0.39514311632E+03  0.00000000000E+00 0.  1.
        -11    1    5    5    0    0 -0.31703941093E+01  0.15461827640E+02  0.65442165484E+02  0.67318619534E+02  0.00000000000E+00 0. -1.
          3    1    6    6  503    0  0.76981428964E+02  0.53466699711E+03 -0.21636190816E+03  0.58189983116E+03  0.00000000000E+00 0.  1.
         -3    1    6    6    0  503  0.81195478064E+02  0.37066328128E+03 -0.76697393257E+02  0.38712590185E+03  0.00000000000E+00 0. -1.
<mgrwt>
<rscale>  0 0.26098911E+04</rscale>
<asrwt>0</asrwt>
<pdfrwt beam="1">  1        2 0.17443750E+00 0.26098911E+04</pdfrwt>
<pdfrwt beam="2">  1       -1 0.23105651E+00 0.26098911E+04</pdfrwt>
<totfact> 0.19430070E+00</totfact>
</mgrwt>
</event>
<event>
12    6  0.1395358E-007  0.1605536E+04  0.7818608E-02  0.8817154E-01
         -1   -1    0    0    0  501 -0.00000000000E+00  0.00000000000E+00  0.32645313223E+03  0.32645313223E+03  0.00000000000E+00 0.  1.
          2   -1    0    0  501    0  0.00000000000E+00 -0.00000000000E+00 -0.19740556911E+04  0.19740556911E+04  0.00000000000E+00 0. -1.
         24    2    1    2    0    0  0.53550917289E+03 -0.36032858748E+02 -0.71136246356E+03  0.89451521975E+03  0.77797703372E+02 0.  0.
        254    2    1    2    0    0 -0.53550917289E+03  0.36032858748E+02 -0.93624009528E+03  0.14059936035E+04  0.90122364374E+03 0.  0.
         23    2    4    4    0    0 -0.20851118602E+03  0.33431527715E+03 -0.85660252577E+03  0.94726148785E+03  0.91064921739E+02 0.  0.
         23    2    4    4    0    0 -0.32699798686E+03 -0.29828241841E+03 -0.79637569510E+02  0.45873211569E+03  0.90514788558E+02 0.  0.
          2    1    3    3  502    0  0.29170237039E+03 -0.57750578425E+02 -0.40203275977E+03  0.50005573902E+03  0.00000000000E+00 0. -1.
         -1    1    3    3    0  502  0.24380680249E+03  0.21717719677E+02 -0.30932970379E+03  0.39445948073E+03  0.00000000000E+00 0.  1.
         11    1    5    5    0    0 -0.17734491347E+03  0.32432499984E+03 -0.80951506243E+03  0.88991716477E+03  0.00000000000E+00 0. -1.
        -11    1    5    5    0    0 -0.31166272548E+02  0.99902773178E+01 -0.47087463341E+02  0.57344323078E+02  0.00000000000E+00 0.  1.
          2    1    6    6  503    0 -0.18767108170E+03 -0.13053760631E+03 -0.75097688316E+02  0.24062452983E+03  0.00000000000E+00 0. -1.
         -2    1    6    6    0  503 -0.13932690517E+03 -0.16774481210E+03 -0.45398811938E+01  0.21810758586E+03  0.00000000000E+00 0.  1.
<mgrwt>
<rscale>  0 0.16055363E+04</rscale>
<asrwt>0</asrwt>
<pdfrwt beam="1">  1        2 0.30370088E+00 0.16055363E+04</pdfrwt>
<pdfrwt beam="2">  1       -1 0.50223559E-01 0.16055363E+04</pdfrwt>
<totfact> 0.30017786E+01</totfact>
</mgrwt>
</event>
<event>
12    6  0.1395358E-007  0.1594807E+04  0.7818608E-02  0.8823745E-01
         -1   -1    0    0    0  501 -0.00000000000E+00  0.00000000000E+00  0.16117206590E+04  0.16117206590E+04  0.00000000000E+00 0.  1.
          2   -1    0    0  501    0  0.00000000000E+00 -0.00000000000E+00 -0.39451776732E+03  0.39451776732E+03  0.00000000000E+00 0. -1.
         24    2    1    2    0    0 -0.99471459462E+02 -0.48113948537E+03  0.13621862094E+03  0.51611309163E+03  0.80171285551E+02 0.  0.
        254    2    1    2    0    0  0.99471459462E+02  0.48113948537E+03  0.10809842707E+04  0.14901253347E+04  0.90030924902E+03 0.  0.
         23    2    4    4    0    0  0.41234801427E+03  0.44853580470E+03  0.39841248086E+03  0.73281221123E+03  0.84059378153E+02 0.  0.
         23    2    4    4    0    0 -0.31287655481E+03  0.32603680670E+02  0.68257178983E+03  0.75731312342E+03  0.93081577616E+02 0.  0.
          4    1    3    3  502    0 -0.32612471544E+02 -0.62672529201E+02 -0.10605737216E+01  0.70657936803E+02  0.00000000000E+00 0. -1.
         -3    1    3    3    0  502 -0.66858987917E+02 -0.41846695617E+03  0.13727919466E+03  0.44545515482E+03  0.00000000000E+00 0.  1.
         11    1    5    5    0    0  0.31057127807E+03  0.38349671707E+03  0.33444727512E+03  0.59613692269E+03  0.00000000000E+00 0.  1.
        -11    1    5    5    0    0  0.10177673620E+03  0.65039087630E+02  0.63965205741E+02  0.13667528854E+03  0.00000000000E+00 0. -1.
          1    1    6    6  503    0 -0.13789805817E+03  0.57188850711E+02  0.27063165087E+03  0.30907592844E+03  0.00000000000E+00 0. -1.
         -1    1    6    6    0  503 -0.17497849664E+03 -0.24585170041E+02  0.41194013896E+03  0.44823719498E+03  0.00000000000E+00 0.  1.
<mgrwt>
<rscale>  0 0.15948071E+04</rscale>
<asrwt>0</asrwt>
<pdfrwt beam="1">  1        2 0.60695042E-01 0.15948071E+04</pdfrwt>
<pdfrwt beam="2">  1       -1 0.24795702E+00 0.15948071E+04</pdfrwt>
<totfact> 0.63747057E+00</totfact>
</mgrwt>
</event>
<event>
12    6  0.1395358E-007  0.1847826E+04  0.7818608E-02  0.8681271E-01
          2   -1    0    0  501    0  0.00000000000E+00  0.00000000000E+00  0.21360513890E+04  0.21360513890E+04  0.00000000000E+00 0. -1.
         -3   -1    0    0    0  501 -0.00000000000E+00 -0.00000000000E+00 -0.39962314092E+03  0.39962314092E+03  0.00000000000E+00 0.  1.
         24    2    1    2    0    0  0.13432001352E+03  0.62084684670E+03  0.10706858801E+04  0.12474302142E+04  0.78874661885E+02 0.  0.
        254    2    1    2    0    0 -0.13432001352E+03 -0.62084684670E+03  0.66574236800E+03  0.12882443158E+04  0.90159183861E+03 0.  0.
         23    2    4    4    0    0  0.31432485982E+03 -0.52484332882E+03  0.48558850510E+03  0.78730342347E+03  0.98943655729E+02 0.  0.
         23    2    4    4    0    0 -0.44864487334E+03 -0.96003517881E+02  0.18015386289E+03  0.50094089229E+03  0.89372621268E+02 0.  0.
          2    1    3    3  502    0  0.11497878626E+03  0.40654798055E+03  0.75939805946E+03  0.86901484135E+03  0.00000000000E+00 0. -1.
         -1    1    3    3    0  502  0.19341227262E+02  0.21429886615E+03  0.31128782064E+03  0.37841537281E+03  0.00000000000E+00 0.  1.
         11    1    5    5    0    0  0.26074698331E+03 -0.45307515964E+03  0.36708384379E+03  0.63876180065E+03  0.00000000000E+00 0.  1.
        -11    1    5    5    0    0  0.53577876510E+02 -0.71768169175E+02  0.11850466131E+03  0.14854162282E+03  0.00000000000E+00 0. -1.
          3    1    6    6  503    0 -0.34012668696E+03 -0.87615222502E+02  0.98214562620E+02  0.36470356553E+03  0.00000000000E+00 0. -1.
         -3    1    6    6    0  503 -0.10851818638E+03 -0.83882953789E+01  0.81939300272E+02  0.13623732677E+03  0.00000000000E+00 0.  1.
<mgrwt>
<rscale>  0 0.18478264E+04</rscale>
<asrwt>0</asrwt>
<pdfrwt beam="1">  1        2 0.32862328E+00 0.18478264E+04</pdfrwt>
<pdfrwt beam="2">  1       -3 0.61480484E-01 0.18478264E+04</pdfrwt>
<totfact> 0.87277531E+00</totfact>
</mgrwt>
</event>
<event>
12    6  0.1395358E-007  0.2849387E+04  0.7818608E-02  0.8288097E-01
          2   -1    0    0  501    0  0.00000000000E+00  0.00000000000E+00  0.13188810070E+04  0.13188810070E+04  0.00000000000E+00 0. -1.
         -1   -1    0    0    0  501 -0.00000000000E+00 -0.00000000000E+00 -0.15389957363E+04  0.15389957363E+04  0.00000000000E+00 0.  1.
         24    2    1    2    0    0 -0.93871534274E+03 -0.77553309551E+03 -0.49915670690E+03  0.13182639116E+04  0.77616014174E+02 0.  0.
        254    2    1    2    0    0  0.93871534274E+03  0.77553309551E+03  0.27904197761E+03  0.15396128318E+04  0.89994731485E+03 0.  0.
         23    2    4    4    0    0  0.10335124777E+04  0.84424526816E+03  0.33837938467E+03  0.13796724203E+04  0.89984805220E+02 0.  0.
         23    2    4    4    0    0 -0.94797134913E+02 -0.68712172651E+02 -0.59337407060E+02  0.15994041142E+03  0.91390086286E+02 0.  0.
          4    1    3    3  502    0 -0.68650800759E+03 -0.54987536966E+03 -0.39478978836E+03  0.96411365701E+03  0.00000000000E+00 0. -1.
         -3    1    3    3    0  502 -0.25220733515E+03 -0.22565772585E+03 -0.10436691854E+03  0.35415025459E+03  0.00000000000E+00 0.  1.
         11    1    5    5    0    0  0.73909149669E+02  0.32898100827E+02  0.20970925830E+02  0.83574081945E+02  0.00000000000E+00 0. -1.
        -11    1    5    5    0    0  0.95960332799E+03  0.81134716733E+03  0.31740845884E+03  0.12960983384E+04  0.00000000000E+00 0.  1.
          4    1    6    6  503    0  0.16635148922E+02 -0.16020958499E+02  0.10136594231E+00  0.23095661193E+02  0.00000000000E+00 0. -1.
         -4    1    6    6    0  503 -0.11143228384E+03 -0.52691214152E+02 -0.59438773002E+02  0.13684475023E+03  0.00000000000E+00 0.  1.
<mgrwt>
<rscale>  0 0.28493875E+04</rscale>
<asrwt>0</asrwt>
<pdfrwt beam="1">  1        2 0.20290477E+00 0.28493875E+04</pdfrwt>
<pdfrwt beam="2">  1       -1 0.23676858E+00 0.28493875E+04</pdfrwt>
<totfact> 0.13548042E+00</totfact>
</mgrwt>
</event>
<event>
12    6  0.1395358E-007  0.2037697E+04  0.7818608E-02  0.8589196E-01
          2   -1    0    0  501    0  0.00000000000E+00  0.00000000000E+00  0.49336072845E+03  0.49336072845E+03  0.00000000000E+00 0. -1.
         -1   -1    0    0    0  501 -0.00000000000E+00 -0.00000000000E+00 -0.21040440757E+04  0.21040440757E+04  0.00000000000E+00 0.  1.
         24    2    1    2    0    0  0.75028088462E+03  0.11193244524E+03 -0.26055798701E+03  0.80603932293E+03  0.79741127388E+02 0.  0.
        254    2    1    2    0    0 -0.75028088462E+03 -0.11193244524E+03 -0.13501253603E+04  0.17913654812E+04  0.90038964946E+03 0.  0.
         23    2    4    4    0    0 -0.63423992121E+03 -0.37295799574E+03 -0.12876278418E+04  0.14851558742E+04  0.79652794185E+02 0.  0.
         23    2    4    4    0    0 -0.11604096341E+03  0.26102555051E+03 -0.62497518489E+02  0.30620960701E+03  0.90876511826E+02 0.  0.
          2    1    3    3  502    0  0.61363154969E+03  0.12012894496E+03 -0.20146209926E+03  0.65693349711E+03  0.00000000000E+00 0. -1.
         -3    1    3    3    0  502  0.13664933493E+03 -0.81964997200E+01 -0.59095887750E+02  0.14910582582E+03  0.00000000000E+00 0.  1.
         11    1    5    5    0    0 -0.20900343464E+03 -0.15105175218E+03 -0.51019346991E+03  0.57166112713E+03  0.00000000000E+00 0.  1.
        -11    1    5    5    0    0 -0.42523648657E+03 -0.22190624356E+03 -0.77743437186E+03  0.91349474711E+03  0.00000000000E+00 0. -1.
          1    1    6    6  503    0 -0.53446577091E+01  0.12101331909E+03 -0.20566718997E+02  0.12286487982E+03  0.00000000000E+00 0. -1.
         -1    1    6    6    0  503 -0.11069630570E+03  0.14001223142E+03 -0.41930799493E+02  0.18334472719E+03  0.00000000000E+00 0.  1.
<mgrwt>
<rscale>  0 0.20376974E+04</rscale>
<asrwt>0</asrwt>
<pdfrwt beam="1">  1        2 0.75901651E-01 0.20376974E+04</pdfrwt>
<pdfrwt beam="2">  1       -1 0.32369909E+00 0.20376974E+04</pdfrwt>
<totfact> 0.15335624E+00</totfact>
</mgrwt>
</event>
<event>
12    6  0.1395358E-007  0.1821410E+04  0.7818608E-02  0.8694996E-01
         -1   -1    0    0    0  501 -0.00000000000E+00  0.00000000000E+00  0.10034542522E+04  0.10034542522E+04  0.00000000000E+00 0.  1.
          2   -1    0    0  501    0  0.00000000000E+00 -0.00000000000E+00 -0.82652856150E+03  0.82652856150E+03  0.00000000000E+00 0. -1.
         24    2    1    2    0    0  0.67747251503E+03 -0.35920390079E+02  0.73685910497E+02  0.68708678848E+03  0.79995990192E+02 0.  0.
        254    2    1    2    0    0 -0.67747251503E+03  0.35920390079E+02  0.10323978021E+03  0.11428960252E+04  0.91394397488E+03 0.  0.
         23    2    4    4    0    0 -0.80374863349E+03 -0.11581212563E+02  0.32108965805E+03  0.87051639905E+03  0.92489146269E+02 0.  0.
         23    2    4    4    0    0  0.12627611846E+03  0.47501602642E+02 -0.21784987784E+03  0.27237962618E+03  0.92358167678E+02 0.  0.
          4    1    3    3  502    0  0.30930330408E+03 -0.44492939304E+02  0.53596522783E+01  0.31253300855E+03  0.00000000000E+00 0. -1.
         -3    1    3    3    0  502  0.36816921096E+03  0.85725492250E+01  0.68326258218E+02  0.37455377993E+03  0.00000000000E+00 0.  1.
         11    1    5    5    0    0 -0.66047495919E+02  0.23647061691E+02  0.36092772168E+02  0.78893240816E+02  0.00000000000E+00 0. -1.
        -11    1    5    5    0    0 -0.73770113758E+03 -0.35228274254E+02  0.28499688588E+03  0.79162315823E+03  0.00000000000E+00 0.  1.
          3    1    6    6  503    0  0.29802084201E+02  0.29678817319E+02 -0.11047105679E+02  0.43486031827E+02  0.00000000000E+00 0. -1.
         -3    1    6    6    0  503  0.96474034259E+02  0.17822785323E+02 -0.20680277216E+03  0.22889359435E+03  0.00000000000E+00 0.  1.
<mgrwt>
<rscale>  0 0.18214100E+04</rscale>
<asrwt>0</asrwt>
<pdfrwt beam="1">  1        2 0.12715824E+00 0.18214100E+04</pdfrwt>
<pdfrwt beam="2">  1       -1 0.15437758E+00 0.18214100E+04</pdfrwt>
<totfact> 0.11444144E+01</totfact>
</mgrwt>
</event>
<event>
12    6  0.1395358E-007  0.3390843E+04  0.7818608E-02  0.8140157E-01
          2   -1    0    0  501    0  0.00000000000E+00  0.00000000000E+00  0.24431462028E+04  0.24431462028E+04  0.00000000000E+00 0. -1.
         -1   -1    0    0    0  501 -0.00000000000E+00 -0.00000000000E+00 -0.11765379880E+04  0.11765379880E+04  0.00000000000E+00 0.  1.
         24    2    1    2    0    0 -0.11274234557E+04  0.10342663463E+04  0.19035850347E+03  0.15439496508E+04  0.82180538670E+02 0.  0.
        254    2    1    2    0    0  0.11274234557E+04 -0.10342663463E+04  0.10762497114E+04  0.20757345400E+04  0.89976103250E+03 0.  0.
         23    2    4    4    0    0  0.58451312510E+03 -0.72227399321E+03  0.11006268222E+04  0.14431216267E+04  0.88799284542E+02 0.  0.
         23    2    4    4    0    0  0.54291033062E+03 -0.31199235305E+03 -0.24377110782E+02  0.63261291331E+03  0.86683326550E+02 0.  0.
          2    1    3    3  502    0 -0.51692509652E+03  0.41930697685E+03  0.87457542396E+02  0.67132608915E+03  0.00000000000E+00 0. -1.
         -1    1    3    3    0  502 -0.61049835919E+03  0.61495936942E+03  0.10290096107E+03  0.87262356168E+03  0.00000000000E+00 0.  1.
         11    1    5    5    0    0  0.14174176124E+03 -0.13178319017E+03  0.19354447235E+03  0.27370969816E+03  0.00000000000E+00 0. -1.
        -11    1    5    5    0    0  0.44277136386E+03 -0.59049080305E+03  0.90708234983E+03  0.11694119285E+04  0.00000000000E+00 0.  1.
          3    1    6    6  503    0  0.81546790665E+02 -0.84403707183E+02 -0.12567905467E+02  0.11803311867E+03  0.00000000000E+00 0. -1.
         -3    1    6    6    0  503  0.46136353995E+03 -0.22758864587E+03 -0.11809205315E+02  0.51457979464E+03  0.00000000000E+00 0.  1.
<mgrwt>
<rscale>  0 0.33908432E+04</rscale>
<asrwt>0</asrwt>
<pdfrwt beam="1">  1        2 0.37586864E+00 0.33908432E+04</pdfrwt>
<pdfrwt beam="2">  1       -1 0.18100585E+00 0.33908432E+04</pdfrwt>
<totfact> 0.72404731E-01</totfact>
</mgrwt>
</event>
<event>
12    6  0.1395358E-007  0.1448160E+04  0.7818608E-02  0.8919677E-01
          2   -1    0    0  501    0  0.00000000000E+00  0.00000000000E+00  0.16371407459E+04  0.16371407459E+04  0.00000000000E+00 0. -1.
         -1   -1    0    0    0  501 -0.00000000000E+00 -0.00000000000E+00 -0.32024851621E+03  0.32024851621E+03  0.00000000000E+00 0.  1.
         24    2    1    2    0    0  0.11112568871E+03 -0.32425162498E+03  0.33575548215E+02  0.35329039112E+03  0.78732128328E+02 0.  0.
        254    2    1    2    0    0 -0.11112568871E+03  0.32425162498E+03  0.12833166814E+04  0.16040988709E+04  0.89930164459E+03 0.  0.
         23    2    4    4    0    0  0.23821705528E+03  0.33248012960E+03  0.11411697552E+04  0.12157279960E+04  0.91846328729E+02 0.  0.
         23    2    4    4    0    0 -0.34934274398E+03 -0.82285046219E+01  0.14214692621E+03  0.38837087492E+03  0.92293698570E+02 0.  0.
          2    1    3    3  502    0  0.46564711374E+01 -0.57839657572E+02  0.32253760926E+02  0.66388355947E+02  0.00000000000E+00 0. -1.
         -1    1    3    3    0  502  0.10646921757E+03 -0.26641196741E+03  0.13217872896E+01  0.28690203518E+03  0.00000000000E+00 0.  1.
         11    1    5    5    0    0  0.21070470951E+03  0.22855301746E+03  0.81336126405E+03  0.87074077787E+03  0.00000000000E+00 0. -1.
        -11    1    5    5    0    0  0.27512345772E+02  0.10392711214E+03  0.32780849117E+03  0.34498721815E+03  0.00000000000E+00 0.  1.
          3    1    6    6  503    0 -0.10708194829E+03 -0.27276103439E+02  0.83183423348E+02  0.13831128438E+03  0.00000000000E+00 0. -1.
         -3    1    6    6    0  503 -0.24226079569E+03  0.19047598817E+02  0.58963502866E+02  0.25005959054E+03  0.00000000000E+00 0.  1.
<mgrwt>
<rscale>  0 0.14481601E+04</rscale>
<asrwt>0</asrwt>
<pdfrwt beam="1">  1        2 0.25186780E+00 0.14481601E+04</pdfrwt>
<pdfrwt beam="2">  1       -1 0.49269004E-01 0.14481601E+04</pdfrwt>
<totfact> 0.48491569E+01</totfact>
</mgrwt>
</event>
<event>
12    6  0.1395358E-007  0.3075260E+04  0.7818608E-02  0.8222560E-01
         -1   -1    0    0    0  501 -0.00000000000E+00  0.00000000000E+00  0.90077881943E+03  0.90077881943E+03  0.00000000000E+00 0.  1.
          2   -1    0    0  501    0  0.00000000000E+00 -0.00000000000E+00 -0.26247358548E+04  0.26247358548E+04  0.00000000000E+00 0. -1.
         24    2    1    2    0    0 -0.11658232779E+04 -0.45426338907E+03 -0.15197592929E+04  0.19704008050E+04  0.85509542746E+02 0.  0.
        254    2    1    2    0    0  0.11658232779E+04  0.45426338907E+03 -0.20419774249E+03  0.15551138693E+04  0.90065714135E+03 0.  0.
         23    2    4    4    0    0  0.10144361420E+04  0.41671871715E+03  0.19438741157E+03  0.11174769782E+04  0.90736738210E+02 0.  0.
         23    2    4    4    0    0  0.15138713594E+03  0.37544671923E+02 -0.39858515406E+03  0.43763689103E+03  0.91259279163E+02 0.  0.
          4    1    3    3  502    0 -0.11902002304E+03 -0.40417532768E+02 -0.11576448755E+03  0.17088229697E+03  0.00000000000E+00 0. -1.
         -3    1    3    3    0  502 -0.10468032549E+04 -0.41384585630E+03 -0.14039948054E+04  0.17995185080E+04  0.00000000000E+00 0.  1.
         11    1    5    5    0    0  0.63656527820E+03  0.28304504811E+03  0.16273785824E+03  0.71541139436E+03  0.00000000000E+00 0. -1.
        -11    1    5    5    0    0  0.37787086381E+03  0.13367366903E+03  0.31649553329E+02  0.40206558387E+03  0.00000000000E+00 0.  1.
          3    1    6    6  503    0  0.12139033190E+03  0.25964692119E+02 -0.19247466175E+03  0.22903334546E+03  0.00000000000E+00 0. -1.
         -3    1    6    6    0  503  0.29996804042E+02  0.11579979804E+02 -0.20611049231E+03  0.20860354557E+03  0.00000000000E+00 0.  1.
<mgrwt>
<rscale>  0 0.30752603E+04</rscale>
<asrwt>0</asrwt>
<pdfrwt beam="1">  1        2 0.40380551E+00 0.30752603E+04</pdfrwt>
<pdfrwt beam="2">  1       -1 0.13858136E+00 0.30752603E+04</pdfrwt>
<totfact> 0.12243461E+00</totfact>
</mgrwt>
</event>
<event>
12    6  0.1395358E-007  0.3642548E+04  0.7818608E-02  0.8080814E-01
         -1   -1    0    0    0  501 -0.00000000000E+00  0.00000000000E+00  0.13934786265E+04  0.13934786265E+04  0.00000000000E+00 0.  1.
          2   -1    0    0  501    0  0.00000000000E+00 -0.00000000000E+00 -0.23804019533E+04  0.23804019533E+04  0.00000000000E+00 0. -1.
         24    2    1    2    0    0 -0.59580145718E+02  0.14751080711E+04  0.42792824128E+03  0.15391860994E+04  0.80483873003E+02 0.  0.
        254    2    1    2    0    0  0.59580145718E+02 -0.14751080711E+04 -0.14148515681E+04  0.22346944803E+04  0.90142156930E+03 0.  0.
         23    2    4    4    0    0 -0.26879358317E+03 -0.13262583140E+04 -0.10685026301E+04  0.17265061869E+04  0.88964244575E+02 0.  0.
         23    2    4    4    0    0  0.32837372889E+03 -0.14884975709E+03 -0.34634893795E+03  0.50818829349E+03  0.91171260885E+02 0.  0.
          4    1    3    3  502    0  0.86627596033E+01  0.53906895805E+03  0.13121011639E+03  0.55487519280E+03  0.00000000000E+00 0. -1.
         -3    1    3    3    0  502 -0.68242905322E+02  0.93603911306E+03  0.29671812489E+03  0.98431090665E+03  0.00000000000E+00 0.  1.
         11    1    5    5    0    0 -0.24798660403E+03 -0.12429783274E+04 -0.97143654008E+03  0.15969287490E+04  0.00000000000E+00 0.  1.
        -11    1    5    5    0    0 -0.20806979137E+02 -0.83279986666E+02 -0.97066090026E+02  0.12957743782E+03  0.00000000000E+00 0. -1.
          4    1    6    6  503    0  0.67117644908E+02  0.24947641316E+01 -0.40566954317E+02  0.78464513563E+02  0.00000000000E+00 0. -1.
         -4    1    6    6    0  503  0.26125608398E+03 -0.15134452122E+03 -0.30578198364E+03  0.42972377993E+03  0.00000000000E+00 0.  1.
<mgrwt>
<rscale>  0 0.36425481E+04</rscale>
<asrwt>0</asrwt>
<pdfrwt beam="1">  1        2 0.36621569E+00 0.36425481E+04</pdfrwt>
<pdfrwt beam="2">  1       -1 0.21438133E+00 0.36425481E+04</pdfrwt>
<totfact> 0.45219194E-01</totfact>
</mgrwt>
</event>
<event>
12    6  0.1395358E-007  0.1824650E+04  0.7818608E-02  0.8693300E-01
         -1   -1    0    0    0  501 -0.00000000000E+00  0.00000000000E+00  0.24948828044E+03  0.24948828044E+03  0.00000000000E+00 0.  1.
          2   -1    0    0  501    0  0.00000000000E+00 -0.00000000000E+00 -0.33361764898E+04  0.33361764898E+04  0.00000000000E+00 0. -1.
         24    2    1    2    0    0 -0.12361756826E+03 -0.58759118301E+03 -0.51375224410E+03  0.79452512886E+03  0.82365712074E+02 0.  0.
        254    2    1    2    0    0  0.12361756826E+03  0.58759118301E+03 -0.25729359653E+04  0.27911396414E+04  0.89995350702E+03 0.  0.
         23    2    4    4    0    0  0.60731003146E+02  0.36912845948E+02  0.35112651614E+02  0.12348113822E+03  0.94677770642E+02 0.  0.
         23    2    4    4    0    0  0.62886565118E+02  0.55067833706E+03 -0.26080486169E+04  0.26676585032E+04  0.85340204502E+02 0.  0.
          4    1    3    3  502    0 -0.10879023681E+03 -0.34622240438E+03 -0.33395973630E+03  0.49318797065E+03  0.00000000000E+00 0. -1.
         -3    1    3    3    0  502 -0.14827331456E+02 -0.24136877863E+03 -0.17979250780E+03  0.30133715821E+03  0.00000000000E+00 0.  1.
         11    1    5    5    0    0  0.24478261696E+02  0.34649892500E+02  0.64197109373E+02  0.76948484051E+02  0.00000000000E+00 0. -1.
        -11    1    5    5    0    0  0.36252741449E+02  0.22629534475E+01 -0.29084457759E+02  0.46532654169E+02  0.00000000000E+00 0.  1.
          4    1    6    6  503    0  0.80631404524E+02  0.50549026266E+03 -0.24076955201E+04  0.24615075760E+04  0.00000000000E+00 0. -1.
         -4    1    6    6    0  503 -0.17744839406E+02  0.45188074406E+02 -0.20035309677E+03  0.20615092719E+03  0.00000000000E+00 0.  1.
<mgrwt>
<rscale>  0 0.18246500E+04</rscale>
<asrwt>0</asrwt>
<pdfrwt beam="1">  1        2 0.51325793E+00 0.18246500E+04</pdfrwt>
<pdfrwt beam="2">  1       -1 0.38382812E-01 0.18246500E+04</pdfrwt>
<totfact> 0.74674578E+00</totfact>
</mgrwt>
</event>
<event>
12    6  0.1395358E-007  0.1744756E+04  0.7818608E-02  0.8736242E-01
          2   -1    0    0  501    0  0.00000000000E+00  0.00000000000E+00  0.13966715480E+04  0.13966715480E+04  0.00000000000E+00 0. -1.
         -1   -1    0    0    0  501 -0.00000000000E+00 -0.00000000000E+00 -0.54489788221E+03  0.54489788221E+03  0.00000000000E+00 0.  1.
         24    2    1    2    0    0 -0.63273781525E+03 -0.31245558278E+02  0.37986914447E+03  0.74314027774E+03  0.81384751165E+02 0.  0.
        254    2    1    2    0    0  0.63273781525E+03  0.31245558278E+02  0.47190452134E+03  0.11984291525E+04  0.90122423876E+03 0.  0.
         23    2    4    4    0    0 -0.17549310776E+03  0.78907317199E+02  0.29822955049E+03  0.36562802310E+03  0.87856649776E+02 0.  0.
         23    2    4    4    0    0  0.80823092301E+03 -0.47661758921E+02  0.17367497085E+03  0.83280112940E+03  0.88802350526E+02 0.  0.
          2    1    3    3  502    0 -0.37126483268E+03  0.60279956694E+01  0.25875035301E+03  0.45257668732E+03  0.00000000000E+00 0. -1.
         -1    1    3    3    0  502 -0.26147298257E+03 -0.37273553947E+02  0.12111879146E+03  0.29056359043E+03  0.00000000000E+00 0.  1.
         11    1    5    5    0    0 -0.75333338938E+02  0.81117302162E+02  0.17068204274E+03  0.20343915154E+03  0.00000000000E+00 0. -1.
        -11    1    5    5    0    0 -0.10015976882E+03 -0.22099849635E+01  0.12754750776E+03  0.16218887156E+03  0.00000000000E+00 0.  1.
          3    1    6    6  503    0  0.32485741496E+03 -0.62811522222E+02  0.72066737531E+02  0.33863142506E+03  0.00000000000E+00 0. -1.
         -3    1    6    6    0  503  0.48337350804E+03  0.15149763301E+02  0.10160823332E+03  0.49416970434E+03  0.00000000000E+00 0.  1.
<mgrwt>
<rscale>  0 0.17447560E+04</rscale>
<asrwt>0</asrwt>
<pdfrwt beam="1">  1        2 0.21487254E+00 0.17447560E+04</pdfrwt>
<pdfrwt beam="2">  1       -1 0.83830444E-01 0.17447560E+04</pdfrwt>
<totfact> 0.22161037E+01</totfact>
</mgrwt>
</event>
<event>
12    6  0.1395358E-007  0.1848816E+04  0.7818608E-02  0.8680762E-01
          2   -1    0    0  501    0  0.00000000000E+00  0.00000000000E+00  0.86352090665E+03  0.86352090665E+03  0.00000000000E+00 0. -1.
         -1   -1    0    0    0  501 -0.00000000000E+00 -0.00000000000E+00 -0.98958868609E+03  0.98958868609E+03  0.00000000000E+00 0.  1.
         24    2    1    2    0    0  0.10021455568E+03  0.49854038376E+03 -0.53469559369E+03  0.74209424753E+03  0.78860781792E+02 0.  0.
        254    2    1    2    0    0 -0.10021455568E+03 -0.49854038376E+03  0.40862781424E+03  0.11110153452E+04  0.89932915849E+03 0.  0.
         23    2    4    4    0    0 -0.33718937539E+03 -0.60870709207E+03  0.12296003517E+03  0.71247525151E+03  0.90998983263E+02 0.  0.
         23    2    4    4    0    0  0.23697481971E+03  0.11016670831E+03  0.28566777908E+03  0.39854009370E+03  0.94521730258E+02 0.  0.
          2    1    3    3  502    0  0.21173473674E+02  0.13272839955E+03 -0.94477054006E+02  0.16428955465E+03  0.00000000000E+00 0. -1.
         -1    1    3    3    0  502  0.79041082004E+02  0.36581198421E+03 -0.44021853968E+03  0.57780469288E+03  0.00000000000E+00 0.  1.
         11    1    5    5    0    0 -0.13174062496E+02 -0.77819076053E+02  0.25226289828E+01  0.78966626985E+02  0.00000000000E+00 0. -1.
        -11    1    5    5    0    0 -0.32401531289E+03 -0.53088801601E+03  0.12043740619E+03  0.63350862452E+03  0.00000000000E+00 0.  1.
          3    1    6    6  503    0 -0.68605716832E+01 -0.47240081682E+01  0.77138164373E+01  0.11352826125E+02  0.00000000000E+00 0. -1.
         -3    1    6    6    0  503  0.24383539139E+03  0.11489071648E+03  0.27795396264E+03  0.38718726758E+03  0.00000000000E+00 0.  1.
<mgrwt>
<rscale>  0 0.18488164E+04</rscale>
<asrwt>0</asrwt>
<pdfrwt beam="1">  1        2 0.13284937E+00 0.18488164E+04</pdfrwt>
<pdfrwt beam="2">  1       -1 0.15224441E+00 0.18488164E+04</pdfrwt>
<totfact> 0.11171649E+01</totfact>
</mgrwt>
</event>
<event>
12    6  0.1395358E-007  0.1728428E+04  0.7818608E-02  0.8745315E-01
         -1   -1    0    0    0  501 -0.00000000000E+00  0.00000000000E+00  0.91509205490E+03  0.91509205490E+03  0.00000000000E+00 0.  1.
          2   -1    0    0  501    0  0.00000000000E+00 -0.00000000000E+00 -0.81616441475E+03  0.81616441475E+03  0.00000000000E+00 0. -1.
         24    2    1    2    0    0 -0.35122921855E+03  0.38108178493E+02  0.55496868886E+03  0.66271152756E+03  0.79888208828E+02 0.  0.
        254    2    1    2    0    0  0.35122921855E+03 -0.38108178493E+02 -0.45604104871E+03  0.10685449421E+04  0.89944463861E+03 0.  0.
         23    2    4    4    0    0  0.29829823423E+03  0.38784668399E+03 -0.10733581386E+03  0.50802469953E+03  0.84624060263E+02 0.  0.
         23    2    4    4    0    0  0.52930984316E+02 -0.42595486248E+03 -0.34870523486E+03  0.56052024255E+03  0.91369401472E+02 0.  0.
          2    1    3    3  502    0 -0.11359481495E+03  0.23407714616E+02  0.12027688224E+03  0.16708749651E+03  0.00000000000E+00 0. -1.
         -3    1    3    3    0  502 -0.23763440360E+03  0.14700463877E+02  0.43469180662E+03  0.49562403105E+03  0.00000000000E+00 0.  1.
         11    1    5    5    0    0  0.18542925492E+03  0.19222177977E+03 -0.88613794100E+02  0.28139940601E+03  0.00000000000E+00 0.  1.
        -11    1    5    5    0    0  0.11286897931E+03  0.19562490422E+03 -0.18722019756E+02  0.22662529352E+03  0.00000000000E+00 0. -1.
          1    1    6    6  503    0  0.38911553637E+02 -0.15353231259E+03 -0.18009136791E+03  0.23983156759E+03  0.00000000000E+00 0. -1.
         -1    1    6    6    0  503  0.14019430679E+02 -0.27242254989E+03 -0.16861386695E+03  0.32068867497E+03  0.00000000000E+00 0.  1.
<mgrwt>
<rscale>  0 0.17284277E+04</rscale>
<asrwt>0</asrwt>
<pdfrwt beam="1">  1        2 0.12556376E+00 0.17284277E+04</pdfrwt>
<pdfrwt beam="2">  1       -1 0.14078339E+00 0.17284277E+04</pdfrwt>
<totfact> 0.15015113E+01</totfact>
</mgrwt>
</event>
<event>
12    6  0.1395358E-007  0.2810024E+04  0.7818608E-02  0.8300163E-01
         -1   -1    0    0    0  501 -0.00000000000E+00  0.00000000000E+00  0.13033006591E+04  0.13033006591E+04  0.00000000000E+00 0.  1.
          2   -1    0    0  501    0  0.00000000000E+00 -0.00000000000E+00 -0.15146612388E+04  0.15146612388E+04  0.00000000000E+00 0. -1.
         24    2    1    2    0    0 -0.34209803347E+03  0.11040170732E+04 -0.59670616940E+03  0.13030303956E+04  0.77105102801E+02 0.  0.
        254    2    1    2    0    0  0.34209803347E+03 -0.11040170732E+04  0.38534558975E+03  0.15149315024E+04  0.90035630224E+03 0.  0.
         23    2    4    4    0    0 -0.11398748732E+03 -0.70937563204E+02 -0.18552932020E+03  0.24629582448E+03  0.90637847303E+02 0.  0.
         23    2    4    4    0    0  0.45608552079E+03 -0.10330795100E+04  0.57087490995E+03  0.12686356779E+04  0.90945281516E+02 0.  0.
          4    1    3    3  502    0 -0.25753388444E+03  0.72869465961E+03 -0.42075165970E+03  0.87997248123E+03  0.00000000000E+00 0. -1.
         -3    1    3    3    0  502 -0.84564149036E+02  0.37532241355E+03 -0.17595450970E+03  0.42305791435E+03  0.00000000000E+00 0.  1.
         11    1    5    5    0    0  0.12791954381E+02 -0.17143561219E+02 -0.11245685835E+02  0.24166117563E+02  0.00000000000E+00 0. -1.
        -11    1    5    5    0    0 -0.12677944170E+03 -0.53794001985E+02 -0.17428363436E+03  0.22212970692E+03  0.00000000000E+00 0.  1.
          4    1    6    6  503    0  0.40842018328E+02 -0.16250159443E+03  0.67430225849E+02  0.18061471150E+03  0.00000000000E+00 0. -1.
         -4    1    6    6    0  503  0.41524350247E+03 -0.87057791552E+03  0.50344468410E+03  0.10880209664E+04  0.00000000000E+00 0.  1.
<mgrwt>
<rscale>  0 0.28100242E+04</rscale>
<asrwt>0</asrwt>
<pdfrwt beam="1">  1        2 0.23302481E+00 0.28100242E+04</pdfrwt>
<pdfrwt beam="2">  1       -1 0.20050779E+00 0.28100242E+04</pdfrwt>
<totfact> 0.18409108E+00</totfact>
</mgrwt>
</event>
<event>
12    6  0.1395358E-007  0.2811941E+04  0.7818608E-02  0.8299571E-01
         -1   -1    0    0    0  501 -0.00000000000E+00  0.00000000000E+00  0.17268816460E+04  0.17268816460E+04  0.00000000000E+00 0.  1.
          2   -1    0    0  501    0  0.00000000000E+00 -0.00000000000E+00 -0.11446954458E+04  0.11446954458E+04  0.00000000000E+00 0. -1.
         24    2    1    2    0    0  0.10338219242E+04  0.72464765915E+03  0.33258025982E+03  0.13080115494E+04  0.79891070841E+02 0.  0.
        254    2    1    2    0    0 -0.10338219242E+04 -0.72464765915E+03  0.24960594040E+03  0.15635655425E+04  0.88799328790E+03 0.  0.
         23    2    4    4    0    0 -0.39658943986E+03  0.16771599128E+03  0.11222043053E+03  0.45458298840E+03  0.92953917470E+02 0.  0.
         23    2    4    4    0    0 -0.63723248433E+03 -0.89236365044E+03  0.13738550987E+03  0.11089825541E+04  0.92679033648E+02 0.  0.
          4    1    3    3  502    0  0.39653321332E+03  0.23740462454E+03  0.10151371979E+03  0.47318556648E+03  0.00000000000E+00 0. -1.
         -3    1    3    3    0  502  0.63728871087E+03  0.48724303461E+03  0.23106654003E+03  0.83482598289E+03  0.00000000000E+00 0.  1.
         11    1    5    5    0    0 -0.16856749245E+03  0.32182467699E+02  0.72775163241E+02  0.18640529800E+03  0.00000000000E+00 0. -1.
        -11    1    5    5    0    0 -0.22802194740E+03  0.13553352358E+03  0.39445267292E+02  0.26817769039E+03  0.00000000000E+00 0.  1.
          4    1    6    6  503    0 -0.22170419521E+03 -0.37550236407E+03  0.29294720510E+02  0.43705029029E+03  0.00000000000E+00 0. -1.
         -4    1    6    6    0  503 -0.41552828913E+03 -0.51686128636E+03  0.10809078936E+03  0.67193226381E+03  0.00000000000E+00 0.  1.
<mgrwt>
<rscale>  0 0.28119414E+04</rscale>
<asrwt>0</asrwt>
<pdfrwt beam="1">  1        2 0.17610699E+00 0.28119414E+04</pdfrwt>
<pdfrwt beam="2">  1       -1 0.26567410E+00 0.28119414E+04</pdfrwt>
<totfact> 0.11167425E+00</totfact>
</mgrwt>
</event>
<event>
12    6  0.1395358E-007  0.4942680E+04  0.7818608E-02  0.7837411E-01
          2   -1    0    0  501    0  0.00000000000E+00  0.00000000000E+00  0.25005856321E+04  0.25005856321E+04  0.00000000000E+00 0. -1.
         -1   -1    0    0    0  501 -0.00000000000E+00 -0.00000000000E+00 -0.24424362866E+04  0.24424362866E+04  0.00000000000E+00 0.  1.
         24    2    1    2    0    0  0.38732335698E+03  0.23378879323E+04  0.32793187419E+03  0.23936370353E+04  0.78864285874E+02 0.  0.
        254    2    1    2    0    0 -0.38732335698E+03 -0.23378879323E+04 -0.26978252876E+03  0.25493848834E+04  0.90046726987E+03 0.  0.
         23    2    4    4    0    0 -0.14508162169E+03 -0.19302009722E+04 -0.51826237967E+03  0.20059976630E+04  0.93307339111E+02 0.  0.
         23    2    4    4    0    0 -0.24224173529E+03 -0.40768696009E+03  0.24847985091E+03  0.54338722046E+03  0.92939331318E+02 0.  0.
          2    1    3    3  502    0  0.30838604155E+03  0.16420083709E+04  0.22819585448E+03  0.16862285696E+04  0.00000000000E+00 0. -1.
         -1    1    3    3    0  502  0.78937315430E+02  0.69587956137E+03  0.99736019714E+02  0.70740846569E+03  0.00000000000E+00 0.  1.
         11    1    5    5    0    0 -0.13092096262E+03 -0.18985288047E+04 -0.51238633979E+03  0.19708099051E+04  0.00000000000E+00 0.  1.
        -11    1    5    5    0    0 -0.14160659071E+02 -0.31672167488E+02 -0.58760398807E+01  0.35187757863E+02  0.00000000000E+00 0. -1.
          1    1    6    6  503    0 -0.13151813736E+02 -0.76735635209E+02  0.19309523217E+02  0.80213375458E+02  0.00000000000E+00 0. -1.
         -1    1    6    6    0  503 -0.22908992155E+03 -0.33095132488E+03  0.22917032769E+03  0.46317384500E+03  0.00000000000E+00 0.  1.
<mgrwt>
<rscale>  0 0.49426799E+04</rscale>
<asrwt>0</asrwt>
<pdfrwt beam="1">  1        2 0.38470548E+00 0.49426799E+04</pdfrwt>
<pdfrwt beam="2">  1       -1 0.37575943E+00 0.49426799E+04</pdfrwt>
<totfact> 0.30250988E-02</totfact>
</mgrwt>
</event>
<event>
12    6  0.1395358E-007  0.1936697E+04  0.7818608E-02  0.8636802E-01
          2   -1    0    0  501    0  0.00000000000E+00  0.00000000000E+00  0.20982653707E+04  0.20982653707E+04  0.00000000000E+00 0. -1.
         -1   -1    0    0    0  501 -0.00000000000E+00 -0.00000000000E+00 -0.44689241872E+03  0.44689241872E+03  0.00000000000E+00 0.  1.
         24    2    1    2    0    0 -0.66080166209E+03  0.19686367088E+03  0.24427228430E+03  0.73596761486E+03  0.81026166793E+02 0.  0.
        254    2    1    2    0    0  0.66080166209E+03 -0.19686367088E+03  0.14071006677E+04  0.18091901745E+04  0.90433547823E+03 0.  0.
         23    2    4    4    0    0  0.50813193397E+03 -0.18413229570E+03  0.19191913301E+03  0.58088416283E+03  0.92144953069E+02 0.  0.
         23    2    4    4    0    0  0.15266972812E+03 -0.12731375182E+02  0.12151815346E+04  0.12283060117E+04  0.92732747376E+02 0.  0.
          2    1    3    3  502    0 -0.28293345516E+03  0.68733349693E+02  0.14264744824E+03  0.32422817258E+03  0.00000000000E+00 0. -1.
         -1    1    3    3    0  502 -0.37786820693E+03  0.12813032119E+03  0.10162483606E+03  0.41173944227E+03  0.00000000000E+00 0.  1.
         11    1    5    5    0    0  0.26318369571E+02 -0.33659333938E+02  0.23506859778E+02  0.48766584816E+02  0.00000000000E+00 0.  1.
        -11    1    5    5    0    0  0.48181356440E+03 -0.15047296176E+03  0.16841227323E+03  0.53211757802E+03  0.00000000000E+00 0. -1.
          2    1    6    6  503    0  0.13148358274E+03 -0.43594111583E+02  0.85032641518E+03  0.86153548473E+03  0.00000000000E+00 0. -1.
         -2    1    6    6    0  503  0.21186145386E+02  0.30862736402E+02  0.36485511947E+03  0.36677052697E+03  0.00000000000E+00 0.  1.
<mgrwt>
<rscale>  0 0.19366971E+04</rscale>
<asrwt>0</asrwt>
<pdfrwt beam="1">  1        2 0.32281005E+00 0.19366971E+04</pdfrwt>
<pdfrwt beam="2">  1       -1 0.68752681E-01 0.19366971E+04</pdfrwt>
<totfact> 0.13404494E+01</totfact>
</mgrwt>
</event>
<event>
12    6  0.1395358E-007  0.1175290E+04  0.7818608E-02  0.9134765E-01
         -1   -1    0    0    0  501 -0.00000000000E+00  0.00000000000E+00  0.74517525602E+02  0.74517525602E+02  0.00000000000E+00 0.  1.
          2   -1    0    0  501    0  0.00000000000E+00 -0.00000000000E+00 -0.46341645023E+04  0.46341645023E+04  0.00000000000E+00 0. -1.
         24    2    1    2    0    0 -0.35121222433E+02 -0.13961286819E+03 -0.22330329072E+03  0.27728668820E+03  0.79361795477E+02 0.  0.
        254    2    1    2    0    0  0.35121222433E+02  0.13961286819E+03 -0.43363436860E+04  0.44313953397E+04  0.90147814201E+03 0.  0.
         23    2    4    4    0    0  0.19709204670E+03 -0.10543063038E+02 -0.22572621793E+03  0.31384911366E+03  0.92695790827E+02 0.  0.
         23    2    4    4    0    0 -0.16197082426E+03  0.15015593122E+03 -0.41106174681E+04  0.41175462260E+04  0.90717160956E+02 0.  0.
          4    1    3    3  502    0  0.20978342851E+02 -0.77681417331E+02 -0.11874404102E+03  0.14343863059E+03  0.00000000000E+00 0. -1.
         -3    1    3    3    0  502 -0.56099565284E+02 -0.61931450854E+02 -0.10455924970E+03  0.13384805762E+03  0.00000000000E+00 0.  1.
         11    1    5    5    0    0  0.38987645159E+02  0.21195422587E+02 -0.99887932123E+02  0.10930179046E+03  0.00000000000E+00 0.  1.
        -11    1    5    5    0    0  0.15810440154E+03 -0.31738485624E+02 -0.12583828581E+03  0.20454732320E+03  0.00000000000E+00 0. -1.
          3    1    6    6  503    0 -0.12615519861E+03  0.15697098931E+03 -0.36006156608E+04  0.36062429427E+04  0.00000000000E+00 0. -1.
         -3    1    6    6    0  503 -0.35815625655E+02 -0.68150580907E+01 -0.51000180731E+03  0.51130328330E+03  0.00000000000E+00 0.  1.
<mgrwt>
<rscale>  0 0.11752897E+04</rscale>
<asrwt>0</asrwt>
<pdfrwt beam="1">  1        2 0.71294858E+00 0.11752897E+04</pdfrwt>
<pdfrwt beam="2">  1       -1 0.11464232E-01 0.11752897E+04</pdfrwt>
<totfact> 0.54965247E+00</totfact>
</mgrwt>
</event>
<event>
12    6  0.1395358E-007  0.1985384E+04  0.7818608E-02  0.8613485E-01
         -1   -1    0    0    0  501 -0.00000000000E+00  0.00000000000E+00  0.66737096323E+03  0.66737096323E+03  0.00000000000E+00 0.  1.
          2   -1    0    0  501    0  0.00000000000E+00 -0.00000000000E+00 -0.14765956150E+04  0.14765956150E+04  0.00000000000E+00 0. -1.
         24    2    1    2    0    0  0.66960074285E+03  0.28311688134E+03  0.41078483309E+01  0.73146241070E+03  0.80622952812E+02 0.  0.
        254    2    1    2    0    0 -0.66960074285E+03 -0.28311688134E+03 -0.81333250011E+03  0.14125041675E+04  0.89729479227E+03 0.  0.
         23    2    4    4    0    0 -0.13868016158E+03  0.10093130609E+03  0.14955348347E+03  0.24424202116E+03  0.88705156103E+02 0.  0.
         23    2    4    4    0    0 -0.53092058128E+03 -0.38404818744E+03 -0.96288598358E+03  0.11682621464E+04  0.91199514137E+02 0.  0.
          2    1    3    3  502    0  0.47301480776E+03  0.19126370097E+03 -0.33169463869E+02  0.51129739390E+03  0.00000000000E+00 0. -1.
         -1    1    3    3    0  502  0.19658593509E+03  0.91853180369E+02  0.37277312200E+02  0.22016501680E+03  0.00000000000E+00 0.  1.
         11    1    5    5    0    0 -0.27255606928E+01  0.27440859982E+02  0.58986222614E+02  0.65113776852E+02  0.00000000000E+00 0.  1.
        -11    1    5    5    0    0 -0.13595460088E+03  0.73490446111E+02  0.90567260854E+02  0.17912824431E+03  0.00000000000E+00 0. -1.
          1    1    6    6  503    0 -0.22538343381E+03 -0.21923674778E+03 -0.45882762224E+03  0.55622408320E+03  0.00000000000E+00 0. -1.
         -1    1    6    6    0  503 -0.30553714747E+03 -0.16481143966E+03 -0.50405836134E+03  0.61203806317E+03  0.00000000000E+00 0.  1.
<mgrwt>
<rscale>  0 0.19853836E+04</rscale>
<asrwt>0</asrwt>
<pdfrwt beam="1">  1        2 0.22716855E+00 0.19853836E+04</pdfrwt>
<pdfrwt beam="2">  1       -1 0.10267246E+00 0.19853836E+04</pdfrwt>
<totfact> 0.12440565E+01</totfact>
</mgrwt>
</event>
<event>
12    6  0.1395358E-007  0.2802763E+04  0.7818608E-02  0.8302411E-01
          2   -1    0    0  501    0  0.00000000000E+00  0.00000000000E+00  0.17588360753E+04  0.17588360753E+04  0.00000000000E+00 0. -1.
         -1   -1    0    0    0  501 -0.00000000000E+00 -0.00000000000E+00 -0.11165738731E+04  0.11165738731E+04  0.00000000000E+00 0.  1.
         24    2    1    2    0    0 -0.99290811702E+03 -0.73905666595E+03  0.50302553933E+03  0.13381186544E+04  0.73861732848E+02 0.  0.
        254    2    1    2    0    0  0.99290811702E+03  0.73905666595E+03  0.13923666295E+03  0.15372912940E+04  0.90100299117E+03 0.  0.
         23    2    4    4    0    0  0.53016907323E+02  0.24807643990E+03  0.36056284091E+03  0.45013999319E+03  0.90927106687E+02 0.  0.
         23    2    4    4    0    0  0.93989120969E+03  0.49098022606E+03 -0.22132617796E+03  0.10871513008E+04  0.91954366098E+02 0.  0.
          2    1    3    3  502    0 -0.48877566216E+03 -0.31857547177E+03  0.22968085033E+03  0.62701297605E+03  0.00000000000E+00 0. -1.
         -1    1    3    3    0  502 -0.50413245486E+03 -0.42048119418E+03  0.27334468901E+03  0.71110567830E+03  0.00000000000E+00 0.  1.
         11    1    5    5    0    0  0.55128460532E+02  0.18561255343E+03  0.20252252827E+03  0.28019018828E+03  0.00000000000E+00 0.  1.
        -11    1    5    5    0    0 -0.21115532086E+01  0.62463886465E+02  0.15804031264E+03  0.16994980491E+03  0.00000000000E+00 0. -1.
          1    1    6    6  503    0  0.47639209509E+03  0.29741755201E+03 -0.10052526650E+03  0.57053655248E+03  0.00000000000E+00 0. -1.
         -1    1    6    6    0  503  0.46349911460E+03  0.19356267404E+03 -0.12080091146E+03  0.51661474837E+03  0.00000000000E+00 0.  1.
<mgrwt>
<rscale>  0 0.28027632E+04</rscale>
<asrwt>0</asrwt>
<pdfrwt beam="1">  1        2 0.27059017E+00 0.28027632E+04</pdfrwt>
<pdfrwt beam="2">  1       -1 0.17178060E+00 0.28027632E+04</pdfrwt>
<totfact> 0.21503591E+00</totfact>
</mgrwt>
</event>
<event>
12    6  0.1395358E-007  0.2037044E+04  0.7818608E-02  0.8589494E-01
         -1   -1    0    0    0  501 -0.00000000000E+00  0.00000000000E+00  0.96067515775E+03  0.96067515775E+03  0.00000000000E+00 0.  1.
          2   -1    0    0  501    0  0.00000000000E+00 -0.00000000000E+00 -0.10798524872E+04  0.10798524872E+04  0.00000000000E+00 0. -1.
         24    2    1    2    0    0 -0.36160080518E+03  0.26351551066E+03 -0.73284949840E+03  0.86239561056E+03  0.80388028613E+02 0.  0.
        254    2    1    2    0    0  0.36160080518E+03 -0.26351551066E+03  0.61367216898E+03  0.11781320344E+04  0.90066974677E+03 0.  0.
         23    2    4    4    0    0  0.31013821644E+03 -0.57934400472E+03  0.32966392107E+03  0.74061050791E+03  0.89445147780E+02 0.  0.
         23    2    4    4    0    0  0.51462588739E+02  0.31582849406E+03  0.28400824790E+03  0.43752152646E+03  0.91478770952E+02 0.  0.
          2    1    3    3  502    0 -0.30162736693E+03  0.23803324401E+03 -0.66697743261E+03  0.76973877995E+03  0.00000000000E+00 0. -1.
         -1    1    3    3    0  502 -0.59973438243E+02  0.25482266652E+02 -0.65872065786E+02  0.92656830614E+02  0.00000000000E+00 0.  1.
         11    1    5    5    0    0  0.24103184737E+03 -0.36420712073E+03  0.23065173914E+03  0.49390626945E+03  0.00000000000E+00 0.  1.
        -11    1    5    5    0    0  0.69106369066E+02 -0.21513688399E+03  0.99012181937E+02  0.24670423845E+03  0.00000000000E+00 0. -1.
          1    1    6    6  503    0  0.19902573501E+02  0.31594647867E+02  0.73421055024E+02  0.82371023586E+02  0.00000000000E+00 0. -1.
         -1    1    6    6    0  503  0.31560015238E+02  0.28423384620E+03  0.21058719288E+03  0.35515050287E+03  0.00000000000E+00 0.  1.
<mgrwt>
<rscale>  0 0.20370444E+04</rscale>
<asrwt>0</asrwt>
<pdfrwt beam="1">  1        2 0.16613115E+00 0.20370444E+04</pdfrwt>
<pdfrwt beam="2">  1       -1 0.14779618E+00 0.20370444E+04</pdfrwt>
<totfact> 0.86005116E+00</totfact>
</mgrwt>
</event>
<event>
12    6  0.1395358E-007  0.1241327E+04  0.7818608E-02  0.9077433E-01
         -1   -1    0    0    0  501 -0.00000000000E+00  0.00000000000E+00  0.36669030624E+03  0.36669030624E+03  0.00000000000E+00 0.  1.
          2   -1    0    0  501    0  0.00000000000E+00 -0.00000000000E+00 -0.10505401752E+04  0.10505401752E+04  0.00000000000E+00 0. -1.
         24    2    1    2    0    0  0.12242001520E+03 -0.45420287275E+02  0.12702262638E+03  0.19900584858E+03  0.80118147393E+02 0.  0.
        254    2    1    2    0    0 -0.12242001520E+03  0.45420287275E+02 -0.81087249534E+03  0.12182246329E+04  0.89972628602E+03 0.  0.
         23    2    4    4    0    0  0.11140488278E+03 -0.26210265532E+03 -0.76154152782E+03  0.81814125792E+03  0.91108558761E+02 0.  0.
         23    2    4    4    0    0 -0.23382489798E+03  0.30752294259E+03 -0.49330967522E+02  0.40008337493E+03  0.91589952534E+02 0.  0.
          4    1    3    3  502    0  0.28557642552E+02 -0.11889373507E+02 -0.72603260891E+01  0.31774336900E+02  0.00000000000E+00 0. -1.
         -3    1    3    3    0  502  0.93862372644E+02 -0.33530913768E+02  0.13428295247E+03  0.16723151168E+03  0.00000000000E+00 0.  1.
         11    1    5    5    0    0  0.76257506568E+02 -0.24844950521E+03 -0.63571888701E+03  0.68679026438E+03  0.00000000000E+00 0. -1.
        -11    1    5    5    0    0  0.35147376212E+02 -0.13653150108E+02 -0.12582264081E+03  0.13135099354E+03  0.00000000000E+00 0.  1.
          3    1    6    6  503    0 -0.21024607268E+03  0.22622395582E+03 -0.60477720047E+02  0.31470342211E+03  0.00000000000E+00 0. -1.
         -3    1    6    6    0  503 -0.23578825301E+02  0.81298986773E+02  0.11146752524E+02  0.85379952827E+02  0.00000000000E+00 0.  1.
<mgrwt>
<rscale>  0 0.12413265E+04</rscale>
<asrwt>0</asrwt>
<pdfrwt beam="1">  1        2 0.16162156E+00 0.12413265E+04</pdfrwt>
<pdfrwt beam="2">  1       -1 0.56413894E-01 0.12413265E+04</pdfrwt>
<totfact> 0.83471176E+01</totfact>
</mgrwt>
</event>
<event>
12    6  0.1395358E-007  0.1572368E+04  0.7818608E-02  0.8837705E-01
         -1   -1    0    0    0  501 -0.00000000000E+00  0.00000000000E+00  0.48277983602E+03  0.48277983602E+03  0.00000000000E+00 0.  1.
          2   -1    0    0  501    0  0.00000000000E+00 -0.00000000000E+00 -0.12802633461E+04  0.12802633461E+04  0.00000000000E+00 0. -1.
         24    2    1    2    0    0 -0.38440694186E+03  0.35601170287E+03 -0.23805133411E+03  0.58109399571E+03  0.80552868649E+02 0.  0.
        254    2    1    2    0    0  0.38440694186E+03 -0.35601170287E+03 -0.55943217602E+03  0.11819491865E+04  0.89973690058E+03 0.  0.
         23    2    4    4    0    0 -0.44349957843E+02 -0.14701552018E+03 -0.66352385361E+03  0.68735285868E+03  0.92787747495E+02 0.  0.
         23    2    4    4    0    0  0.42875689970E+03 -0.20899618270E+03  0.10409167760E+03  0.49459632777E+03  0.79237407093E+02 0.  0.
          4    1    3    3  502    0 -0.91710127417E+02  0.11416279575E+03 -0.98923106798E+02  0.17671919098E+03  0.00000000000E+00 0. -1.
         -3    1    3    3    0  502 -0.29269681444E+03  0.24184890713E+03 -0.13912822731E+03  0.40437480472E+03  0.00000000000E+00 0.  1.
         11    1    5    5    0    0 -0.54399174242E+02 -0.40348851584E+02 -0.33574294864E+03  0.34250639051E+03  0.00000000000E+00 0.  1.
        -11    1    5    5    0    0  0.10049216399E+02 -0.10666666860E+03 -0.32778090498E+03  0.34484646817E+03  0.00000000000E+00 0. -1.
          4    1    6    6  503    0  0.22388410739E+03 -0.66954102322E+02  0.62054794052E+02  0.24178036071E+03  0.00000000000E+00 0. -1.
         -4    1    6    6    0  503  0.20487279231E+03 -0.14204208037E+03  0.42036883544E+02  0.25281596706E+03  0.00000000000E+00 0.  1.
<mgrwt>
<rscale>  0 0.15723681E+04</rscale>
<asrwt>0</asrwt>
<pdfrwt beam="1">  1        2 0.19696359E+00 0.15723681E+04</pdfrwt>
<pdfrwt beam="2">  1       -1 0.74273821E-01 0.15723681E+04</pdfrwt>
<totfact> 0.33938315E+01</totfact>
</mgrwt>
</event>
<event>
12    6  0.1395358E-007  0.2082526E+04  0.7818608E-02  0.8568980E-01
          2   -1    0    0  501    0  0.00000000000E+00  0.00000000000E+00  0.38324583270E+04  0.38324583270E+04  0.00000000000E+00 0. -1.
         -1   -1    0    0    0  501 -0.00000000000E+00 -0.00000000000E+00 -0.28290676532E+03  0.28290676532E+03  0.00000000000E+00 0.  1.
         24    2    1    2    0    0 -0.30128758800E+02 -0.65607516082E+03  0.24948253797E+04  0.25810428980E+04  0.79286867571E+02 0.  0.
        254    2    1    2    0    0  0.30128758800E+02  0.65607516082E+03  0.10547261820E+04  0.15343221943E+04  0.90019715522E+03 0.  0.
         23    2    4    4    0    0  0.21164805509E+03 -0.19975889441E+01 -0.46394369447E+02  0.23533125827E+03  0.91812167043E+02 0.  0.
         23    2    4    4    0    0 -0.18151929629E+03  0.65807274977E+03  0.11011205514E+04  0.12989909360E+04  0.94350327263E+02 0.  0.
          2    1    3    3  502    0 -0.49214112586E+02 -0.44388954027E+03  0.17776288498E+04  0.18328732308E+04  0.00000000000E+00 0. -1.
         -3    1    3    3    0  502  0.19085353786E+02 -0.21218562055E+03  0.71719652996E+03  0.74816966717E+03  0.00000000000E+00 0.  1.
         11    1    5    5    0    0  0.22015903767E+03 -0.78552689063E+01 -0.45598233961E+02  0.22496867795E+03  0.00000000000E+00 0.  1.
        -11    1    5    5    0    0 -0.85109825849E+01  0.58576799622E+01 -0.79613548624E+00  0.10362580316E+02  0.00000000000E+00 0. -1.
          1    1    6    6  503    0 -0.45534615558E+01 -0.13459606271E+01  0.21704803489E+01  0.52207860610E+01  0.00000000000E+00 0. -1.
         -1    1    6    6    0  503 -0.17696583473E+03  0.65941871039E+03  0.10989500711E+04  0.12937701500E+04  0.00000000000E+00 0.  1.
<mgrwt>
<rscale>  0 0.20825258E+04</rscale>
<asrwt>0</asrwt>
<pdfrwt beam="1">  1        2 0.58960894E+00 0.20825258E+04</pdfrwt>
<pdfrwt beam="2">  1       -1 0.43524120E-01 0.20825258E+04</pdfrwt>
<totfact> 0.25578998E+00</totfact>
</mgrwt>
</event>
<event>
12    6  0.1395358E-007  0.5114645E+04  0.7818608E-02  0.7811061E-01
          2   -1    0    0  501    0  0.00000000000E+00  0.00000000000E+00  0.37843554608E+04  0.37843554608E+04  0.00000000000E+00 0. -1.
         -3   -1    0    0    0  501 -0.00000000000E+00 -0.00000000000E+00 -0.17281405874E+04  0.17281405874E+04  0.00000000000E+00 0.  1.
         24    2    1    2    0    0 -0.18094832812E+04  0.13662704358E+04 -0.78500583327E+02  0.22700647988E+04  0.78148578437E+02 0.  0.
        254    2    1    2    0    0  0.18094832812E+04 -0.13662704358E+04  0.21347154566E+04  0.32424312494E+04  0.90300923465E+03 0.  0.
         23    2    4    4    0    0  0.17211503728E+04 -0.11863122090E+04  0.15108084372E+04  0.25807881004E+04  0.90718369227E+02 0.  0.
         23    2    4    4    0    0  0.88332908409E+02 -0.17995822678E+03  0.62390701948E+03  0.66164314901E+03  0.91236076103E+02 0.  0.
          2    1    3    3  502    0 -0.10114621361E+04  0.77463763412E+03 -0.62977771278E+01  0.12740324874E+04  0.00000000000E+00 0. -1.
         -1    1    3    3    0  502 -0.79802114508E+03  0.59163280171E+03 -0.72202806199E+02  0.99603231136E+03  0.00000000000E+00 0.  1.
         11    1    5    5    0    0  0.13776129514E+04 -0.95872425071E+03  0.11686198566E+04  0.20451508507E+04  0.00000000000E+00 0.  1.
        -11    1    5    5    0    0  0.34353742135E+03 -0.22758795833E+03  0.34218858059E+03  0.53563724976E+03  0.00000000000E+00 0. -1.
          4    1    6    6  503    0  0.21749921024E+02 -0.85496338452E+02  0.15158168365E+03  0.17538440572E+03  0.00000000000E+00 0. -1.
         -4    1    6    6    0  503  0.66582987385E+02 -0.94461888332E+02  0.47232533583E+03  0.48625874329E+03  0.00000000000E+00 0.  1.
<mgrwt>
<rscale>  0 0.51146450E+04</rscale>
<asrwt>0</asrwt>
<pdfrwt beam="1">  1        2 0.58220853E+00 0.51146450E+04</pdfrwt>
<pdfrwt beam="2">  1       -3 0.26586778E+00 0.51146450E+04</pdfrwt>
<totfact> 0.13594433E-02</totfact>
</mgrwt>
</event>
<event>
12    6  0.1395358E-007  0.3442105E+04  0.7818608E-02  0.8127649E-01
          2   -1    0    0  501    0  0.00000000000E+00  0.00000000000E+00  0.12801650401E+04  0.12801650401E+04  0.00000000000E+00 0. -1.
         -1   -1    0    0    0  501 -0.00000000000E+00 -0.00000000000E+00 -0.23137817057E+04  0.23137817057E+04  0.00000000000E+00 0.  1.
         24    2    1    2    0    0  0.72649935667E+03 -0.10198988456E+04  0.56128313781E+03  0.13745688614E+04  0.80036387736E+02 0.  0.
        254    2    1    2    0    0 -0.72649935667E+03  0.10198988456E+04 -0.15948998034E+04  0.22193778844E+04  0.90218503669E+03 0.  0.
         23    2    4    4    0    0 -0.90410493252E+03  0.94487385213E+03 -0.14808505237E+04  0.19777087643E+04  0.90671700884E+02 0.  0.
         23    2    4    4    0    0  0.17760557585E+03  0.75024993465E+02 -0.11404927968E+03  0.24166912011E+03  0.90687569168E+02 0.  0.
          2    1    3    3  502    0  0.44243197474E+03 -0.67700043922E+03  0.33956756476E+03  0.87714410333E+03  0.00000000000E+00 0. -1.
         -1    1    3    3    0  502  0.28406738193E+03 -0.34289840637E+03  0.22171557305E+03  0.49742475803E+03  0.00000000000E+00 0.  1.
         11    1    5    5    0    0 -0.76219695253E+03  0.83898143568E+03 -0.12953516059E+04  0.17212698297E+04  0.00000000000E+00 0.  1.
        -11    1    5    5    0    0 -0.14190797999E+03  0.10589241645E+03 -0.18549891781E+03  0.25643893455E+03  0.00000000000E+00 0. -1.
          3    1    6    6  503    0  0.17604264444E+03  0.62171228771E+02 -0.12502539965E+03  0.22469451464E+03  0.00000000000E+00 0. -1.
         -3    1    6    6    0  503  0.15629314046E+01  0.12853764694E+02  0.10976119969E+02  0.16974605473E+02  0.00000000000E+00 0.  1.
<mgrwt>
<rscale>  0 0.34421054E+04</rscale>
<asrwt>0</asrwt>
<pdfrwt beam="1">  1        2 0.19694847E+00 0.34421054E+04</pdfrwt>
<pdfrwt beam="2">  1       -1 0.35596641E+00 0.34421054E+04</pdfrwt>
<totfact> 0.22633563E-01</totfact>
</mgrwt>
</event>
<event>
12    6  0.1395358E-007  0.1608212E+04  0.7818608E-02  0.8815519E-01
          2   -1    0    0  501    0  0.00000000000E+00  0.00000000000E+00  0.11066930125E+04  0.11066930125E+04  0.00000000000E+00 0. -1.
         -1   -1    0    0    0  501 -0.00000000000E+00 -0.00000000000E+00 -0.58425116903E+03  0.58425116903E+03  0.00000000000E+00 0.  1.
         24    2    1    2    0    0 -0.45987475410E+03  0.11533229598E+03 -0.83379779881E+02  0.48796622546E+03  0.79828074891E+02 0.  0.
        254    2    1    2    0    0  0.45987475410E+03 -0.11533229598E+03  0.60582162333E+03  0.12029779560E+04  0.92485122884E+03 0.  0.
         23    2    4    4    0    0  0.72802892597E+03 -0.12278603470E+03  0.35178862892E+03  0.82286514436E+03  0.90825541587E+02 0.  0.
         23    2    4    4    0    0 -0.26815417187E+03  0.74537387170E+01  0.25403299441E+03  0.38011281168E+03  0.89391102720E+02 0.  0.
          2    1    3    3  502    0 -0.35632430006E+03  0.90589779089E+02 -0.30035524624E+02  0.36888432825E+03  0.00000000000E+00 0. -1.
         -1    1    3    3    0  502 -0.10355045404E+03  0.24742516895E+02 -0.53344255257E+02  0.11908189721E+03  0.00000000000E+00 0.  1.
         11    1    5    5    0    0  0.13282986065E+02 -0.30525462391E+01  0.23729183834E+02  0.27364756946E+02  0.00000000000E+00 0. -1.
        -11    1    5    5    0    0  0.71474593990E+03 -0.11973348846E+03  0.32805944509E+03  0.79550038742E+03  0.00000000000E+00 0.  1.
          3    1    6    6  503    0 -0.84834759136E+02 -0.11737056508E+02  0.31723486648E+02  0.91329482963E+02  0.00000000000E+00 0. -1.
         -3    1    6    6    0  503 -0.18331941274E+03  0.19190795224E+02  0.22230950776E+03  0.28878332872E+03  0.00000000000E+00 0.  1.
<mgrwt>
<rscale>  0 0.16082123E+04</rscale>
<asrwt>0</asrwt>
<pdfrwt beam="1">  1        2 0.17026046E+00 0.16082123E+04</pdfrwt>
<pdfrwt beam="2">  1       -1 0.89884795E-01 0.16082123E+04</pdfrwt>
<totfact> 0.28578252E+01</totfact>
</mgrwt>
</event>
<event>
12    6  0.1395358E-007  0.1312772E+04  0.7818608E-02  0.9019498E-01
          2   -1    0    0  501    0  0.00000000000E+00  0.00000000000E+00  0.10695785219E+04  0.10695785219E+04  0.00000000000E+00 0. -1.
         -1   -1    0    0    0  501 -0.00000000000E+00 -0.00000000000E+00 -0.40281531340E+03  0.40281531340E+03  0.00000000000E+00 0.  1.
         24    2    1    2    0    0  0.56042751654E+02 -0.22558558794E+03  0.45904671792E+03  0.51861792605E+03  0.64892345382E+02 0.  0.
        254    2    1    2    0    0 -0.56042751654E+02  0.22558558794E+03  0.20771649054E+03  0.95377590920E+03  0.90139486189E+03 0.  0.
         23    2    4    4    0    0 -0.14234726882E+03 -0.21551366386E+03  0.37667794882E+03  0.46549409231E+03  0.89942140299E+02 0.  0.
         23    2    4    4    0    0  0.86304517169E+02  0.44109925180E+03 -0.16896145828E+03  0.48828181689E+03  0.88623578700E+02 0.  0.
          2    1    3    3  502    0  0.63146286170E+01 -0.13371441847E+03  0.29759977093E+03  0.32632046197E+03  0.00000000000E+00 0. -1.
         -1    1    3    3    0  502  0.49728123037E+02 -0.91871169472E+02  0.16144694700E+03  0.19229746409E+03  0.00000000000E+00 0.  1.
         11    1    5    5    0    0 -0.41217869982E+01 -0.24011677457E+02  0.94160684026E+02  0.97261421944E+02  0.00000000000E+00 0.  1.
        -11    1    5    5    0    0 -0.13822548182E+03 -0.19150198640E+03  0.28251726479E+03  0.36823267037E+03  0.00000000000E+00 0. -1.
          2    1    6    6  503    0  0.64652374248E+02  0.29127881553E+03 -0.15509708135E+03  0.33627129303E+03  0.00000000000E+00 0. -1.
         -2    1    6    6    0  503  0.21652142921E+02  0.14982043627E+03 -0.13864376928E+02  0.15201052386E+03  0.00000000000E+00 0.  1.
<mgrwt>
<rscale>  0 0.13127720E+04</rscale>
<asrwt>0</asrwt>
<pdfrwt beam="1">  1        2 0.16455054E+00 0.13127720E+04</pdfrwt>
<pdfrwt beam="2">  1       -1 0.61971587E-01 0.13127720E+04</pdfrwt>
<totfact> 0.67129723E+01</totfact>
</mgrwt>
</event>
<event>
12    6  0.1395358E-007  0.2380447E+04  0.7818608E-02  0.8446860E-01
         -1   -1    0    0    0  501 -0.00000000000E+00  0.00000000000E+00  0.55439774183E+03  0.55439774183E+03  0.00000000000E+00 0.  1.
          2   -1    0    0  501    0  0.00000000000E+00 -0.00000000000E+00 -0.25552629325E+04  0.25552629325E+04  0.00000000000E+00 0. -1.
         24    2    1    2    0    0  0.51885313751E+03  0.38313104520E+02 -0.20018644787E+04  0.20698188850E+04  0.77539366606E+02 0.  0.
        254    2    1    2    0    0 -0.51885313751E+03 -0.38313104520E+02  0.99928800628E+00  0.10398417893E+04  0.90032964852E+03 0.  0.
         23    2    4    4    0    0 -0.23928863345E+03 -0.45651167382E+03  0.47455980626E+02  0.52575048113E+03  0.92192949143E+02 0.  0.
         23    2    4    4    0    0 -0.27956450406E+03  0.41819856930E+03 -0.46456692620E+02  0.51409130822E+03  0.95316806498E+02 0.  0.
          2    1    3    3  502    0  0.21465377333E+03  0.53854952783E+02 -0.86332449112E+03  0.89123833811E+03  0.00000000000E+00 0. -1.
         -3    1    3    3    0  502  0.30419936419E+03 -0.15541848263E+02 -0.11385399875E+04  0.11785805469E+04  0.00000000000E+00 0.  1.
         11    1    5    5    0    0 -0.14798982382E+03 -0.36199626016E+03  0.20575683278E+02  0.39161925268E+03  0.00000000000E+00 0.  1.
        -11    1    5    5    0    0 -0.91298809630E+02 -0.94515413659E+02  0.26880297349E+02  0.13413122845E+03  0.00000000000E+00 0. -1.
          3    1    6    6  503    0  0.68002181077E+01  0.85887483091E+01 -0.64384233227E+01  0.12706803639E+02  0.00000000000E+00 0. -1.
         -3    1    6    6    0  503 -0.28636472217E+03  0.40960982099E+03 -0.40018269297E+02  0.50138450458E+03  0.00000000000E+00 0.  1.
<mgrwt>
<rscale>  0 0.23804470E+04</rscale>
<asrwt>0</asrwt>
<pdfrwt beam="1">  1        2 0.39311737E+00 0.23804470E+04</pdfrwt>
<pdfrwt beam="2">  1       -1 0.85291961E-01 0.23804470E+04</pdfrwt>
<totfact> 0.45005719E+00</totfact>
</mgrwt>
</event>
<event>
12    6  0.1395358E-007  0.1831322E+04  0.7818608E-02  0.8689818E-01
          2   -1    0    0  501    0  0.00000000000E+00  0.00000000000E+00  0.33316336126E+04  0.33316336126E+04  0.00000000000E+00 0. -1.
         -1   -1    0    0    0  501 -0.00000000000E+00 -0.00000000000E+00 -0.25165887825E+03  0.25165887825E+03  0.00000000000E+00 0.  1.
         24    2    1    2    0    0 -0.59548118375E+03  0.31860093095E+03  0.88195982120E+03  0.11137970415E+04  0.81156207348E+02 0.  0.
        254    2    1    2    0    0  0.59548118375E+03 -0.31860093095E+03  0.21980149131E+04  0.24694954494E+04  0.90057416274E+03 0.  0.
         23    2    4    4    0    0 -0.20559089087E+03  0.55422710779E+02  0.37064673243E+03  0.43720361221E+03  0.91807989799E+02 0.  0.
         23    2    4    4    0    0  0.80107207462E+03 -0.37402364173E+03  0.18273681807E+04  0.20322918372E+04  0.96568577434E+02 0.  0.
          4    1    3    3  502    0 -0.39973471510E+03  0.18202606178E+03  0.61430534888E+03  0.75517705956E+03  0.00000000000E+00 0. -1.
         -3    1    3    3    0  502 -0.19574646865E+03  0.13657486917E+03  0.26765447232E+03  0.35861998192E+03  0.00000000000E+00 0.  1.
         11    1    5    5    0    0  0.81039153385E+00  0.22124336852E+02  0.26529208890E+02  0.34553464948E+02  0.00000000000E+00 0. -1.
        -11    1    5    5    0    0 -0.20640128240E+03  0.33298373927E+02  0.34411752354E+03  0.40265014726E+03  0.00000000000E+00 0.  1.
          4    1    6    6  503    0  0.11726790637E+01 -0.95882061430E+01  0.12853335410E+02  0.16078467103E+02  0.00000000000E+00 0. -1.
         -4    1    6    6    0  503  0.79989939556E+03 -0.36443543559E+03  0.18145148453E+04  0.20162133700E+04  0.00000000000E+00 0.  1.
<mgrwt>
<rscale>  0 0.18313221E+04</rscale>
<asrwt>0</asrwt>
<pdfrwt beam="1">  1        2 0.51255899E+00 0.18313221E+04</pdfrwt>
<pdfrwt beam="2">  1       -1 0.38716753E-01 0.18313221E+04</pdfrwt>
<totfact> 0.73975297E+00</totfact>
</mgrwt>
</event>
<event>
12    6  0.1395358E-007  0.1633447E+04  0.7818608E-02  0.8800259E-01
          2   -1    0    0  501    0  0.00000000000E+00  0.00000000000E+00  0.18024642357E+04  0.18024642357E+04  0.00000000000E+00 0. -1.
         -1   -1    0    0    0  501 -0.00000000000E+00 -0.00000000000E+00 -0.37006982465E+03  0.37006982465E+03  0.00000000000E+00 0.  1.
         24    2    1    2    0    0  0.54963053198E+03 -0.57954166328E+02  0.34468261588E+03  0.65635584083E+03  0.80897942010E+02 0.  0.
        254    2    1    2    0    0 -0.54963053198E+03  0.57954166328E+02  0.10877117951E+04  0.15161782195E+04  0.90012612278E+03 0.  0.
         23    2    4    4    0    0 -0.97113896183E+02 -0.23591874578E+03  0.89506820788E+03  0.93607967065E+03  0.10004643728E+03 0.  0.
         23    2    4    4    0    0 -0.45251663580E+03  0.29387291210E+03  0.19264358726E+03  0.58009854885E+03  0.90940532847E+02 0.  0.
          2    1    3    3  502    0  0.17668594984E+03  0.74587890985E+01  0.78301457825E+02  0.19340288700E+03  0.00000000000E+00 0. -1.
         -1    1    3    3    0  502  0.37294458215E+03 -0.65412955426E+02  0.26638115806E+03  0.46295295383E+03  0.00000000000E+00 0.  1.
         11    1    5    5    0    0 -0.47631005295E+02 -0.72285808384E+02  0.47031371940E+03  0.47821432999E+03  0.00000000000E+00 0. -1.
        -11    1    5    5    0    0 -0.49482890888E+02 -0.16363293739E+03  0.42475448848E+03  0.45786534066E+03  0.00000000000E+00 0.  1.
          4    1    6    6  503    0 -0.74181788632E+02  0.39293031454E+02  0.66119319222E+02  0.10685805753E+03  0.00000000000E+00 0.  1.
         -4    1    6    6    0  503 -0.37833484717E+03  0.25457988065E+03  0.12652426804E+03  0.47324049131E+03  0.00000000000E+00 0. -1.
<mgrwt>
<rscale>  0 0.16334474E+04</rscale>
<asrwt>0</asrwt>
<pdfrwt beam="1">  1        2 0.27730219E+00 0.16334474E+04</pdfrwt>
<pdfrwt beam="2">  1       -1 0.56933820E-01 0.16334474E+04</pdfrwt>
<totfact> 0.29270559E+01</totfact>
</mgrwt>
</event>
<event>
12    6  0.1395358E-007  0.1528146E+04  0.7818608E-02  0.8865949E-01
         -1   -1    0    0    0  501 -0.00000000000E+00  0.00000000000E+00  0.30978125564E+03  0.30978125564E+03  0.00000000000E+00 0.  1.
          2   -1    0    0  501    0  0.00000000000E+00 -0.00000000000E+00 -0.18845802057E+04  0.18845802057E+04  0.00000000000E+00 0. -1.
         24    2    1    2    0    0 -0.43725562466E+03  0.12119048561E+03 -0.79345620900E+03  0.91784181131E+03  0.83553694674E+02 0.  0.
        254    2    1    2    0    0  0.43725562466E+03 -0.12119048561E+03 -0.78134274105E+03  0.12765196500E+04  0.90173517332E+03 0.  0.
         23    2    4    4    0    0  0.51177646813E+03 -0.45577750631E+02 -0.93494624385E+03  0.10708326827E+04  0.92550909328E+02 0.  0.
         23    2    4    4    0    0 -0.74520843472E+02 -0.75612734977E+02  0.15360350281E+03  0.20568696729E+03  0.86269639127E+02 0.  0.
          4    1    3    3  502    0 -0.29991600061E+03  0.44933530569E+02 -0.55100289984E+03  0.62894580468E+03  0.00000000000E+00 0. -1.
         -3    1    3    3    0  502 -0.13733962405E+03  0.76256955040E+02 -0.24245330917E+03  0.28889600664E+03  0.00000000000E+00 0.  1.
         11    1    5    5    0    0  0.11643005709E+03  0.70670808439E+01 -0.14663267782E+03  0.18736873813E+03  0.00000000000E+00 0. -1.
        -11    1    5    5    0    0  0.39534641105E+03 -0.52644831475E+02 -0.78831356604E+03  0.88346394460E+03  0.00000000000E+00 0.  1.
          1    1    6    6  503    0 -0.74011855397E+02 -0.76702249483E+02  0.83050082320E+02  0.13512329921E+03  0.00000000000E+00 0. -1.
         -1    1    6    6    0  503 -0.50898807509E+00  0.10895145061E+01  0.70553420487E+02  0.70563668082E+02  0.00000000000E+00 0.  1.
<mgrwt>
<rscale>  0 0.15281461E+04</rscale>
<asrwt>0</asrwt>
<pdfrwt beam="1">  1        2 0.28993542E+00 0.15281461E+04</pdfrwt>
<pdfrwt beam="2">  1       -1 0.47658655E-01 0.15281461E+04</pdfrwt>
<totfact> 0.37399489E+01</totfact>
</mgrwt>
</event>
<event>
12    6  0.1395358E-007  0.2039053E+04  0.7818608E-02  0.8588577E-01
          2   -1    0    0  501    0  0.00000000000E+00  0.00000000000E+00  0.69329284619E+03  0.69329284619E+03  0.00000000000E+00 0. -1.
         -1   -1    0    0    0  501 -0.00000000000E+00 -0.00000000000E+00 -0.14992722266E+04  0.14992722266E+04  0.00000000000E+00 0.  1.
         24    2    1    2    0    0  0.13272417871E+03  0.48306711660E+03 -0.10191511506E+04  0.11384543152E+04  0.80247200537E+02 0.  0.
        254    2    1    2    0    0 -0.13272417871E+03 -0.48306711660E+03  0.21317177019E+03  0.10541107576E+04  0.90262823964E+03 0.  0.
         23    2    4    4    0    0 -0.47643292307E+03 -0.13618360593E+03  0.23691795144E+03  0.55671592233E+03  0.90929630726E+02 0.  0.
         23    2    4    4    0    0  0.34370874436E+03 -0.34688351067E+03 -0.23746181255E+02  0.49739483530E+03  0.91508852771E+02 0.  0.
          4    1    3    3  502    0  0.20464499042E+02  0.14329558512E+02 -0.41347943505E+02  0.48309257915E+02  0.00000000000E+00 0. -1.
         -3    1    3    3    0  502  0.11225967967E+03  0.46873755809E+03 -0.97780320714E+03  0.10901450573E+04  0.00000000000E+00 0.  1.
         11    1    5    5    0    0 -0.25248223785E+03 -0.86426609475E+02  0.79377320699E+02  0.27841982382E+03  0.00000000000E+00 0.  1.
        -11    1    5    5    0    0 -0.22395068522E+03 -0.49756996456E+02  0.15754063074E+03  0.27829609850E+03  0.00000000000E+00 0. -1.
          4    1    6    6  503    0  0.37611678821E+02 -0.48279558836E+02 -0.33286537320E+02  0.69667408104E+02  0.00000000000E+00 0. -1.
         -4    1    6    6    0  503  0.30609706554E+03 -0.29860395183E+03  0.95403560652E+01  0.42772742720E+03  0.00000000000E+00 0.  1.
<mgrwt>
<rscale>  0 0.20390534E+04</rscale>
<asrwt>0</asrwt>
<pdfrwt beam="1">  1        2 0.10666044E+00 0.20390534E+04</pdfrwt>
<pdfrwt beam="2">  1       -1 0.23065727E+00 0.20390534E+04</pdfrwt>
<totfact> 0.40971929E+00</totfact>
</mgrwt>
</event>
<event>
12    6  0.1395358E-007  0.1130862E+04  0.7818608E-02  0.9175623E-01
          2   -1    0    0  501    0  0.00000000000E+00  0.00000000000E+00  0.99615389789E+03  0.99615389789E+03  0.00000000000E+00 0. -1.
         -1   -1    0    0    0  501 -0.00000000000E+00 -0.00000000000E+00 -0.32094659516E+03  0.32094659516E+03  0.00000000000E+00 0.  1.
         24    2    1    2    0    0 -0.16461756447E+03  0.53514540163E+02  0.22465968233E+02  0.19226900678E+03  0.80621974045E+02 0.  0.
        254    2    1    2    0    0  0.16461756447E+03 -0.53514540163E+02  0.65274133449E+03  0.11248314863E+04  0.89956204579E+03 0.  0.
         23    2    4    4    0    0 -0.45764338569E+02 -0.23094413066E+03  0.77219327356E+03  0.81167077941E+03  0.84246283273E+02 0.  0.
         23    2    4    4    0    0  0.21038190303E+03  0.17742959050E+03 -0.11945193907E+03  0.31316070686E+03  0.89772255556E+02 0.  0.
          4    1    3    3  502    0 -0.99105961853E+02  0.58453378561E+02  0.43919682149E+02  0.12315732873E+03  0.00000000000E+00 0. -1.
         -3    1    3    3    0  502 -0.65511602612E+02 -0.49388383986E+01 -0.21453713916E+02  0.69111678046E+02  0.00000000000E+00 0.  1.
         11    1    5    5    0    0 -0.89288356289E+01  0.41522641786E+01  0.14819096764E+02  0.17792443126E+02  0.00000000000E+00 0. -1.
        -11    1    5    5    0    0 -0.36835502940E+02 -0.23509639484E+03  0.75737417680E+03  0.79387833629E+03  0.00000000000E+00 0.  1.
          3    1    6    6  503    0  0.60231627070E+02  0.17035470897E+02 -0.57227279117E+02  0.84811659831E+02  0.00000000000E+00 0. -1.
         -3    1    6    6    0  503  0.15015027596E+03  0.16039411960E+03 -0.62224659952E+02  0.22834904703E+03  0.00000000000E+00 0.  1.
<mgrwt>
<rscale>  0 0.11308620E+04</rscale>
<asrwt>0</asrwt>
<pdfrwt beam="1">  1        2 0.15325444E+00 0.11308620E+04</pdfrwt>
<pdfrwt beam="2">  1       -1 0.49376400E-01 0.11308620E+04</pdfrwt>
<totfact> 0.11767489E+02</totfact>
</mgrwt>
</event>
<event>
12    6  0.1395358E-007  0.2528502E+04  0.7818608E-02  0.8392901E-01
         -1   -1    0    0    0  501 -0.00000000000E+00  0.00000000000E+00  0.72411476187E+03  0.72411476187E+03  0.00000000000E+00 0.  1.
          2   -1    0    0  501    0  0.00000000000E+00 -0.00000000000E+00 -0.22072899248E+04  0.22072899248E+04  0.00000000000E+00 0. -1.
         24    2    1    2    0    0 -0.10338429190E+04  0.28051969729E+03 -0.35423830872E+03  0.11311805423E+04  0.81007149745E+02 0.  0.
        254    2    1    2    0    0  0.10338429190E+04 -0.28051969729E+03 -0.11289368542E+04  0.18002241444E+04  0.90486798345E+03 0.  0.
         23    2    4    4    0    0  0.41001018014E+03 -0.46975851977E+03 -0.90924095897E+03  0.11062701809E+04  0.91286235924E+02 0.  0.
         23    2    4    4    0    0  0.62383273882E+03  0.18923882248E+03 -0.21969589528E+03  0.69395396352E+03  0.91253488295E+02 0.  0.
          2    1    3    3  502    0 -0.57761084881E+03  0.19820984296E+03 -0.20411407118E+03  0.64388196788E+03  0.00000000000E+00 0. -1.
         -1    1    3    3    0  502 -0.45623207016E+03  0.82309854325E+02 -0.15012423754E+03  0.48729857444E+03  0.00000000000E+00 0.  1.
         11    1    5    5    0    0  0.17940435962E+02 -0.19695508936E+02 -0.13479123321E+02  0.29857312007E+02  0.00000000000E+00 0.  1.
        -11    1    5    5    0    0  0.39206974418E+03 -0.45006301084E+03 -0.89576183565E+03  0.10764128689E+04  0.00000000000E+00 0. -1.
          3    1    6    6  503    0  0.55008113779E+03  0.14165343380E+03 -0.16918799670E+03  0.59268839342E+03  0.00000000000E+00 0. -1.
         -3    1    6    6    0  503  0.73751601028E+02  0.47585388684E+02 -0.50507898571E+02  0.10126557010E+03  0.00000000000E+00 0.  1.
<mgrwt>
<rscale>  0 0.25285025E+04</rscale>
<asrwt>0</asrwt>
<pdfrwt beam="1">  1        2 0.33958306E+00 0.25285025E+04</pdfrwt>
<pdfrwt beam="2">  1       -1 0.11140227E+00 0.25285025E+04</pdfrwt>
<totfact> 0.38338681E+00</totfact>
</mgrwt>
</event>
<event>
12    6  0.1395358E-007  0.2441871E+04  0.7818608E-02  0.8423992E-01
          2   -1    0    0  501    0  0.00000000000E+00  0.00000000000E+00  0.17718410881E+04  0.17718410881E+04  0.00000000000E+00 0. -1.
         -1   -1    0    0    0  501 -0.00000000000E+00 -0.00000000000E+00 -0.84131863790E+03  0.84131863790E+03  0.00000000000E+00 0.  1.
         24    2    1    2    0    0  0.40012831090E+03  0.81027085618E+03 -0.17392361589E+03  0.92374280608E+03  0.80061364382E+02 0.  0.
        254    2    1    2    0    0 -0.40012831090E+03 -0.81027085618E+03  0.11044460661E+04  0.16894169199E+04  0.90426041095E+03 0.  0.
         23    2    4    4    0    0 -0.17780517585E+03  0.16515615296E+03  0.33920513538E+03  0.42653503942E+03  0.89335214601E+02 0.  0.
         23    2    4    4    0    0 -0.22232313505E+03 -0.97542700913E+03  0.76524093069E+03  0.12628818805E+04  0.91605324608E+02 0.  0.
          4    1    3    3  502    0  0.25866939087E+03  0.54508414732E+03 -0.78674255600E+02  0.60845395876E+03  0.00000000000E+00 0. -1.
         -3    1    3    3    0  502  0.14145892003E+03  0.26518670886E+03 -0.95249360295E+02  0.31528884732E+03  0.00000000000E+00 0.  1.
         11    1    5    5    0    0 -0.15033506003E+03  0.14804768913E+03  0.22770081017E+03  0.31042939211E+03  0.00000000000E+00 0. -1.
        -11    1    5    5    0    0 -0.27470115816E+02  0.17108463822E+02  0.11150432521E+03  0.11610564731E+03  0.00000000000E+00 0.  1.
          4    1    6    6  503    0 -0.25134909395E+02 -0.59105362841E+02  0.26603353062E+02  0.69519392841E+02  0.00000000000E+00 0.  1.
         -4    1    6    6    0  503 -0.19718822565E+03 -0.91632164629E+03  0.73863757763E+03  0.11933624876E+04  0.00000000000E+00 0. -1.
<mgrwt>
<rscale>  0 0.24418705E+04</rscale>
<asrwt>0</asrwt>
<pdfrwt beam="1">  1        2 0.27259094E+00 0.24418705E+04</pdfrwt>
<pdfrwt beam="2">  1       -1 0.12943364E+00 0.24418705E+04</pdfrwt>
<totfact> 0.46793375E+00</totfact>
</mgrwt>
</event>
<event>
12    6  0.1395358E-007  0.2085790E+04  0.7818608E-02  0.8567529E-01
          2   -1    0    0  501    0  0.00000000000E+00  0.00000000000E+00  0.12301355146E+04  0.12301355146E+04  0.00000000000E+00 0. -1.
         -1   -1    0    0    0  501 -0.00000000000E+00 -0.00000000000E+00 -0.88415485207E+03  0.88415485207E+03  0.00000000000E+00 0.  1.
         24    2    1    2    0    0 -0.44216188913E+03  0.72151896220E+03  0.16065103817E+03  0.86500647184E+03  0.79565641217E+02 0.  0.
        254    2    1    2    0    0  0.44216188913E+03 -0.72151896220E+03  0.18532962433E+03  0.12492838948E+04  0.90014800512E+03 0.  0.
         23    2    4    4    0    0  0.52699472120E+03 -0.12866679268E+03 -0.13104949067E+03  0.56560457276E+03  0.91956424546E+02 0.  0.
         23    2    4    4    0    0 -0.84832832067E+02 -0.59285216952E+03  0.31637911500E+03  0.68367932203E+03  0.93012723142E+02 0.  0.
          4    1    3    3  502    0 -0.15816812756E+03  0.29759031768E+03  0.97618462172E+02  0.35086538431E+03  0.00000000000E+00 0. -1.
         -3    1    3    3    0  502 -0.28399376157E+03  0.42392864452E+03  0.63032575997E+02  0.51414108753E+03  0.00000000000E+00 0.  1.
         11    1    5    5    0    0  0.49752722503E+03 -0.13501438449E+03 -0.13994013855E+03  0.53417737320E+03  0.00000000000E+00 0. -1.
        -11    1    5    5    0    0  0.29467496166E+02  0.63475918150E+01  0.88906478805E+01  0.31427199555E+02  0.00000000000E+00 0.  1.
          1    1    6    6  503    0 -0.18419621705E+02 -0.42131017843E+03  0.20866067465E+03  0.47051123904E+03  0.00000000000E+00 0. -1.
         -1    1    6    6    0  503 -0.66413210363E+02 -0.17154199109E+03  0.10771844035E+03  0.21316808299E+03  0.00000000000E+00 0.  1.
<mgrwt>
<rscale>  0 0.20857903E+04</rscale>
<asrwt>0</asrwt>
<pdfrwt beam="1">  1        2 0.18925162E+00 0.20857903E+04</pdfrwt>
<pdfrwt beam="2">  1       -1 0.13602382E+00 0.20857903E+04</pdfrwt>
<totfact> 0.86362262E+00</totfact>
</mgrwt>
</event>
<event>
12    6  0.1395358E-007  0.2042818E+04  0.7818608E-02  0.8586859E-01
         -1   -1    0    0    0  501 -0.00000000000E+00  0.00000000000E+00  0.62663488256E+03  0.62663488256E+03  0.00000000000E+00 0.  1.
          2   -1    0    0  501    0  0.00000000000E+00 -0.00000000000E+00 -0.16648871913E+04  0.16648871913E+04  0.00000000000E+00 0. -1.
         24    2    1    2    0    0 -0.50113208838E+03  0.59606492137E+02  0.30816349553E+03  0.59814578306E+03  0.90151727104E+02 0.  0.
        254    2    1    2    0    0  0.50113208838E+03 -0.59606492137E+02 -0.13464158043E+04  0.16933762908E+04  0.89442799615E+03 0.  0.
         23    2    4    4    0    0  0.71762045601E+03 -0.18616015930E+03 -0.11059370314E+04  0.13347344944E+04  0.93726886296E+02 0.  0.
         23    2    4    4    0    0 -0.21648836763E+03  0.12655366716E+03 -0.24047877283E+03  0.35864179639E+03  0.88942981435E+02 0.  0.
          2    1    3    3  502    0 -0.86555414915E+02  0.20478361138E+02  0.18390880229E+02  0.90826359619E+02  0.00000000000E+00 0. -1.
         -1    1    3    3    0  502 -0.41457667347E+03  0.39128130999E+02  0.28977261530E+03  0.50731942344E+03  0.00000000000E+00 0.  1.
         11    1    5    5    0    0  0.46561537391E+02 -0.49579715098E+01 -0.37024507936E+02  0.59693989929E+02  0.00000000000E+00 0.  1.
        -11    1    5    5    0    0  0.67105891862E+03 -0.18120218779E+03 -0.10689125235E+04  0.12750405045E+04  0.00000000000E+00 0. -1.
          3    1    6    6  503    0 -0.21974194421E+03  0.12966373603E+03 -0.24391557060E+03  0.35297877000E+03  0.00000000000E+00 0. -1.
         -3    1    6    6    0  503  0.32535765801E+01 -0.31100688686E+01  0.34367977786E+01  0.56630263907E+01  0.00000000000E+00 0.  1.
<mgrwt>
<rscale>  0 0.20428180E+04</rscale>
<asrwt>0</asrwt>
<pdfrwt beam="1">  1        2 0.25613649E+00 0.20428180E+04</pdfrwt>
<pdfrwt beam="2">  1       -1 0.96405367E-01 0.20428180E+04</pdfrwt>
<totfact> 0.11206054E+01</totfact>
</mgrwt>
</event>
<event>
12    6  0.1395358E-007  0.1334207E+04  0.7818608E-02  0.9002870E-01
         -3   -1    0    0    0  501 -0.00000000000E+00  0.00000000000E+00  0.23032139509E+03  0.23032139509E+03  0.00000000000E+00 0.  1.
          2   -1    0    0  501    0  0.00000000000E+00 -0.00000000000E+00 -0.19322017786E+04  0.19322017786E+04  0.00000000000E+00 0. -1.
         24    2    1    2    0    0 -0.11173225737E+02  0.27654677480E+03 -0.82319065297E+03  0.87192887446E+03  0.77550959710E+02 0.  0.
        254    2    1    2    0    0  0.11173225737E+02 -0.27654677480E+03 -0.87868973052E+03  0.12905942992E+04  0.90384459007E+03 0.  0.
         23    2    4    4    0    0 -0.39890986135E+03 -0.10297657964E+03 -0.66682533183E+03  0.78900617918E+03  0.90230117900E+02 0.  0.
         23    2    4    4    0    0  0.41008308709E+03 -0.17357019516E+03 -0.21186439869E+03  0.50158812003E+03  0.91702604966E+02 0.  0.
          4    1    3    3  502    0 -0.22598470804E+02  0.19412997648E+03 -0.66587714771E+03  0.69396650819E+03  0.00000000000E+00 0. -1.
         -3    1    3    3    0  502  0.11425245066E+02  0.82416798315E+02 -0.15731350526E+03  0.17796236627E+03  0.00000000000E+00 0.  1.
         11    1    5    5    0    0 -0.32727940052E+03 -0.11686061500E+03 -0.57303747949E+03  0.67017920159E+03  0.00000000000E+00 0.  1.
        -11    1    5    5    0    0 -0.71630460828E+02  0.13884035359E+02 -0.93787852332E+02  0.11882697758E+03  0.00000000000E+00 0. -1.
          1    1    6    6  503    0  0.31758210212E+03 -0.14162331834E+03 -0.12138110676E+03  0.36830548322E+03  0.00000000000E+00 0. -1.
         -1    1    6    6    0  503  0.92500984963E+02 -0.31946876822E+02 -0.90483291929E+02  0.13328263681E+03  0.00000000000E+00 0.  1.
<mgrwt>
<rscale>  0 0.13342075E+04</rscale>
<asrwt>0</asrwt>
<pdfrwt beam="1">  1        2 0.29726180E+00 0.13342075E+04</pdfrwt>
<pdfrwt beam="2">  1       -3 0.35434062E-01 0.13342075E+04</pdfrwt>
<totfact> 0.36239433E+01</totfact>
</mgrwt>
</event>
<event>
12    6  0.1395358E-007  0.1977208E+04  0.7818608E-02  0.8617351E-01
          2   -1    0    0  501    0  0.00000000000E+00  0.00000000000E+00  0.69232675733E+03  0.69232675733E+03  0.00000000000E+00 0. -1.
         -1   -1    0    0    0  501 -0.00000000000E+00 -0.00000000000E+00 -0.14116717829E+04  0.14116717829E+04  0.00000000000E+00 0.  1.
         24    2    1    2    0    0  0.32038028669E+03  0.42788966696E+03 -0.89172041979E+03  0.10428552698E+04  0.81539631802E+02 0.  0.
        254    2    1    2    0    0 -0.32038028669E+03 -0.42788966696E+03  0.17237539421E+03  0.10611432704E+04  0.90032142518E+03 0.  0.
         23    2    4    4    0    0 -0.81093332624E+02 -0.22417839340E+03 -0.35804090214E+03  0.43816321448E+03  0.83436408452E+02 0.  0.
         23    2    4    4    0    0 -0.23928695406E+03 -0.20371127356E+03  0.53041629635E+03  0.62298005593E+03  0.89477222201E+02 0.  0.
          4    1    3    3  502    0  0.16700936074E+03  0.16608746304E+03 -0.34826452499E+03  0.42043471708E+03  0.00000000000E+00 0. -1.
         -3    1    3    3    0  502  0.15337092595E+03  0.26180220391E+03 -0.54345589480E+03  0.62242055275E+03  0.00000000000E+00 0.  1.
         11    1    5    5    0    0 -0.89379616372E+02 -0.13385888762E+03 -0.21070061580E+03  0.26514461548E+03  0.00000000000E+00 0. -1.
        -11    1    5    5    0    0  0.82862837482E+01 -0.90319505781E+02 -0.14734028634E+03  0.17301859900E+03  0.00000000000E+00 0.  1.
          2    1    6    6  503    0 -0.18527240460E+03 -0.17352527716E+03  0.35084082660E+03  0.43304292088E+03  0.00000000000E+00 0. -1.
         -2    1    6    6    0  503 -0.54014549464E+02 -0.30185996393E+02  0.17957546976E+03  0.18993713505E+03  0.00000000000E+00 0.  1.
<mgrwt>
<rscale>  0 0.19772083E+04</rscale>
<asrwt>0</asrwt>
<pdfrwt beam="1">  1        2 0.10651181E+00 0.19772083E+04</pdfrwt>
<pdfrwt beam="2">  1       -1 0.21718027E+00 0.19772083E+04</pdfrwt>
<totfact> 0.50746486E+00</totfact>
</mgrwt>
</event>
<event>
12    6  0.1395358E-007  0.1735939E+04  0.7818608E-02  0.8741129E-01
         -1   -1    0    0    0  501 -0.00000000000E+00  0.00000000000E+00  0.19247853044E+03  0.19247853044E+03  0.00000000000E+00 0.  1.
          2   -1    0    0  501    0  0.00000000000E+00 -0.00000000000E+00 -0.39140512660E+04  0.39140512660E+04  0.00000000000E+00 0. -1.
         24    2    1    2    0    0  0.86675544168E+02 -0.53472452390E+03 -0.59148176548E+03  0.80486565340E+03  0.67194305531E+02 0.  0.
        254    2    1    2    0    0 -0.86675544168E+02  0.53472452390E+03 -0.31300909701E+04  0.33016641431E+04  0.90004092466E+03 0.  0.
         23    2    4    4    0    0 -0.27680102697E+03  0.59615313533E+03 -0.13103838529E+04  0.14689020288E+04  0.92465987937E+02 0.  0.
         23    2    4    4    0    0  0.19012548280E+03 -0.61428611425E+02 -0.18197071172E+04  0.18327621143E+04  0.88101087625E+02 0.  0.
          2    1    3    3  502    0  0.26192618478E+02 -0.21453346420E+03 -0.28360525102E+03  0.35657060862E+03  0.00000000000E+00 0. -1.
         -1    1    3    3    0  502  0.60482925690E+02 -0.32019105970E+03 -0.30787651446E+03  0.44829504478E+03  0.00000000000E+00 0.  1.
         11    1    5    5    0    0 -0.19032644043E+03  0.49636943514E+03 -0.10391408172E+04  0.11672276590E+04  0.00000000000E+00 0.  1.
        -11    1    5    5    0    0 -0.86474586540E+02  0.99783700188E+02 -0.27124303570E+03  0.30167436974E+03  0.00000000000E+00 0. -1.
          1    1    6    6  503    0  0.11638128172E+02  0.18884622825E+02 -0.15229630082E+03  0.15390334060E+03  0.00000000000E+00 0. -1.
         -1    1    6    6    0  503  0.17848735463E+03 -0.80313234250E+02 -0.16674108164E+04  0.16788587737E+04  0.00000000000E+00 0.  1.
<mgrwt>
<rscale>  0 0.17359387E+04</rscale>
<asrwt>0</asrwt>
<pdfrwt beam="1">  1        2 0.60216171E+00 0.17359387E+04</pdfrwt>
<pdfrwt beam="2">  1       -1 0.29612083E-01 0.17359387E+04</pdfrwt>
<totfact> 0.45875864E+00</totfact>
</mgrwt>
</event>
<event>
12    6  0.1395358E-007  0.3596583E+04  0.7818608E-02  0.8091275E-01
         -1   -1    0    0    0  501 -0.00000000000E+00  0.00000000000E+00  0.12374020082E+04  0.12374020082E+04  0.00000000000E+00 0.  1.
          2   -1    0    0  501    0  0.00000000000E+00 -0.00000000000E+00 -0.26134215310E+04  0.26134215310E+04  0.00000000000E+00 0. -1.
         24    2    1    2    0    0 -0.58790059558E+03  0.14986613883E+04 -0.11121089230E+03  0.16157056498E+04  0.80770150897E+02 0.  0.
        254    2    1    2    0    0  0.58790059558E+03 -0.14986613883E+04 -0.12648086306E+04  0.22351178894E+04  0.89688240079E+03 0.  0.
         23    2    4    4    0    0 -0.14818785515E+03 -0.34773106772E+01 -0.12770383104E+03  0.21562757076E+03  0.90638009157E+02 0.  0.
         23    2    4    4    0    0  0.73608845073E+03 -0.14951840776E+04 -0.11371047995E+04  0.20194903187E+04  0.89062837541E+02 0.  0.
          2    1    3    3  502    0 -0.57306821516E+03  0.14848805882E+04 -0.10973366579E+03  0.15954055967E+04  0.00000000000E+00 0. -1.
         -1    1    3    3    0  502 -0.14832380413E+02  0.13780800041E+02 -0.14772265066E+01  0.20300053119E+02  0.00000000000E+00 0.  1.
         11    1    5    5    0    0 -0.83148551203E+02  0.65520690695E+01 -0.14459256934E+02  0.84650347237E+02  0.00000000000E+00 0.  1.
        -11    1    5    5    0    0 -0.65039303951E+02 -0.10029379747E+02 -0.11324457411E+03  0.13097722352E+03  0.00000000000E+00 0. -1.
          1    1    6    6  503    0  0.32041172908E+03 -0.61225657275E+03 -0.42270269203E+03  0.81006132661E+03  0.00000000000E+00 0. -1.
         -1    1    6    6    0  503  0.41567672165E+03 -0.88292750482E+03 -0.71440210748E+03  0.12094289921E+04  0.00000000000E+00 0.  1.
<mgrwt>
<rscale>  0 0.35965834E+04</rscale>
<asrwt>0</asrwt>
<pdfrwt beam="1">  1        2 0.40206485E+00 0.35965834E+04</pdfrwt>
<pdfrwt beam="2">  1       -1 0.19036954E+00 0.35965834E+04</pdfrwt>
<totfact> 0.48612992E-01</totfact>
</mgrwt>
</event>
<event>
12    6  0.1395358E-007  0.2186254E+04  0.7818608E-02  0.8524171E-01
         -1   -1    0    0    0  501 -0.00000000000E+00  0.00000000000E+00  0.26244421196E+03  0.26244421196E+03  0.00000000000E+00 0.  1.
          2   -1    0    0  501    0  0.00000000000E+00 -0.00000000000E+00 -0.45530697698E+04  0.45530697698E+04  0.00000000000E+00 0. -1.
         24    2    1    2    0    0 -0.44869951597E+03  0.70769907064E+03 -0.25390629150E+04  0.26749516248E+04  0.79727527560E+02 0.  0.
        254    2    1    2    0    0  0.44869951597E+03 -0.70769907064E+03 -0.17515626429E+04  0.21405623570E+04  0.90103622678E+03 0.  0.
         23    2    4    4    0    0  0.40556260979E+03  0.89095877506E+02 -0.66979992197E+03  0.79317606936E+03  0.89873442586E+02 0.  0.
         23    2    4    4    0    0  0.43136906178E+02 -0.79679494815E+03 -0.10817627210E+04  0.13473862877E+04  0.92175059852E+02 0.  0.
          4    1    3    3  502    0 -0.12582813862E+03  0.22825116733E+03 -0.89837889748E+03  0.93542287726E+03  0.00000000000E+00 0. -1.
         -3    1    3    3    0  502 -0.32287137734E+03  0.47944790332E+03 -0.16406840175E+04  0.17395287475E+04  0.00000000000E+00 0.  1.
         11    1    5    5    0    0  0.25758326648E+03  0.65443398837E+02 -0.34521096165E+03  0.43566338573E+03  0.00000000000E+00 0.  1.
        -11    1    5    5    0    0  0.14797934331E+03  0.23652478670E+02 -0.32458896032E+03  0.35751268363E+03  0.00000000000E+00 0. -1.
          2    1    6    6  503    0  0.68911936940E+02 -0.68772744063E+03 -0.92714412093E+03  0.11564229800E+04  0.00000000000E+00 0. -1.
         -2    1    6    6    0  503 -0.25775030762E+02 -0.10906750752E+03 -0.15461860002E+03  0.19096330768E+03  0.00000000000E+00 0.  1.
<mgrwt>
<rscale>  0 0.21862542E+04</rscale>
<asrwt>0</asrwt>
<pdfrwt beam="1">  1        2 0.70047229E+00 0.21862542E+04</pdfrwt>
<pdfrwt beam="2">  1       -1 0.40376032E-01 0.21862542E+04</pdfrwt>
<totfact> 0.68836511E-01</totfact>
</mgrwt>
</event>
<event>
12    6  0.1395358E-007  0.2090724E+04  0.7818608E-02  0.8565340E-01
         -1   -1    0    0    0  501 -0.00000000000E+00  0.00000000000E+00  0.13197047320E+04  0.13197047320E+04  0.00000000000E+00 0.  1.
          2   -1    0    0  501    0  0.00000000000E+00 -0.00000000000E+00 -0.82805035999E+03  0.82805035999E+03  0.00000000000E+00 0. -1.
         24    2    1    2    0    0 -0.27379061627E+03  0.73037075980E+03 -0.14256177546E+03  0.79812168398E+03  0.90948415536E+02 0.  0.
        254    2    1    2    0    0  0.27379061627E+03 -0.73037075980E+03  0.63421614751E+03  0.13496334080E+04  0.90048734916E+03 0.  0.
         23    2    4    4    0    0  0.16742387568E+03  0.17834449532E+03  0.21101209250E+03  0.33748771682E+03  0.97643958663E+02 0.  0.
         23    2    4    4    0    0  0.10636674059E+03 -0.90871525512E+03  0.42320405501E+03  0.10121456912E+04  0.90884155268E+02 0.  0.
          2    1    3    3  502    0 -0.19560262213E+03  0.60904052527E+03 -0.13373820953E+03  0.65351102202E+03  0.00000000000E+00 0. -1.
         -1    1    3    3    0  502 -0.78187994139E+02  0.12133023453E+03 -0.88235659353E+01  0.14461066196E+03  0.00000000000E+00 0.  1.
         11    1    5    5    0    0  0.12974118703E+03  0.18410475099E+03  0.18245453922E+03  0.28985685058E+03  0.00000000000E+00 0.  1.
        -11    1    5    5    0    0  0.37682688648E+02 -0.57602556641E+01  0.28557553282E+02  0.47630866237E+02  0.00000000000E+00 0. -1.
          3    1    6    6  503    0  0.12580209994E+02 -0.35570565160E+03  0.12756915507E+03  0.37809874582E+03  0.00000000000E+00 0. -1.
         -3    1    6    6    0  503  0.93786530592E+02 -0.55300960352E+03  0.29563489994E+03  0.63404694540E+03  0.00000000000E+00 0.  1.
<mgrwt>
<rscale>  0 0.20907243E+04</rscale>
<asrwt>0</asrwt>
<pdfrwt beam="1">  1        2 0.12739236E+00 0.20907243E+04</pdfrwt>
<pdfrwt beam="2">  1       -1 0.20303150E+00 0.20907243E+04</pdfrwt>
<totfact> 0.49639934E+00</totfact>
</mgrwt>
</event>
<event>
12    6  0.1395358E-007  0.3314220E+04  0.7818608E-02  0.8159287E-01
          2   -1    0    0  501    0  0.00000000000E+00  0.00000000000E+00  0.17984984965E+04  0.17984984965E+04  0.00000000000E+00 0. -1.
         -1   -1    0    0    0  501 -0.00000000000E+00 -0.00000000000E+00 -0.15268366522E+04  0.15268366522E+04  0.00000000000E+00 0.  1.
         24    2    1    2    0    0  0.85525982217E+03 -0.20268133812E+03  0.13876032028E+04  0.16445288865E+04  0.80520320929E+02 0.  0.
        254    2    1    2    0    0 -0.85525982217E+03  0.20268133812E+03 -0.11159413584E+04  0.16808062621E+04  0.89846284677E+03 0.  0.
         23    2    4    4    0    0  0.13152193670E+03  0.12504622798E+03 -0.20441325556E+02  0.20151033459E+03  0.85170348048E+02 0.  0.
         23    2    4    4    0    0 -0.98678175887E+03  0.77635110134E+02 -0.10955000329E+04  0.14792959275E+04  0.91818675438E+02 0.  0.
          4    1    3    3  502    0  0.12255891349E+03 -0.40048486521E+02  0.25627949412E+03  0.28688629743E+03  0.00000000000E+00 0. -1.
         -3    1    3    3    0  502  0.73270090868E+03 -0.16263285160E+03  0.11313237086E+04  0.13576425891E+04  0.00000000000E+00 0.  1.
         11    1    5    5    0    0  0.95548063968E+02  0.36904857060E+02  0.63146319035E+01  0.10262200338E+03  0.00000000000E+00 0. -1.
        -11    1    5    5    0    0  0.35973872736E+02  0.88141370924E+02 -0.26755957459E+02  0.98888331201E+02  0.00000000000E+00 0.  1.
          4    1    6    6  503    0 -0.80337519462E+03  0.70057440060E+02 -0.83728069503E+03  0.11624795527E+04  0.00000000000E+00 0. -1.
         -4    1    6    6    0  503 -0.18340656425E+03  0.75776700745E+01 -0.25821933787E+03  0.31681637480E+03  0.00000000000E+00 0.  1.
<mgrwt>
<rscale>  0 0.33142199E+04</rscale>
<asrwt>0</asrwt>
<pdfrwt beam="1">  1        2 0.27669208E+00 0.33142199E+04</pdfrwt>
<pdfrwt beam="2">  1       -1 0.23489795E+00 0.33142199E+04</pdfrwt>
<totfact> 0.71894012E-01</totfact>
</mgrwt>
</event>
<event>
12    6  0.1395358E-007  0.1839409E+04  0.7818608E-02  0.8685618E-01
          2   -1    0    0  501    0  0.00000000000E+00  0.00000000000E+00  0.10464750037E+04  0.10464750037E+04  0.00000000000E+00 0. -1.
         -1   -1    0    0    0  501 -0.00000000000E+00 -0.00000000000E+00 -0.80829117177E+03  0.80829117177E+03  0.00000000000E+00 0.  1.
         24    2    1    2    0    0  0.51693013166E+03 -0.43837889579E+03  0.25216510504E+03  0.72777309396E+03  0.81692219944E+02 0.  0.
        254    2    1    2    0    0 -0.51693013166E+03  0.43837889579E+03 -0.13981273122E+02  0.11269930815E+04  0.90029168188E+03 0.  0.
         23    2    4    4    0    0 -0.47552848315E+03 -0.15320101504E+03  0.98614666928E+02  0.51669467626E+03  0.87467974973E+02 0.  0.
         23    2    4    4    0    0 -0.41401648514E+02  0.59157991083E+03 -0.11259594005E+03  0.61029840525E+03  0.90030052390E+02 0.  0.
          4    1    3    3  502    0  0.36505901355E+03 -0.30266035053E+03  0.21527246286E+03  0.52078172436E+03  0.00000000000E+00 0. -1.
         -3    1    3    3    0  502  0.15187111811E+03 -0.13571854526E+03  0.36892642182E+02  0.20699136961E+03  0.00000000000E+00 0.  1.
         11    1    5    5    0    0 -0.15743603205E+03 -0.20510264105E+02  0.60629200880E+02  0.16994903683E+03  0.00000000000E+00 0. -1.
        -11    1    5    5    0    0 -0.31809245110E+03 -0.13269075093E+03  0.37985466048E+02  0.34674563943E+03  0.00000000000E+00 0.  1.
          4    1    6    6  503    0  0.10013313547E+02  0.26188365848E+03 -0.84837913553E+02  0.27546467760E+03  0.00000000000E+00 0. -1.
         -4    1    6    6    0  503 -0.51414962061E+02  0.32969625235E+03 -0.27758026497E+02  0.33483372765E+03  0.00000000000E+00 0.  1.
<mgrwt>
<rscale>  0 0.18394092E+04</rscale>
<asrwt>0</asrwt>
<pdfrwt beam="1">  1        2 0.16099615E+00 0.18394092E+04</pdfrwt>
<pdfrwt beam="2">  1       -1 0.12435249E+00 0.18394092E+04</pdfrwt>
<totfact> 0.14320769E+01</totfact>
</mgrwt>
</event>
<event>
12    6  0.1395358E-007  0.1810766E+04  0.7818608E-02  0.8700595E-01
         -1   -1    0    0    0  501 -0.00000000000E+00  0.00000000000E+00  0.75752618713E+03  0.75752618713E+03  0.00000000000E+00 0.  1.
          2   -1    0    0  501    0  0.00000000000E+00 -0.00000000000E+00 -0.10820988224E+04  0.10820988224E+04  0.00000000000E+00 0. -1.
         24    2    1    2    0    0 -0.59404679768E+03  0.22546066385E+02  0.20998923317E+03  0.63557677658E+03  0.80389289950E+02 0.  0.
        254    2    1    2    0    0  0.59404679768E+03 -0.22546066385E+02 -0.53456186847E+03  0.12040482330E+04  0.90031985047E+03 0.  0.
         23    2    4    4    0    0  0.31636461480E+03  0.42914283096E+03 -0.25352907268E+03  0.59727246294E+03  0.90593959145E+02 0.  0.
         23    2    4    4    0    0  0.27768218288E+03 -0.45168889735E+03 -0.28103279579E+03  0.60677577003E+03  0.89817304064E+02 0.  0.
          4    1    3    3  502    0 -0.38403981732E+03  0.51102888721E+02  0.14834069089E+03  0.41485304277E+03  0.00000000000E+00 0. -1.
         -3    1    3    3    0  502 -0.21000698036E+03 -0.28556822336E+02  0.61648542286E+02  0.22072373382E+03  0.00000000000E+00 0.  1.
         11    1    5    5    0    0  0.32426491645E+02  0.99547404398E+02 -0.34656573957E+02  0.11028255166E+03  0.00000000000E+00 0. -1.
        -11    1    5    5    0    0  0.28393812315E+03  0.32959542656E+03 -0.21887249873E+03  0.48698991128E+03  0.00000000000E+00 0.  1.
          2    1    6    6  503    0  0.18601809117E+03 -0.22398348826E+03 -0.13264848947E+03  0.31994836304E+03  0.00000000000E+00 0. -1.
         -2    1    6    6    0  503  0.91664091715E+02 -0.22770540908E+03 -0.14838430632E+03  0.28682740699E+03  0.00000000000E+00 0.  1.
<mgrwt>
<rscale>  0 0.18107658E+04</rscale>
<asrwt>0</asrwt>
<pdfrwt beam="1">  1        2 0.16647674E+00 0.18107658E+04</pdfrwt>
<pdfrwt beam="2">  1       -1 0.11654249E+00 0.18107658E+04</pdfrwt>
<totfact> 0.15986183E+01</totfact>
</mgrwt>
</event>
<event>
12    6  0.1395358E-007  0.3781718E+04  0.7818608E-02  0.8050089E-01
         -1   -1    0    0    0  501 -0.00000000000E+00  0.00000000000E+00  0.11541429771E+04  0.11541429771E+04  0.00000000000E+00 0.  1.
          2   -1    0    0  501    0  0.00000000000E+00 -0.00000000000E+00 -0.30978386003E+04  0.30978386003E+04  0.00000000000E+00 0. -1.
         24    2    1    2    0    0 -0.59230710754E+03 -0.13685245163E+04  0.17993571226E+03  0.15050325313E+04  0.95178769499E+02 0.  0.
        254    2    1    2    0    0  0.59230710754E+03  0.13685245163E+04 -0.21236313354E+04  0.27469490461E+04  0.90123912031E+03 0.  0.
         23    2    4    4    0    0  0.81986593108E+03  0.10951201604E+04 -0.17428052287E+04  0.22174525080E+04  0.90869409247E+02 0.  0.
         23    2    4    4    0    0 -0.22755882355E+03  0.27340435597E+03 -0.38082610668E+03  0.52949653812E+03  0.93835495999E+02 0.  0.
          2    1    3    3  502    0 -0.31257281293E+03 -0.80304438848E+03  0.13844272411E+03  0.87278201237E+03  0.00000000000E+00 0. -1.
         -1    1    3    3    0  502 -0.27973429461E+03 -0.56548012786E+03  0.41492988148E+02  0.63225051890E+03  0.00000000000E+00 0.  1.
         11    1    5    5    0    0  0.25187010712E+03  0.34804026602E+03 -0.61596950923E+03  0.75099201989E+03  0.00000000000E+00 0.  1.
        -11    1    5    5    0    0  0.56799582397E+03  0.74707989435E+03 -0.11268357195E+04  0.14664604881E+04  0.00000000000E+00 0. -1.
          3    1    6    6  503    0 -0.13261236730E+03  0.22501168601E+03 -0.26395245121E+03  0.37133165136E+03  0.00000000000E+00 0. -1.
         -3    1    6    6    0  503 -0.94946456242E+02  0.48392669960E+02 -0.11687365548E+03  0.15816488676E+03  0.00000000000E+00 0.  1.
<mgrwt>
<rscale>  0 0.37817185E+04</rscale>
<asrwt>0</asrwt>
<pdfrwt beam="1">  1        2 0.47659055E+00 0.37817185E+04</pdfrwt>
<pdfrwt beam="2">  1       -1 0.17756046E+00 0.37817185E+04</pdfrwt>
<totfact> 0.29804841E-01</totfact>
</mgrwt>
</event>
<event>
12    6  0.1395358E-007  0.2086696E+04  0.7818608E-02  0.8567127E-01
          2   -1    0    0  501    0  0.00000000000E+00  0.00000000000E+00  0.13779812330E+04  0.13779812330E+04  0.00000000000E+00 0. -1.
         -1   -1    0    0    0  501 -0.00000000000E+00 -0.00000000000E+00 -0.78997809792E+03  0.78997809792E+03  0.00000000000E+00 0.  1.
         24    2    1    2    0    0 -0.43602362932E+03  0.72833589078E+03  0.24624771677E+03  0.88539888494E+03  0.51994925887E+02 0.  0.
        254    2    1    2    0    0  0.43602362932E+03 -0.72833589078E+03  0.34175541836E+03  0.12825604460E+04  0.89865163251E+03 0.  0.
         23    2    4    4    0    0  0.29159644707E+02 -0.22273455204E+03 -0.28576004170E+03  0.37486518443E+03  0.91674094013E+02 0.  0.
         23    2    4    4    0    0  0.40686398461E+03 -0.50560133874E+03  0.62751546006E+03  0.90769526160E+03  0.94678506534E+02 0.  0.
          2    1    3    3  502    0 -0.21843015522E+03  0.34411042475E+03  0.14287339180E+03  0.43189874185E+03  0.00000000000E+00 0. -1.
         -1    1    3    3    0  502 -0.21759347410E+03  0.38422546603E+03  0.10337432497E+03  0.45350014309E+03  0.00000000000E+00 0.  1.
         11    1    5    5    0    0  0.22097849884E+02 -0.90025607090E+02 -0.52844820957E+02  0.10670285846E+03  0.00000000000E+00 0. -1.
        -11    1    5    5    0    0  0.70617948232E+01 -0.13270894495E+03 -0.23291522074E+03  0.26816232597E+03  0.00000000000E+00 0.  1.
          1    1    6    6  503    0  0.12167707192E+03 -0.90168096143E+02  0.13031903336E+03  0.19979651110E+03  0.00000000000E+00 0. -1.
         -1    1    6    6    0  503  0.28518691269E+03 -0.41543324260E+03  0.49719642671E+03  0.70789875050E+03  0.00000000000E+00 0.  1.
<mgrwt>
<rscale>  0 0.20866959E+04</rscale>
<asrwt>0</asrwt>
<pdfrwt beam="1">  1        2 0.21199711E+00 0.20866959E+04</pdfrwt>
<pdfrwt beam="2">  1       -1 0.12153509E+00 0.20866959E+04</pdfrwt>
<totfact> 0.93987545E+00</totfact>
</mgrwt>
</event>
<event>
12    6  0.1395358E-007  0.3982448E+04  0.7818608E-02  0.8008097E-01
         -1   -1    0    0    0  501 -0.00000000000E+00  0.00000000000E+00  0.10437789186E+04  0.10437789186E+04  0.00000000000E+00 0.  1.
          2   -1    0    0  501    0  0.00000000000E+00 -0.00000000000E+00 -0.37986714587E+04  0.37986714587E+04  0.00000000000E+00 0. -1.
         24    2    1    2    0    0 -0.15718809824E+04  0.83806781057E+03 -0.54440118631E+03  0.18644414075E+04  0.81250430031E+02 0.  0.
        254    2    1    2    0    0  0.15718809824E+04 -0.83806781057E+03 -0.22104913538E+04  0.29780089697E+04  0.89949870526E+03 0.  0.
         23    2    4    4    0    0  0.79516979915E+03 -0.20484153219E+03 -0.42639089948E+03  0.92959254123E+03  0.89877865813E+02 0.  0.
         23    2    4    4    0    0  0.77671118326E+03 -0.63322627838E+03 -0.17841004543E+04  0.20484164285E+04  0.93486104550E+02 0.  0.
          4    1    3    3  502    0 -0.10308055009E+04  0.50805766856E+03 -0.33726572314E+03  0.11976772283E+04  0.00000000000E+00 0. -1.
         -3    1    3    3    0  502 -0.54107548155E+03  0.33001014201E+03 -0.20713546317E+03  0.66676417920E+03  0.00000000000E+00 0.  1.
         11    1    5    5    0    0  0.17699997346E+03 -0.10500971633E+02 -0.75823176001E+02  0.19284298025E+03  0.00000000000E+00 0. -1.
        -11    1    5    5    0    0  0.61816982569E+03 -0.19434056055E+03 -0.35056772348E+03  0.73674956099E+03  0.00000000000E+00 0.  1.
          1    1    6    6  503    0  0.44115107726E+03 -0.38312816408E+03 -0.95223522663E+03  0.11172078544E+04  0.00000000000E+00 0. -1.
         -1    1    6    6    0  503  0.33556010601E+03 -0.25009811430E+03 -0.83186522765E+03  0.93120857411E+03  0.00000000000E+00 0.  1.
<mgrwt>
<rscale>  0 0.39824481E+04</rscale>
<asrwt>0</asrwt>
<pdfrwt beam="1">  1        2 0.58441098E+00 0.39824481E+04</pdfrwt>
<pdfrwt beam="2">  1       -1 0.16058138E+00 0.39824481E+04</pdfrwt>
<totfact> 0.12727895E-01</totfact>
</mgrwt>
</event>
<event>
12    6  0.1395358E-007  0.1670957E+04  0.7818608E-02  0.8778104E-01
          2   -1    0    0  501    0  0.00000000000E+00  0.00000000000E+00  0.41419531466E+03  0.41419531466E+03  0.00000000000E+00 0. -1.
         -1   -1    0    0    0  501 -0.00000000000E+00 -0.00000000000E+00 -0.16852536712E+04  0.16852536712E+04  0.00000000000E+00 0.  1.
         24    2    1    2    0    0 -0.54609941662E+03 -0.99306484868E+02 -0.70363449138E+03  0.89980108757E+03  0.80337718154E+02 0.  0.
        254    2    1    2    0    0  0.54609941662E+03  0.99306484868E+02 -0.56742386516E+03  0.11996478983E+04  0.89949924201E+03 0.  0.
         23    2    4    4    0    0  0.60901375096E+03 -0.23953985234E+03 -0.20543438589E+03  0.69155304995E+03  0.88120623446E+02 0.  0.
         23    2    4    4    0    0 -0.62914334340E+02  0.33884633721E+03 -0.36198947927E+03  0.50809484835E+03  0.91372523852E+02 0.  0.
          4    1    3    3  502    0 -0.24346003710E+03 -0.97380143611E+01 -0.34015318412E+03  0.41841583055E+03  0.00000000000E+00 0. -1.
         -3    1    3    3    0  502 -0.30263937952E+03 -0.89568470507E+02 -0.36348130726E+03  0.48138525702E+03  0.00000000000E+00 0.  1.
         11    1    5    5    0    0  0.18740488094E+03 -0.10291590307E+03 -0.34656360061E+02  0.21659486559E+03  0.00000000000E+00 0. -1.
        -11    1    5    5    0    0  0.42160887002E+03 -0.13662394927E+03 -0.17077802583E+03  0.47495818437E+03  0.00000000000E+00 0.  1.
          3    1    6    6  503    0  0.65019224170E+01  0.11704048582E+02 -0.46321805340E+02  0.48217936479E+02  0.00000000000E+00 0. -1.
         -3    1    6    6    0  503 -0.69416256756E+02  0.32714228862E+03 -0.31566767393E+03  0.45987691187E+03  0.00000000000E+00 0.  1.
<mgrwt>
<rscale>  0 0.16709568E+04</rscale>
<asrwt>0</asrwt>
<pdfrwt beam="1">  1        2 0.63722357E-01 0.16709568E+04</pdfrwt>
<pdfrwt beam="2">  1       -1 0.25926979E+00 0.16709568E+04</pdfrwt>
<totfact> 0.50596368E+00</totfact>
</mgrwt>
</event>
<event>
12    6  0.1395358E-007  0.1826648E+04  0.7818608E-02  0.8692255E-01
         -3   -1    0    0    0  501 -0.00000000000E+00  0.00000000000E+00  0.19632176026E+04  0.19632176026E+04  0.00000000000E+00 0.  1.
          2   -1    0    0  501    0  0.00000000000E+00 -0.00000000000E+00 -0.42489480441E+03  0.42489480441E+03  0.00000000000E+00 0. -1.
         24    2    1    2    0    0 -0.21576507768E+03 -0.65300152326E+03  0.67463331603E+03  0.96637154767E+03  0.76015122966E+02 0.  0.
        254    2    1    2    0    0  0.21576507768E+03  0.65300152326E+03  0.86368948220E+03  0.14217408594E+04  0.89578010219E+03 0.  0.
         23    2    4    4    0    0 -0.54560980508E+02 -0.13865966112E+03  0.45315170201E+03  0.48576297136E+03  0.91737653620E+02 0.  0.
         23    2    4    4    0    0  0.27032605819E+03  0.79166118438E+03  0.41053778019E+03  0.93597788803E+03  0.87805064429E+02 0.  0.
          2    1    3    3  502    0 -0.14568315552E+03 -0.32190678184E+03  0.33469517753E+03  0.48669129831E+03  0.00000000000E+00 0. -1.
         -1    1    3    3    0  502 -0.70081922158E+02 -0.33109474142E+03  0.33993813850E+03  0.47968024935E+03  0.00000000000E+00 0.  1.
         11    1    5    5    0    0 -0.77088851213E+02 -0.11319146909E+03  0.31488281415E+03  0.34337470248E+03  0.00000000000E+00 0. -1.
        -11    1    5    5    0    0  0.22527870705E+02 -0.25468192028E+02  0.13826888786E+03  0.14238826888E+03  0.00000000000E+00 0.  1.
          2    1    6    6  503    0  0.11968693529E+03  0.23191447064E+03  0.14244724401E+03  0.29732221830E+03  0.00000000000E+00 0. -1.
         -2    1    6    6    0  503  0.15063912289E+03  0.55974671374E+03  0.26809053618E+03  0.63865566973E+03  0.00000000000E+00 0.  1.
<mgrwt>
<rscale>  0 0.18266483E+04</rscale>
<asrwt>0</asrwt>
<pdfrwt beam="1">  1        2 0.65368433E-01 0.18266483E+04</pdfrwt>
<pdfrwt beam="2">  1       -3 0.30203347E+00 0.18266483E+04</pdfrwt>
<totfact> 0.16142315E+00</totfact>
</mgrwt>
</event>
<event>
12    6  0.1395358E-007  0.1911484E+04  0.7818608E-02  0.8649161E-01
          2   -1    0    0  501    0  0.00000000000E+00  0.00000000000E+00  0.11126548128E+04  0.11126548128E+04  0.00000000000E+00 0. -1.
         -1   -1    0    0    0  501 -0.00000000000E+00 -0.00000000000E+00 -0.82095823760E+03  0.82095823760E+03  0.00000000000E+00 0.  1.
         24    2    1    2    0    0  0.23049451653E+03 -0.42369518289E+03  0.68213796574E+03  0.83816911347E+03  0.67601245013E+02 0.  0.
        254    2    1    2    0    0 -0.23049451653E+03  0.42369518289E+03 -0.39044139052E+03  0.10954439369E+04  0.90272233238E+03 0.  0.
         23    2    4    4    0    0  0.96529455471E+02  0.53605897830E+02  0.24604204273E+03  0.28455856323E+03  0.90803970523E+02 0.  0.
         23    2    4    4    0    0 -0.32702397200E+03  0.37008928506E+03 -0.63648343325E+03  0.81088537371E+03  0.92266848379E+02 0.  0.
          2    1    3    3  502    0  0.11826896146E+03 -0.27072698374E+03  0.45085290294E+03  0.53902596140E+03  0.00000000000E+00 0. -1.
         -1    1    3    3    0  502  0.11222555507E+03 -0.15296819915E+03  0.23128506280E+03  0.29914315208E+03  0.00000000000E+00 0.  1.
         11    1    5    5    0    0  0.51638594406E+02 -0.13910676605E+02  0.14781527145E+03  0.15719225753E+03  0.00000000000E+00 0.  1.
        -11    1    5    5    0    0  0.44890861065E+02  0.67516574435E+02  0.98226771280E+02  0.12736630570E+03  0.00000000000E+00 0. -1.
          3    1    6    6  503    0 -0.21295722729E+03  0.17644007288E+03 -0.32410193874E+03  0.42605627172E+03  0.00000000000E+00 0. -1.
         -3    1    6    6    0  503 -0.11406674471E+03  0.19364921218E+03 -0.31238149451E+03  0.38482910199E+03  0.00000000000E+00 0.  1.
<mgrwt>
<rscale>  0 0.19114844E+04</rscale>
<asrwt>0</asrwt>
<pdfrwt beam="1">  1        2 0.17117766E+00 0.19114844E+04</pdfrwt>
<pdfrwt beam="2">  1       -1 0.12630127E+00 0.19114844E+04</pdfrwt>
<totfact> 0.12453991E+01</totfact>
</mgrwt>
</event>
<event>
12    6  0.1395358E-007  0.3006083E+04  0.7818608E-02  0.8241996E-01
         -1   -1    0    0    0  501 -0.00000000000E+00  0.00000000000E+00  0.66336509292E+03  0.66336509292E+03  0.00000000000E+00 0.  1.
          2   -1    0    0  501    0  0.00000000000E+00 -0.00000000000E+00 -0.34055661955E+04  0.34055661955E+04  0.00000000000E+00 0. -1.
         24    2    1    2    0    0  0.48509786325E+03  0.51839840435E+03 -0.28312678183E+04  0.29199633207E+04  0.77791340294E+02 0.  0.
        254    2    1    2    0    0 -0.48509786325E+03 -0.51839840435E+03  0.89066715742E+02  0.11489679677E+04  0.89896477597E+03 0.  0.
         23    2    4    4    0    0 -0.69600331418E+03 -0.38650467422E+03  0.24962749914E+03  0.83981022587E+03  0.95712332609E+02 0.  0.
         23    2    4    4    0    0  0.21090545092E+03 -0.13189373013E+03 -0.16056078340E+03  0.30915774185E+03  0.89003813977E+02 0.  0.
          2    1    3    3  502    0  0.39833420118E+03  0.41418666364E+03 -0.24022364054E+04  0.24700122420E+04  0.00000000000E+00 0. -1.
         -1    1    3    3    0  502  0.86763662075E+02  0.10421174071E+03 -0.42903141286E+03  0.44995107865E+03  0.00000000000E+00 0.  1.
         11    1    5    5    0    0 -0.27358658780E+03 -0.20597417326E+03  0.10963294247E+03  0.35957525380E+03  0.00000000000E+00 0. -1.
        -11    1    5    5    0    0 -0.42241672638E+03 -0.18053050097E+03  0.13999455667E+03  0.48023497207E+03  0.00000000000E+00 0.  1.
          4    1    6    6  503    0  0.14325703108E+03 -0.57394342626E+02 -0.13569923828E+03  0.20550175373E+03  0.00000000000E+00 0. -1.
         -4    1    6    6    0  503  0.67648419847E+02 -0.74499387505E+02 -0.24861545120E+02  0.10365598812E+03  0.00000000000E+00 0.  1.
<mgrwt>
<rscale>  0 0.30060830E+04</rscale>
<asrwt>0</asrwt>
<pdfrwt beam="1">  1        2 0.52393326E+00 0.30060830E+04</pdfrwt>
<pdfrwt beam="2">  1       -1 0.10205617E+00 0.30060830E+04</pdfrwt>
<totfact> 0.83477485E-01</totfact>
</mgrwt>
</event>
<event>
12    6  0.1395358E-007  0.2079877E+04  0.7818608E-02  0.8570160E-01
          2   -1    0    0  501    0  0.00000000000E+00  0.00000000000E+00  0.16920616993E+04  0.16920616993E+04  0.00000000000E+00 0. -1.
         -1   -1    0    0    0  501 -0.00000000000E+00 -0.00000000000E+00 -0.63914488837E+03  0.63914488837E+03  0.00000000000E+00 0.  1.
         24    2    1    2    0    0 -0.88700480864E+02  0.77904983083E+03  0.77656228633E+03  0.11065191351E+04  0.80927113061E+02 0.  0.
        254    2    1    2    0    0  0.88700480864E+02 -0.77904983083E+03  0.27635452463E+03  0.12246874526E+04  0.89927810992E+03 0.  0.
         23    2    4    4    0    0 -0.27040791227E+03  0.80921012791E+01 -0.66425952448E+02  0.29004035203E+03  0.80777952010E+02 0.  0.
         23    2    4    4    0    0  0.35910839313E+03 -0.78714193211E+03  0.34278047708E+03  0.93464710054E+03  0.86691912970E+02 0.  0.
          4    1    3    3  502    0 -0.29277934076E+02  0.90581354620E+02  0.12148122917E+03  0.15433686621E+03  0.00000000000E+00 0. -1.
         -3    1    3    3    0  502 -0.59422546789E+02  0.68846847621E+03  0.65508105715E+03  0.95218226892E+03  0.00000000000E+00 0.  1.
         11    1    5    5    0    0 -0.17029109578E+03 -0.35366383228E+01 -0.80287000174E+02  0.18830179901E+03  0.00000000000E+00 0.  1.
        -11    1    5    5    0    0 -0.10011681648E+03  0.11628739602E+02  0.13861047727E+02  0.10173855303E+03  0.00000000000E+00 0. -1.
          3    1    6    6  503    0  0.12032242677E+03 -0.34292040324E+03  0.11425146368E+03  0.38095312874E+03  0.00000000000E+00 0. -1.
         -3    1    6    6    0  503  0.23878596636E+03 -0.44422152887E+03  0.22852901340E+03  0.55369397180E+03  0.00000000000E+00 0.  1.
<mgrwt>
<rscale>  0 0.20798775E+04</rscale>
<asrwt>0</asrwt>
<pdfrwt beam="1">  1        2 0.26031718E+00 0.20798775E+04</pdfrwt>
<pdfrwt beam="2">  1       -1 0.98329984E-01 0.20798775E+04</pdfrwt>
<totfact> 0.10315689E+01</totfact>
</mgrwt>
</event>
<event>
12    6  0.1395358E-007  0.2863847E+04  0.7818608E-02  0.8283716E-01
          2   -1    0    0  501    0  0.00000000000E+00  0.00000000000E+00  0.12802935409E+04  0.12802935409E+04  0.00000000000E+00 0. -1.
         -1   -1    0    0    0  501 -0.00000000000E+00 -0.00000000000E+00 -0.16015112276E+04  0.16015112276E+04  0.00000000000E+00 0.  1.
         24    2    1    2    0    0 -0.90548675581E+03 -0.16532384200E+03 -0.10534037686E+04  0.14011875340E+04  0.80179598440E+02 0.  0.
        254    2    1    2    0    0  0.90548675581E+03  0.16532384200E+03  0.73218608186E+03  0.14806172345E+04  0.89938462242E+03 0.  0.
         23    2    4    4    0    0 -0.13300927985E+03  0.28735063974E+02  0.30035944635E+03  0.34409841290E+03  0.98339963001E+02 0.  0.
         23    2    4    4    0    0  0.10384960357E+04  0.13658877802E+03  0.43182663551E+03  0.11365188216E+04  0.89834728391E+02 0.  0.
          2    1    3    3  502    0 -0.67377206344E+03 -0.15384204640E+03 -0.76242817236E+03  0.10290446476E+04  0.00000000000E+00 0. -1.
         -1    1    3    3    0  502 -0.23171469237E+03 -0.11481795603E+02 -0.29097559623E+03  0.37214288639E+03  0.00000000000E+00 0.  1.
         11    1    5    5    0    0 -0.85901637567E+02 -0.28325464808E+02  0.19912044296E+03  0.21870156401E+03  0.00000000000E+00 0.  1.
        -11    1    5    5    0    0 -0.47107642280E+02  0.57060528782E+02  0.10123900339E+03  0.12539684889E+03  0.00000000000E+00 0. -1.
          1    1    6    6  503    0  0.52548731044E+03  0.53760342446E+02  0.26335265805E+03  0.59023868931E+03  0.00000000000E+00 0. -1.
         -1    1    6    6    0  503  0.51300872521E+03  0.82828435579E+02  0.16847397746E+03  0.54628013232E+03  0.00000000000E+00 0.  1.
<mgrwt>
<rscale>  0 0.28638467E+04</rscale>
<asrwt>0</asrwt>
<pdfrwt beam="1">  1        2 0.19696824E+00 0.28638467E+04</pdfrwt>
<pdfrwt beam="2">  1       -1 0.24638634E+00 0.28638467E+04</pdfrwt>
<totfact> 0.12324100E+00</totfact>
</mgrwt>
</event>
<event>
12    6  0.1395358E-007  0.2142167E+04  0.7818608E-02  0.8542892E-01
         -1   -1    0    0    0  501 -0.00000000000E+00  0.00000000000E+00  0.16630360913E+04  0.16630360913E+04  0.00000000000E+00 0.  1.
          2   -1    0    0  501    0  0.00000000000E+00 -0.00000000000E+00 -0.68983489765E+03  0.68983489765E+03  0.00000000000E+00 0. -1.
         24    2    1    2    0    0 -0.27608106331E+03 -0.58374308160E+03 -0.25480155799E+03  0.69878117722E+03  0.79965998054E+02 0.  0.
        254    2    1    2    0    0  0.27608106331E+03  0.58374308160E+03  0.12280027516E+04  0.16540898117E+04  0.90058070618E+03 0.  0.
         23    2    4    4    0    0  0.22277179058E+03  0.33552755872E+03  0.17203173380E+02  0.41366478295E+03  0.92825589885E+02 0.  0.
         23    2    4    4    0    0  0.53309272733E+02  0.24821552288E+03  0.12107995782E+04  0.12404250287E+04  0.90364865612E+02 0.  0.
          4    1    3    3  502    0 -0.12390640287E+02 -0.49513203852E+02 -0.42179056927E+02  0.66212975810E+02  0.00000000000E+00 0. -1.
         -3    1    3    3    0  502 -0.26369042303E+03 -0.53422987775E+03 -0.21262250106E+03  0.63256820141E+03  0.00000000000E+00 0.  1.
         11    1    5    5    0    0  0.87614145883E+02  0.14031224744E+03  0.52648322377E+02  0.17359611514E+03  0.00000000000E+00 0. -1.
        -11    1    5    5    0    0  0.13515764470E+03  0.19521531128E+03 -0.35445148997E+02  0.24006866781E+03  0.00000000000E+00 0.  1.
          2    1    6    6  503    0 -0.13351840417E+02  0.14702713389E+03  0.70831154124E+03  0.72353333662E+03  0.00000000000E+00 0. -1.
         -2    1    6    6    0  503  0.66661113149E+02  0.10118838898E+03  0.50248803697E+03  0.51689169211E+03  0.00000000000E+00 0.  1.
<mgrwt>
<rscale>  0 0.21421674E+04</rscale>
<asrwt>0</asrwt>
<pdfrwt beam="1">  1        2 0.10612845E+00 0.21421674E+04</pdfrwt>
<pdfrwt beam="2">  1       -1 0.25585171E+00 0.21421674E+04</pdfrwt>
<totfact> 0.27935459E+00</totfact>
</mgrwt>
</event>
<event>
12    6  0.1395358E-007  0.4497280E+04  0.7818608E-02  0.7911113E-01
          2   -1    0    0  501    0  0.00000000000E+00  0.00000000000E+00  0.20724728090E+04  0.20724728090E+04  0.00000000000E+00 0. -1.
         -1   -1    0    0    0  501 -0.00000000000E+00 -0.00000000000E+00 -0.24397819004E+04  0.24397819004E+04  0.00000000000E+00 0.  1.
         24    2    1    2    0    0  0.11120492458E+04 -0.14710610821E+04  0.94829281839E+03  0.20751633791E+04  0.79809449053E+02 0.  0.
        254    2    1    2    0    0 -0.11120492458E+04  0.14710610821E+04 -0.13156019098E+04  0.24370913303E+04  0.89885011814E+03 0.  0.
         23    2    4    4    0    0 -0.83885097487E+03  0.75177579859E+03 -0.31858873505E+03  0.11742142936E+04  0.91883708422E+02 0.  0.
         23    2    4    4    0    0 -0.27319827095E+03  0.71928528355E+03 -0.99701317472E+03  0.12628770367E+04  0.93885701194E+02 0.  0.
          2    1    3    3  502    0  0.24715924498E+03 -0.28722073909E+03  0.17073631829E+03  0.41561320447E+03  0.00000000000E+00 0. -1.
         -1    1    3    3    0  502  0.86489000084E+03 -0.11838403430E+04  0.77755650009E+03  0.16595501747E+04  0.00000000000E+00 0.  1.
         11    1    5    5    0    0 -0.70639643816E+03  0.63729396922E+03 -0.23382090460E+03  0.97969982468E+03  0.00000000000E+00 0.  1.
        -11    1    5    5    0    0 -0.13245453671E+03  0.11448182937E+03 -0.84767830451E+02  0.19451446895E+03  0.00000000000E+00 0. -1.
          2    1    6    6  503    0 -0.57237690598E+02  0.17728111286E+03 -0.30870721946E+03  0.36056191362E+03  0.00000000000E+00 0. -1.
         -2    1    6    6    0  503 -0.21596058035E+03  0.54200417070E+03 -0.68830595526E+03  0.90231512309E+03  0.00000000000E+00 0.  1.
<mgrwt>
<rscale>  0 0.44972799E+04</rscale>
<asrwt>0</asrwt>
<pdfrwt beam="1">  1        2 0.31884197E+00 0.44972799E+04</pdfrwt>
<pdfrwt beam="2">  1       -1 0.37535106E+00 0.44972799E+04</pdfrwt>
<totfact> 0.55217411E-02</totfact>
</mgrwt>
</event>
<event>
12    6  0.1395358E-007  0.2876037E+04  0.7818608E-02  0.8280043E-01
         -1   -1    0    0    0  501 -0.00000000000E+00  0.00000000000E+00  0.11643575233E+04  0.11643575233E+04  0.00000000000E+00 0.  1.
          2   -1    0    0  501    0  0.00000000000E+00 -0.00000000000E+00 -0.17759987755E+04  0.17759987755E+04  0.00000000000E+00 0. -1.
         24    2    1    2    0    0  0.12623108612E+04 -0.54544990564E+02 -0.57230536560E+03  0.13893282839E+04  0.79345967244E+02 0.  0.
        254    2    1    2    0    0 -0.12623108612E+04  0.54544990564E+02 -0.39335886654E+02  0.15510280150E+04  0.89874174538E+03 0.  0.
         23    2    4    4    0    0 -0.25528641644E+03  0.38238918169E+03  0.99650134516E+02  0.47896675215E+03  0.89924188455E+02 0.  0.
         23    2    4    4    0    0 -0.10070244448E+04 -0.32784419112E+03 -0.13898602117E+03  0.10720612628E+04  0.91750700922E+02 0.  0.
          4    1    3    3  502    0  0.54670414441E+03 -0.44758903119E+02 -0.28483402219E+03  0.61807701877E+03  0.00000000000E+00 0. -1.
         -3    1    3    3    0  502  0.71560671680E+03 -0.97860874458E+01 -0.28747134341E+03  0.77125126510E+03  0.00000000000E+00 0.  1.
         11    1    5    5    0    0 -0.39467112265E+02  0.13176324948E+03  0.22989949337E+02  0.13945517070E+03  0.00000000000E+00 0. -1.
        -11    1    5    5    0    0 -0.21581930418E+03  0.25062593220E+03  0.76660185179E+02  0.33951158145E+03  0.00000000000E+00 0.  1.
          3    1    6    6  503    0 -0.20010105692E+03 -0.28808559798E+02 -0.36440851362E+02  0.20542225231E+03  0.00000000000E+00 0. -1.
         -3    1    6    6    0  503 -0.80692338785E+03 -0.29903563132E+03 -0.10254516981E+03  0.86663901050E+03  0.00000000000E+00 0.  1.
<mgrwt>
<rscale>  0 0.28760372E+04</rscale>
<asrwt>0</asrwt>
<pdfrwt beam="1">  1        2 0.27323058E+00 0.28760372E+04</pdfrwt>
<pdfrwt beam="2">  1       -1 0.17913193E+00 0.28760372E+04</pdfrwt>
<totfact> 0.18488833E+00</totfact>
</mgrwt>
</event>
<event>
12    6  0.1395358E-007  0.2264230E+04  0.7818608E-02  0.8492160E-01
         -1   -1    0    0    0  501 -0.00000000000E+00  0.00000000000E+00  0.58083523041E+03  0.58083523041E+03  0.00000000000E+00 0.  1.
          2   -1    0    0  501    0  0.00000000000E+00 -0.00000000000E+00 -0.22066230777E+04  0.22066230777E+04  0.00000000000E+00 0. -1.
         24    2    1    2    0    0  0.59905796204E+01  0.90705523342E+03 -0.10378918313E+04  0.13807813075E+04  0.80947402639E+02 0.  0.
        254    2    1    2    0    0 -0.59905796204E+01 -0.90705523342E+03 -0.58789601596E+03  0.14066770007E+04  0.90018518932E+03 0.  0.
         23    2    4    4    0    0 -0.12422249091E+03 -0.10457749099E+04 -0.57105639849E+03  0.12015835088E+04  0.92850034075E+02 0.  0.
         23    2    4    4    0    0  0.11823191129E+03  0.13871967651E+03 -0.16839617464E+02  0.20509349188E+03  0.92508562827E+02 0.  0.
          4    1    3    3  502    0  0.96030355151E+01  0.61570956846E+03 -0.75981903993E+03  0.97801608597E+03  0.00000000000E+00 0. -1.
         -3    1    3    3    0  502 -0.36124558947E+01  0.29134566496E+03 -0.27807279141E+03  0.40276522150E+03  0.00000000000E+00 0.  1.
         11    1    5    5    0    0  0.84002605535E+00 -0.22348102834E+03 -0.91499541050E+02  0.24148838830E+03  0.00000000000E+00 0. -1.
        -11    1    5    5    0    0 -0.12506251697E+03 -0.82229388159E+03 -0.47955685744E+03  0.96009512048E+03  0.00000000000E+00 0.  1.
          3    1    6    6  503    0  0.10159159018E+03  0.54871810535E+02 -0.28204628015E+02  0.11885818368E+03  0.00000000000E+00 0. -1.
         -3    1    6    6    0  503  0.16640321110E+02  0.83847865971E+02  0.11365010550E+02  0.86235308194E+02  0.00000000000E+00 0.  1.
<mgrwt>
<rscale>  0 0.22642300E+04</rscale>
<asrwt>0</asrwt>
<pdfrwt beam="1">  1        2 0.33948047E+00 0.22642300E+04</pdfrwt>
<pdfrwt beam="2">  1       -1 0.89359266E-01 0.22642300E+04</pdfrwt>
<totfact> 0.64999172E+00</totfact>
</mgrwt>
</event>
<event>
12    6  0.1395358E-007  0.2105790E+04  0.7818608E-02  0.8558697E-01
         -1   -1    0    0    0  501 -0.00000000000E+00  0.00000000000E+00  0.43409187098E+03  0.43409187098E+03  0.00000000000E+00 0.  1.
          2   -1    0    0  501    0  0.00000000000E+00 -0.00000000000E+00 -0.25538083471E+04  0.25538083471E+04  0.00000000000E+00 0. -1.
         24    2    1    2    0    0  0.30510834472E+03  0.76511313405E+03 -0.12021073244E+04  0.14592375900E+04  0.76309335568E+02 0.  0.
        254    2    1    2    0    0 -0.30510834472E+03 -0.76511313405E+03 -0.91760915170E+03  0.15286626281E+04  0.90350078324E+03 0.  0.
         23    2    4    4    0    0  0.24502500630E+02 -0.43829642921E+03 -0.95441556519E+03  0.10545586082E+04  0.92090470188E+02 0.  0.
         23    2    4    4    0    0 -0.32961084535E+03 -0.32681670485E+03  0.36806413484E+02  0.47410401987E+03  0.89260526816E+02 0.  0.
          4    1    3    3  502    0  0.10864165151E+03  0.27382327560E+03 -0.49591199554E+03  0.57681097599E+03  0.00000000000E+00 0. -1.
         -1    1    3    3    0  502  0.19646669321E+03  0.49128985846E+03 -0.70619532886E+03  0.88242661399E+03  0.00000000000E+00 0.  1.
         11    1    5    5    0    0 -0.59807658895E+01 -0.39662139303E+03 -0.85503257931E+03  0.94256300090E+03  0.00000000000E+00 0.  1.
        -11    1    5    5    0    0  0.30483266520E+02 -0.41675036180E+02 -0.99382985872E+02  0.11199560732E+03  0.00000000000E+00 0. -1.
          1    1    6    6  503    0 -0.62237371552E+02 -0.20849253222E+02  0.14133808172E+02  0.67141241506E+02  0.00000000000E+00 0. -1.
         -1    1    6    6    0  503 -0.26737347380E+03 -0.30596745162E+03  0.22672605312E+02  0.40696277837E+03  0.00000000000E+00 0.  1.
<mgrwt>
<rscale>  0 0.21057896E+04</rscale>
<asrwt>0</asrwt>
<pdfrwt beam="1">  1        2 0.39289358E+00 0.21057896E+04</pdfrwt>
<pdfrwt beam="2">  1       -1 0.66783366E-01 0.21057896E+04</pdfrwt>
<totfact> 0.77162693E+00</totfact>
</mgrwt>
</event>
<event>
12    6  0.1395358E-007  0.3014104E+04  0.7818608E-02  0.8239715E-01
         -1   -1    0    0    0  501 -0.00000000000E+00  0.00000000000E+00  0.10973203775E+04  0.10973203775E+04  0.00000000000E+00 0.  1.
          2   -1    0    0  501    0  0.00000000000E+00 -0.00000000000E+00 -0.20697746941E+04  0.20697746941E+04  0.00000000000E+00 0. -1.
         24    2    1    2    0    0 -0.10859307018E+03  0.54057165179E+03 -0.17630191944E+04  0.18490420295E+04  0.81912036496E+02 0.  0.
        254    2    1    2    0    0  0.10859307018E+03 -0.54057165179E+03  0.79056487777E+03  0.13180530421E+04  0.89903327537E+03 0.  0.
         23    2    4    4    0    0  0.82493034241E+02 -0.58587110455E+03  0.95280518826E+03  0.11254010674E+04  0.92950437843E+02 0.  0.
         23    2    4    4    0    0  0.26100035938E+02  0.45299452761E+02 -0.16224031049E+03  0.19265197470E+03  0.89775345787E+02 0.  0.
          4    1    3    3  502    0 -0.89858307189E+02  0.24066494076E+03 -0.82331307263E+03  0.86246074963E+03  0.00000000000E+00 0. -1.
         -3    1    3    3    0  502 -0.18734762990E+02  0.29990671102E+03 -0.93970612172E+03  0.98658127991E+03  0.00000000000E+00 0.  1.
         11    1    5    5    0    0  0.82570987098E+02 -0.58297430123E+03  0.91878366834E+03  0.10912563553E+04  0.00000000000E+00 0.  1.
        -11    1    5    5    0    0 -0.77952856745E-01 -0.28968033205E+01  0.34021519918E+02  0.34144712089E+02  0.00000000000E+00 0. -1.
          4    1    6    6  503    0  0.85305388859E+01 -0.15060641069E+02  0.13866217807E+01  0.17364208103E+02  0.00000000000E+00 0. -1.
         -4    1    6    6    0  503  0.17569497052E+02  0.60360093831E+02 -0.16362693227E+03  0.17528776659E+03  0.00000000000E+00 0.  1.
<mgrwt>
<rscale>  0 0.30141041E+04</rscale>
<asrwt>0</asrwt>
<pdfrwt beam="1">  1        2 0.31842688E+00 0.30141041E+04</pdfrwt>
<pdfrwt beam="2">  1       -1 0.16881852E+00 0.30141041E+04</pdfrwt>
<totfact> 0.14913956E+00</totfact>
</mgrwt>
</event>
<event>
12    6  0.1395358E-007  0.1232799E+04  0.7818608E-02  0.9084622E-01
          2   -1    0    0  501    0  0.00000000000E+00  0.00000000000E+00  0.14152139728E+04  0.14152139728E+04  0.00000000000E+00 0. -1.
         -1   -1    0    0    0  501 -0.00000000000E+00 -0.00000000000E+00 -0.26847427220E+03  0.26847427220E+03  0.00000000000E+00 0.  1.
         24    2    1    2    0    0  0.22890311911E+03  0.63624809084E+02  0.78685797134E+02  0.26835260557E+03  0.96834456544E+02 0.  0.
        254    2    1    2    0    0 -0.22890311911E+03 -0.63624809084E+02  0.10680539034E+04  0.14153356394E+04  0.89777005812E+03 0.  0.
         23    2    4    4    0    0 -0.44793279436E+03  0.11548856884E+03  0.10066502638E+04  0.11115775142E+04  0.90985816286E+02 0.  0.
         23    2    4    4    0    0  0.21902967525E+03 -0.17911337792E+03  0.61403639653E+02  0.30375812517E+03  0.91885748931E+02 0.  0.
          4    1    3    3  502    0  0.85367564041E+01  0.21603511078E+02 -0.12278944659E+02  0.26274709946E+02  0.00000000000E+00 0. -1.
         -3    1    3    3    0  502  0.22036636271E+03  0.42021298006E+02  0.90964741793E+02  0.24207789562E+03  0.00000000000E+00 0.  1.
         11    1    5    5    0    0 -0.11115142054E+03 -0.90079962846E+01  0.21076695194E+03  0.23845018413E+03  0.00000000000E+00 0. -1.
        -11    1    5    5    0    0 -0.33678137383E+03  0.12449656512E+03  0.79588331186E+03  0.87312733010E+03  0.00000000000E+00 0.  1.
          2    1    6    6  503    0  0.87131744550E+02 -0.95235439445E+02  0.70697382411E+02  0.14717285658E+03  0.00000000000E+00 0.  1.
         -2    1    6    6    0  503  0.13189793070E+03 -0.83877938477E+02 -0.92937427582E+01  0.15658526859E+03  0.00000000000E+00 0. -1.
<mgrwt>
<rscale>  0 0.12327993E+04</rscale>
<asrwt>0</asrwt>
<pdfrwt beam="1">  1        2 0.21772522E+00 0.12327993E+04</pdfrwt>
<pdfrwt beam="2">  1       -1 0.41303735E-01 0.12327993E+04</pdfrwt>
<totfact> 0.91341601E+01</totfact>
</mgrwt>
</event>
<event>
12    6  0.1395358E-007  0.1646174E+04  0.7818608E-02  0.8792673E-01
         -1   -1    0    0    0  501 -0.00000000000E+00  0.00000000000E+00  0.42691892766E+03  0.42691892766E+03  0.00000000000E+00 0.  1.
          2   -1    0    0  501    0  0.00000000000E+00 -0.00000000000E+00 -0.15868871863E+04  0.15868871863E+04  0.00000000000E+00 0. -1.
         24    2    1    2    0    0  0.40494060148E+03 -0.30592560570E+03 -0.73100057775E+03  0.89346278167E+03  0.79665115398E+02 0.  0.
        254    2    1    2    0    0 -0.40494060148E+03  0.30592560570E+03 -0.42896768091E+03  0.11203433323E+04  0.90199143235E+03 0.  0.
         23    2    4    4    0    0 -0.29653696454E+03  0.88251058857E+00  0.22586118954E+03  0.38382556171E+03  0.91508659255E+02 0.  0.
         23    2    4    4    0    0 -0.10840363693E+03  0.30504309511E+03 -0.65482887044E+03  0.73651777060E+03  0.94100682606E+02 0.  0.
          4    1    3    3  502    0  0.70724155961E+02 -0.43171726437E+02 -0.17431662803E+03  0.19300774857E+03  0.00000000000E+00 0. -1.
         -3    1    3    3    0  502  0.33421644552E+03 -0.26275387926E+03 -0.55668394972E+03  0.70045503310E+03  0.00000000000E+00 0.  1.
         11    1    5    5    0    0 -0.85857191887E+02  0.74886203564E+01  0.18507227622E+02  0.88147911534E+02  0.00000000000E+00 0. -1.
        -11    1    5    5    0    0 -0.21067977266E+03 -0.66061097679E+01  0.20735396191E+03  0.29567765018E+03  0.00000000000E+00 0.  1.
          3    1    6    6  503    0 -0.14392865471E+02  0.17930159944E+03 -0.36385417460E+03  0.40588924414E+03  0.00000000000E+00 0. -1.
         -3    1    6    6    0  503 -0.94010771462E+02  0.12574149567E+03 -0.29097469584E+03  0.33062852645E+03  0.00000000000E+00 0.  1.
<mgrwt>
<rscale>  0 0.16461740E+04</rscale>
<asrwt>0</asrwt>
<pdfrwt beam="1">  1        2 0.24413649E+00 0.16461740E+04</pdfrwt>
<pdfrwt beam="2">  1       -1 0.65679835E-01 0.16461740E+04</pdfrwt>
<totfact> 0.29013574E+01</totfact>
</mgrwt>
</event>
<event>
12    6  0.1395358E-007  0.1890262E+04  0.7818608E-02  0.8659719E-01
          2   -1    0    0  501    0  0.00000000000E+00  0.00000000000E+00  0.18504723691E+04  0.18504723691E+04  0.00000000000E+00 0. -1.
         -1   -1    0    0    0  501 -0.00000000000E+00 -0.00000000000E+00 -0.48272682244E+03  0.48272682244E+03  0.00000000000E+00 0.  1.
         24    2    1    2    0    0 -0.43088639464E+03  0.46362814480E+03  0.80269509360E+02  0.64300903759E+03  0.80020538304E+02 0.  0.
        254    2    1    2    0    0  0.43088639464E+03 -0.46362814480E+03  0.12874760373E+04  0.16901901539E+04  0.89360733443E+03 0.  0.
         23    2    4    4    0    0  0.65609216208E+03 -0.15850854581E+03  0.97724153578E+03  0.11913208493E+04  0.93072350466E+02 0.  0.
         23    2    4    4    0    0 -0.22520576744E+03 -0.30511959899E+03  0.31023450149E+03  0.49886930465E+03  0.93859095619E+02 0.  0.
          2    1    3    3  502    0 -0.10187843995E+03  0.78703484408E+02 -0.80610227855E+01  0.12899005804E+03  0.00000000000E+00 0. -1.
         -1    1    3    3    0  502 -0.32900795469E+03  0.38492466039E+03  0.88330532146E+02  0.51401897955E+03  0.00000000000E+00 0.  1.
         11    1    5    5    0    0  0.21887642525E+03 -0.13822981230E+02  0.35306383896E+03  0.41563450136E+03  0.00000000000E+00 0.  1.
        -11    1    5    5    0    0  0.43721573683E+03 -0.14468556458E+03  0.62417769682E+03  0.77568634791E+03  0.00000000000E+00 0. -1.
          3    1    6    6  503    0  0.78597369496E+01 -0.21749123256E+01  0.94940435485E+01  0.12515693007E+02  0.00000000000E+00 0. -1.
         -3    1    6    6    0  503 -0.23306550439E+03 -0.30294468666E+03  0.30074045794E+03  0.48635361164E+03  0.00000000000E+00 0.  1.
<mgrwt>
<rscale>  0 0.18902620E+04</rscale>
<asrwt>0</asrwt>
<pdfrwt beam="1">  1        2 0.28468805E+00 0.18902620E+04</pdfrwt>
<pdfrwt beam="2">  1       -1 0.74265666E-01 0.18902620E+04</pdfrwt>
<totfact> 0.15759040E+01</totfact>
</mgrwt>
</event>
<event>
12    6  0.1395358E-007  0.3551630E+04  0.7818608E-02  0.8101662E-01
          2   -1    0    0  501    0  0.00000000000E+00  0.00000000000E+00  0.18321383534E+04  0.18321383534E+04  0.00000000000E+00 0. -1.
         -1   -1    0    0    0  501 -0.00000000000E+00 -0.00000000000E+00 -0.17212231852E+04  0.17212231852E+04  0.00000000000E+00 0.  1.
         24    2    1    2    0    0 -0.68831796064E+03 -0.12340313596E+04  0.92732071332E+03  0.16919441816E+04  0.78335157622E+02 0.  0.
        254    2    1    2    0    0  0.68831796064E+03  0.12340313596E+04 -0.81640554512E+03  0.18614173570E+04  0.89540021868E+03 0.  0.
         23    2    4    4    0    0  0.42356138097E+03  0.72087266529E+03  0.19602363759E+02  0.84136653728E+03  0.91933423659E+02 0.  0.
         23    2    4    4    0    0  0.26475657967E+03  0.51315869428E+03 -0.83600790888E+03  0.10200508197E+04  0.90369016606E+02 0.  0.
          2    1    3    3  502    0 -0.20960094800E+03 -0.38496544405E+03  0.33118708287E+03  0.54937767918E+03  0.00000000000E+00 0. -1.
         -1    1    3    3    0  502 -0.47871701264E+03 -0.84906591551E+03  0.59613363046E+03  0.11425665024E+04  0.00000000000E+00 0.  1.
         11    1    5    5    0    0  0.21425550723E+03  0.38078548285E+03  0.55436160663E+02  0.44042726328E+03  0.00000000000E+00 0.  1.
        -11    1    5    5    0    0  0.20930587373E+03  0.34008718244E+03 -0.35833796904E+02  0.40093927400E+03  0.00000000000E+00 0. -1.
          3    1    6    6  503    0  0.10959904346E+03  0.15638071617E+03 -0.33645226495E+03  0.38686820147E+03  0.00000000000E+00 0. -1.
         -3    1    6    6    0  503  0.15515753621E+03  0.35677797811E+03 -0.49955564392E+03  0.63318261828E+03  0.00000000000E+00 0.  1.
<mgrwt>
<rscale>  0 0.35516301E+04</rscale>
<asrwt>0</asrwt>
<pdfrwt beam="1">  1        2 0.28186744E+00 0.35516301E+04</pdfrwt>
<pdfrwt beam="2">  1       -1 0.26480357E+00 0.35516301E+04</pdfrwt>
<totfact> 0.43057162E-01</totfact>
</mgrwt>
</event>
<event>
12    6  0.1395358E-007  0.1733479E+04  0.7818608E-02  0.8742497E-01
         -1   -1    0    0    0  501 -0.00000000000E+00  0.00000000000E+00  0.15040306665E+03  0.15040306665E+03  0.00000000000E+00 0.  1.
          2   -1    0    0  501    0  0.00000000000E+00 -0.00000000000E+00 -0.49948295368E+04  0.49948295368E+04  0.00000000000E+00 0. -1.
         24    2    1    2    0    0 -0.23810835537E+03 -0.33823024723E+03 -0.32107945480E+04  0.32382676509E+04  0.77977306701E+02 0.  0.
        254    2    1    2    0    0  0.23810835537E+03  0.33823024723E+03 -0.16336319221E+04  0.19069649525E+04  0.89256192173E+03 0.  0.
         23    2    4    4    0    0  0.56561765345E+03  0.22556590949E+03 -0.11616774009E+04  0.13144162437E+04  0.85978884641E+02 0.  0.
         23    2    4    4    0    0 -0.32750929808E+03  0.11266433773E+03 -0.47195452123E+03  0.59254870879E+03  0.91745892837E+02 0.  0.
          4    1    3    3  502    0 -0.68912932551E+02 -0.85769803622E+02 -0.11388900425E+04  0.11441922830E+04  0.00000000000E+00 0. -1.
         -3    1    3    3    0  502 -0.16919542282E+03 -0.25246044361E+03 -0.20719045055E+04  0.20940753679E+04  0.00000000000E+00 0.  1.
         11    1    5    5    0    0  0.40687401391E+03  0.14667622613E+03 -0.89750328945E+03  0.99627934490E+03  0.00000000000E+00 0.  1.
        -11    1    5    5    0    0  0.15874363955E+03  0.78889683366E+02 -0.26417411146E+03  0.31813689884E+03  0.00000000000E+00 0. -1.
          3    1    6    6  503    0 -0.22184462850E+03  0.96393675630E+02 -0.38529452637E+03  0.45492708421E+03  0.00000000000E+00 0. -1.
         -3    1    6    6    0  503 -0.10566466958E+03  0.16270662102E+02 -0.86659994858E+02  0.13762162458E+03  0.00000000000E+00 0.  1.
<mgrwt>
<rscale>  0 0.17334794E+04</rscale>
<asrwt>0</asrwt>
<pdfrwt beam="1">  1        2 0.76843518E+00 0.17334794E+04</pdfrwt>
<pdfrwt beam="2">  1       -1 0.23138937E-01 0.17334794E+04</pdfrwt>
<totfact> 0.62486379E-01</totfact>
</mgrwt>
</event>
<event>
12    6  0.1395358E-007  0.4800159E+04  0.7818608E-02  0.7860096E-01
         -1   -1    0    0    0  501 -0.00000000000E+00  0.00000000000E+00  0.19178957088E+04  0.19178957088E+04  0.00000000000E+00 0.  1.
          2   -1    0    0  501    0  0.00000000000E+00 -0.00000000000E+00 -0.30034911003E+04  0.30034911003E+04  0.00000000000E+00 0. -1.
         24    2    1    2    0    0 -0.18286545429E+04 -0.43677207459E+03 -0.19073901518E+04  0.26794038132E+04  0.79500445396E+02 0.  0.
        254    2    1    2    0    0  0.18286545429E+04  0.43677207459E+03  0.82179476020E+03  0.22419829958E+04  0.90354515283E+03 0.  0.
         23    2    4    4    0    0 -0.12253019130E+02 -0.12303513710E+03  0.10877875442E+03  0.18793003766E+03  0.90537838528E+02 0.  0.
         23    2    4    4    0    0  0.18409075621E+04  0.55980721169E+03  0.71301600579E+03  0.20540529582E+04  0.91744014374E+02 0.  0.
          4    1    3    3  502    0 -0.57568753244E+03 -0.10169767625E+03 -0.57580545029E+03  0.82055497619E+03  0.00000000000E+00 0. -1.
         -3    1    3    3    0  502 -0.12529670105E+04 -0.33507439834E+03 -0.13315847015E+04  0.18588488370E+04  0.00000000000E+00 0.  1.
         11    1    5    5    0    0  0.35968797951E+02 -0.24684493524E+02  0.33871520473E+02  0.55230051111E+02  0.00000000000E+00 0.  1.
        -11    1    5    5    0    0 -0.48221817081E+02 -0.98350643571E+02  0.74907233943E+02  0.13269998655E+03  0.00000000000E+00 0. -1.
          3    1    6    6  503    0  0.13033255086E+04  0.36017777239E+03  0.47526734182E+03  0.14332705450E+04  0.00000000000E+00 0. -1.
         -3    1    6    6    0  503  0.53758205349E+03  0.19962943929E+03  0.23774866397E+03  0.62078241316E+03  0.00000000000E+00 0.  1.
<mgrwt>
<rscale>  0 0.48001595E+04</rscale>
<asrwt>0</asrwt>
<pdfrwt beam="1">  1        2 0.46207555E+00 0.48001595E+04</pdfrwt>
<pdfrwt beam="2">  1       -1 0.29506088E+00 0.48001595E+04</pdfrwt>
<totfact> 0.51742763E-02</totfact>
</mgrwt>
</event>
<event>
12    6  0.1395358E-007  0.3419001E+04  0.7818608E-02  0.8133259E-01
         -1   -1    0    0    0  501 -0.00000000000E+00  0.00000000000E+00  0.13736247427E+04  0.13736247427E+04  0.00000000000E+00 0.  1.
          2   -1    0    0  501    0  0.00000000000E+00 -0.00000000000E+00 -0.21275040686E+04  0.21275040686E+04  0.00000000000E+00 0. -1.
         24    2    1    2    0    0  0.88801441862E+03  0.11194124305E+04  0.36245433448E+03  0.14762440351E+04  0.79180233689E+02 0.  0.
        254    2    1    2    0    0 -0.88801441862E+03 -0.11194124305E+04 -0.11163336603E+04  0.20248847762E+04  0.90127893486E+03 0.  0.
         23    2    4    4    0    0 -0.40431025669E+03 -0.16410378033E+03 -0.78191113164E+03  0.89949839970E+03  0.85530806670E+02 0.  0.
         23    2    4    4    0    0 -0.48370416193E+03 -0.95530865018E+03 -0.33442252869E+03  0.11253863765E+04  0.89842836860E+02 0.  0.
          4    1    3    3  502    0  0.55173804764E+03  0.71029270712E+03  0.26629050073E+03  0.93799852547E+03  0.00000000000E+00 0. -1.
         -3    1    3    3    0  502  0.33627637098E+03  0.40911972339E+03  0.96163833751E+02  0.53824550966E+03  0.00000000000E+00 0.  1.
         11    1    5    5    0    0 -0.74457197837E+00 -0.92240210918E+01 -0.38056678649E+02  0.39165644924E+02  0.00000000000E+00 0. -1.
        -11    1    5    5    0    0 -0.40356568472E+03 -0.15487975924E+03 -0.74385445299E+03  0.86033275478E+03  0.00000000000E+00 0.  1.
          3    1    6    6  503    0 -0.46740308590E+03 -0.86923968826E+03 -0.30872183659E+03  0.10340949921E+04  0.00000000000E+00 0. -1.
         -3    1    6    6    0  503 -0.16301076027E+02 -0.86068961925E+02 -0.25700692105E+02  0.91291384375E+02  0.00000000000E+00 0.  1.
<mgrwt>
<rscale>  0 0.34190012E+04</rscale>
<asrwt>0</asrwt>
<pdfrwt beam="1">  1        2 0.32730832E+00 0.34190012E+04</pdfrwt>
<pdfrwt beam="2">  1       -1 0.21132688E+00 0.34190012E+04</pdfrwt>
<totfact> 0.67172586E-01</totfact>
</mgrwt>
</event>
<event>
12    6  0.1395358E-007  0.1562815E+04  0.7818608E-02  0.8843723E-01
          2   -1    0    0  501    0  0.00000000000E+00  0.00000000000E+00  0.15175628110E+04  0.15175628110E+04  0.00000000000E+00 0. -1.
         -1   -1    0    0    0  501 -0.00000000000E+00 -0.00000000000E+00 -0.40235422292E+03  0.40235422292E+03  0.00000000000E+00 0.  1.
         24    2    1    2    0    0  0.95981326903E+02 -0.34358289533E+03  0.83770445327E+03  0.91348751671E+03  0.73817823660E+02 0.  0.
        254    2    1    2    0    0 -0.95981326903E+02  0.34358289533E+03  0.27750413486E+03  0.10064295173E+04  0.89923868203E+03 0.  0.
         23    2    4    4    0    0 -0.10249295882E+03  0.57166596524E+03  0.42078361655E+03  0.72327137949E+03  0.93572720432E+02 0.  0.
         23    2    4    4    0    0  0.65116319178E+01 -0.22808306991E+03 -0.14327948170E+03  0.28315813776E+03  0.87093243013E+02 0.  0.
          4    1    3    3  502    0  0.36932955232E+02 -0.25605371085E+03  0.59236972906E+03  0.64639727871E+03  0.00000000000E+00 0. -1.
         -3    1    3    3    0  502  0.59048371671E+02 -0.87529184481E+02  0.24533472421E+03  0.26709023800E+03  0.00000000000E+00 0.  1.
         11    1    5    5    0    0 -0.41370972923E+02  0.36550025274E+03  0.31175292993E+03  0.48217411946E+03  0.00000000000E+00 0. -1.
        -11    1    5    5    0    0 -0.61121985898E+02  0.20616571249E+03  0.10903068662E+03  0.24109726003E+03  0.00000000000E+00 0.  1.
          3    1    6    6  503    0 -0.35305850115E+02 -0.15828813617E+03 -0.85233654203E+02  0.18321138860E+03  0.00000000000E+00 0. -1.
         -3    1    6    6    0  503  0.41817482033E+02 -0.69794933741E+02 -0.58045827493E+02  0.99946749166E+02  0.00000000000E+00 0.  1.
<mgrwt>
<rscale>  0 0.15628152E+04</rscale>
<asrwt>0</asrwt>
<pdfrwt beam="1">  1        2 0.23347120E+00 0.15628152E+04</pdfrwt>
<pdfrwt beam="2">  1       -1 0.61900650E-01 0.15628152E+04</pdfrwt>
<totfact> 0.35986716E+01</totfact>
</mgrwt>
</event>
<event>
12    6  0.1395358E-007  0.1998058E+04  0.7818608E-02  0.8607529E-01
         -1   -1    0    0    0  501 -0.00000000000E+00  0.00000000000E+00  0.13635266259E+04  0.13635266259E+04  0.00000000000E+00 0.  1.
          4   -1    0    0  501    0  0.00000000000E+00 -0.00000000000E+00 -0.73196915311E+03  0.73196915311E+03  0.00000000000E+00 0. -1.
         24    2    1    2    0    0  0.35596492440E+03 -0.70431991725E+03  0.15913592239E+03  0.80890183647E+03  0.78869297007E+02 0.  0.
        254    2    1    2    0    0 -0.35596492440E+03  0.70431991725E+03  0.47242155038E+03  0.12865939425E+04  0.89964675202E+03 0.  0.
         23    2    4    4    0    0 -0.34717739887E+03 -0.83131337117E+02  0.10313309287E+02  0.36897031615E+03  0.92680981636E+02 0.  0.
         23    2    4    4    0    0 -0.87875255280E+01  0.78745125437E+03  0.46210824109E+03  0.91762362636E+03  0.91281950924E+02 0.  0.
          4    1    3    3  502    0  0.26084107205E+03 -0.45374350908E+03  0.80113035263E+02  0.52947080686E+03  0.00000000000E+00 0. -1.
         -3    1    3    3    0  502  0.95123852351E+02 -0.25057640817E+03  0.79022887130E+02  0.27943102961E+03  0.00000000000E+00 0.  1.
         11    1    5    5    0    0 -0.16358083567E+03 -0.86701300571E+02  0.19167855231E+01  0.18514718304E+03  0.00000000000E+00 0. -1.
        -11    1    5    5    0    0 -0.18359656320E+03  0.35699634548E+01  0.83965237637E+01  0.18382313312E+03  0.00000000000E+00 0.  1.
          1    1    6    6  503    0 -0.36304774283E+02  0.35441769083E+03  0.24540722335E+03  0.43261373242E+03  0.00000000000E+00 0. -1.
         -1    1    6    6    0  503  0.27517248755E+02  0.43303356354E+03  0.21670101775E+03  0.48500989394E+03  0.00000000000E+00 0.  1.
<mgrwt>
<rscale>  0 0.19980585E+04</rscale>
<asrwt>0</asrwt>
<pdfrwt beam="1">  1        4 0.11261064E+00 0.19980585E+04</pdfrwt>
<pdfrwt beam="2">  1       -1 0.20977333E+00 0.19980585E+04</pdfrwt>
<totfact> 0.30893195E-01</totfact>
</mgrwt>
</event>
<event>
12    6  0.1395358E-007  0.2262136E+04  0.7818608E-02  0.8493002E-01
          2   -1    0    0  501    0  0.00000000000E+00  0.00000000000E+00  0.44010033641E+04  0.44010033641E+04  0.00000000000E+00 0. -1.
         -1   -1    0    0    0  501 -0.00000000000E+00 -0.00000000000E+00 -0.29068696351E+03  0.29068696351E+03  0.00000000000E+00 0.  1.
         24    2    1    2    0    0  0.29245353715E+03  0.90054158758E+03  0.15526724420E+04  0.18203724859E+04  0.80374453981E+02 0.  0.
        254    2    1    2    0    0 -0.29245353715E+03 -0.90054158758E+03  0.25576439586E+04  0.28713178417E+04  0.89800852276E+03 0.  0.
         23    2    4    4    0    0 -0.48486535309E+03 -0.87274464114E+03  0.15784753671E+04  0.18699193416E+04  0.90753733573E+02 0.  0.
         23    2    4    4    0    0  0.19241181594E+03 -0.27796946445E+02  0.97916859150E+03  0.10013985002E+04  0.78948390854E+02 0.  0.
          2    1    3    3  502    0  0.19020483104E+03  0.47202190196E+03  0.79508878213E+03  0.94400673999E+03  0.00000000000E+00 0. -1.
         -1    1    3    3    0  502  0.10224870611E+03  0.42851968562E+03  0.75758365989E+03  0.87636574590E+03  0.00000000000E+00 0.  1.
         11    1    5    5    0    0 -0.15514593100E+03 -0.37002859905E+03  0.62107562479E+03  0.73940946419E+03  0.00000000000E+00 0. -1.
        -11    1    5    5    0    0 -0.32971942209E+03 -0.50271604208E+03  0.95739974232E+03  0.11305098774E+04  0.00000000000E+00 0.  1.
          4    1    6    6  503    0  0.11283343792E+03 -0.37405765513E+02  0.73110962725E+03  0.74071037732E+03  0.00000000000E+00 0. -1.
         -4    1    6    6    0  503  0.79578378022E+02  0.96088190681E+01  0.24805896425E+03  0.26068812285E+03  0.00000000000E+00 0.  1.
<mgrwt>
<rscale>  0 0.22621355E+04</rscale>
<asrwt>0</asrwt>
<pdfrwt beam="1">  1        2 0.67707739E+00 0.22621355E+04</pdfrwt>
<pdfrwt beam="2">  1       -1 0.44721074E-01 0.22621355E+04</pdfrwt>
<totfact> 0.79256912E-01</totfact>
</mgrwt>
</event>
<event>
12    6  0.1395358E-007  0.1085937E+04  0.7818608E-02  0.9219008E-01
          2   -1    0    0  501    0  0.00000000000E+00  0.00000000000E+00  0.60894519614E+03  0.60894519614E+03  0.00000000000E+00 0. -1.
         -1   -1    0    0    0  501 -0.00000000000E+00 -0.00000000000E+00 -0.48414006096E+03  0.48414006096E+03  0.00000000000E+00 0.  1.
         24    2    1    2    0    0 -0.26150419222E+02  0.14930030667E+03 -0.76754023988E+01  0.17110790754E+03  0.79022643739E+02 0.  0.
        254    2    1    2    0    0  0.26150419222E+02 -0.14930030667E+03  0.13248053757E+03  0.92197734956E+03  0.89973146787E+03 0.  0.
         23    2    4    4    0    0  0.28058133395E+03  0.24460243973E+03 -0.91093061182E+02  0.39464735434E+03  0.94299257709E+02 0.  0.
         23    2    4    4    0    0 -0.25443091473E+03 -0.39390274640E+03  0.22357359875E+03  0.52732999523E+03  0.90538974009E+02 0.  0.
          4    1    3    3  502    0  0.24667995402E+01 -0.84614188556E+01  0.52376976176E+01  0.10252520927E+02  0.00000000000E+00 0. -1.
         -3    1    3    3    0  502 -0.28617218762E+02  0.15776172552E+03 -0.12913100016E+02  0.16085538661E+03  0.00000000000E+00 0.  1.
         11    1    5    5    0    0  0.17068817516E+03  0.17155248157E+03 -0.15329447596E+02  0.24248649248E+03  0.00000000000E+00 0. -1.
        -11    1    5    5    0    0  0.10989315879E+03  0.73049958158E+02 -0.75763613586E+02  0.15216086185E+03  0.00000000000E+00 0.  1.
          1    1    6    6  503    0 -0.20616717469E+03 -0.35797475526E+03  0.16980292604E+03  0.44663616402E+03  0.00000000000E+00 0. -1.
         -1    1    6    6    0  503 -0.48263740037E+02 -0.35927991141E+02  0.53770672716E+02  0.80693831203E+02  0.00000000000E+00 0.  1.
<mgrwt>
<rscale>  0 0.10859369E+04</rscale>
<asrwt>0</asrwt>
<pdfrwt beam="1">  1        2 0.93683876E-01 0.10859369E+04</pdfrwt>
<pdfrwt beam="2">  1       -1 0.74483086E-01 0.10859369E+04</pdfrwt>
<totfact> 0.10038547E+02</totfact>
</mgrwt>
</event>
<event>
12    6  0.1395358E-007  0.3363066E+04  0.7818608E-02  0.8147031E-01
          2   -1    0    0  501    0  0.00000000000E+00  0.00000000000E+00  0.39268263616E+04  0.39268263616E+04  0.00000000000E+00 0. -1.
         -3   -1    0    0    0  501 -0.00000000000E+00 -0.00000000000E+00 -0.72006061842E+03  0.72006061842E+03  0.00000000000E+00 0.  1.
         24    2    1    2    0    0  0.46707839672E+03  0.13335047701E+04  0.24031320149E+04  0.27888875981E+04  0.80332768121E+02 0.  0.
        254    2    1    2    0    0 -0.46707839672E+03 -0.13335047701E+04  0.80363372832E+03  0.18579993819E+04  0.89996518455E+03 0.  0.
         23    2    4    4    0    0 -0.57403684802E+03 -0.12237215933E+04  0.39431876562E+03  0.14109293306E+04  0.90672191528E+02 0.  0.
         23    2    4    4    0    0  0.10695845130E+03 -0.10978317677E+03  0.40931496270E+03  0.44707005128E+03  0.94023592034E+02 0.  0.
          2    1    3    3  502    0  0.21870648261E+03  0.73477370937E+03  0.13345214315E+04  0.15390491807E+04  0.00000000000E+00 0. -1.
         -1    1    3    3    0  502  0.24837191412E+03  0.59873106069E+03  0.10686105834E+04  0.12498384174E+04  0.00000000000E+00 0.  1.
         11    1    5    5    0    0 -0.68289240782E+02 -0.10578481758E+03  0.58192919768E+02  0.13870927852E+03  0.00000000000E+00 0. -1.
        -11    1    5    5    0    0 -0.50574760724E+03 -0.11179367757E+04  0.33612584585E+03  0.12722200521E+04  0.00000000000E+00 0.  1.
          1    1    6    6  503    0  0.28165206785E+02 -0.14812969502E+01  0.17972120926E+02  0.33443538158E+02  0.00000000000E+00 0. -1.
         -1    1    6    6    0  503  0.78793244514E+02 -0.10830187982E+03  0.39134284177E+03  0.41362651313E+03  0.00000000000E+00 0.  1.
<mgrwt>
<rscale>  0 0.33630659E+04</rscale>
<asrwt>0</asrwt>
<pdfrwt beam="1">  1        2 0.60412712E+00 0.33630659E+04</pdfrwt>
<pdfrwt beam="2">  1       -3 0.11077856E+00 0.33630659E+04</pdfrwt>
<totfact> 0.14259805E-01</totfact>
</mgrwt>
</event>
<event>
12    6  0.1395358E-007  0.1957106E+04  0.7818608E-02  0.8626942E-01
          2   -1    0    0  501    0  0.00000000000E+00  0.00000000000E+00  0.98322995291E+03  0.98322995291E+03  0.00000000000E+00 0. -1.
         -1   -1    0    0    0  501 -0.00000000000E+00 -0.00000000000E+00 -0.97389840937E+03  0.97389840937E+03  0.00000000000E+00 0.  1.
         24    2    1    2    0    0 -0.72936095595E+03  0.24434321103E+03  0.15088927536E+02  0.77364080210E+03  0.81372022748E+02 0.  0.
        254    2    1    2    0    0  0.72936095595E+03 -0.24434321103E+03 -0.57573839967E+01  0.11834875602E+04  0.89941016716E+03 0.  0.
         23    2    4    4    0    0  0.70842896649E+03  0.16469645364E+03  0.12551628987E+03  0.74325744161E+03  0.87639962853E+02 0.  0.
         23    2    4    4    0    0  0.20931989467E+02 -0.40903966467E+03 -0.13127367386E+03  0.44023011857E+03  0.93905188317E+02 0.  0.
          2    1    3    3  502    0 -0.17740499754E+03  0.23936598285E+02  0.98297262088E+01  0.17928222836E+03  0.00000000000E+00 0. -1.
         -1    1    3    3    0  502 -0.55195595842E+03  0.22040661274E+03  0.52592013275E+01  0.59435857374E+03  0.00000000000E+00 0.  1.
         11    1    5    5    0    0  0.40428933372E+03  0.92854657540E+02  0.27450940773E+02  0.41572275248E+03  0.00000000000E+00 0. -1.
        -11    1    5    5    0    0  0.30413963277E+03  0.71841796105E+02  0.98065349092E+02  0.32753468913E+03  0.00000000000E+00 0.  1.
          2    1    6    6  503    0  0.12920310573E+02 -0.35213939726E+03 -0.75957919574E+02  0.36047010289E+03  0.00000000000E+00 0. -1.
         -2    1    6    6    0  503  0.80116788942E+01 -0.56900267411E+02 -0.55315754288E+02  0.79760015688E+02  0.00000000000E+00 0.  1.
<mgrwt>
<rscale>  0 0.19571061E+04</rscale>
<asrwt>0</asrwt>
<pdfrwt beam="1">  1        2 0.15126615E+00 0.19571061E+04</pdfrwt>
<pdfrwt beam="2">  1       -1 0.14983052E+00 0.19571061E+04</pdfrwt>
<totfact> 0.96126186E+00</totfact>
</mgrwt>
</event>
<event>
12    6  0.1395358E-007  0.1432488E+04  0.7818608E-02  0.8930632E-01
         -1   -1    0    0    0  501 -0.00000000000E+00  0.00000000000E+00  0.67108313470E+03  0.67108313470E+03  0.00000000000E+00 0.  1.
          2   -1    0    0  501    0  0.00000000000E+00 -0.00000000000E+00 -0.76444423399E+03  0.76444423399E+03  0.00000000000E+00 0. -1.
         24    2    1    2    0    0  0.11421624419E+03 -0.40322841184E+03 -0.10357558877E+03  0.43887771779E+03  0.79039521976E+02 0.  0.
        254    2    1    2    0    0 -0.11421624419E+03  0.40322841184E+03  0.10214489478E+02  0.99664965089E+03  0.90419449693E+03 0.  0.
         23    2    4    4    0    0  0.82143827035E+02  0.64751473637E+03  0.74369075190E+02  0.66433016967E+03  0.98898295523E+02 0.  0.
         23    2    4    4    0    0 -0.19636007122E+03 -0.24428632453E+03 -0.64154585712E+02  0.33231948122E+03  0.89929643666E+02 0.  0.
          2    1    3    3  502    0  0.30293040717E+01 -0.14349810763E+03 -0.25698660337E+02  0.14581256709E+03  0.00000000000E+00 0. -1.
         -1    1    3    3    0  502  0.11118694011E+03 -0.25973030421E+03 -0.77876928431E+02  0.29306515070E+03  0.00000000000E+00 0.  1.
         11    1    5    5    0    0  0.49058597778E+02  0.33605324171E+03  0.87961564887E+02  0.35082155603E+03  0.00000000000E+00 0. -1.
        -11    1    5    5    0    0  0.33085229257E+02  0.31146149466E+03 -0.13592489697E+02  0.31350861364E+03  0.00000000000E+00 0.  1.
          4    1    6    6  503    0 -0.16288994144E+03 -0.14011586713E+03 -0.25937065662E+02  0.21642162696E+03  0.00000000000E+00 0. -1.
         -4    1    6    6    0  503 -0.33470129785E+02 -0.10417045740E+03 -0.38217520050E+02  0.11589785426E+03  0.00000000000E+00 0.  1.
<mgrwt>
<rscale>  0 0.14324882E+04</rscale>
<asrwt>0</asrwt>
<pdfrwt beam="1">  1        2 0.11760680E+00 0.14324882E+04</pdfrwt>
<pdfrwt beam="2">  1       -1 0.10324356E+00 0.14324882E+04</pdfrwt>
<totfact> 0.35926080E+01</totfact>
</mgrwt>
</event>
<event>
12    6  0.1395358E-007  0.2761274E+04  0.7818608E-02  0.8315393E-01
          2   -1    0    0  501    0  0.00000000000E+00  0.00000000000E+00  0.12060531194E+04  0.12060531194E+04  0.00000000000E+00 0. -1.
         -1   -1    0    0    0  501 -0.00000000000E+00 -0.00000000000E+00 -0.15804925280E+04  0.15804925280E+04  0.00000000000E+00 0.  1.
         24    2    1    2    0    0 -0.46766162963E+03  0.10483430499E+04  0.28489828409E+03  0.11857903747E+04  0.84860063155E+02 0.  0.
        254    2    1    2    0    0  0.46766162963E+03 -0.10483430499E+04 -0.65933769268E+03  0.16007552726E+04  0.89997816626E+03 0.  0.
         23    2    4    4    0    0 -0.69184588411E+01 -0.79520721536E+02  0.18960838281E+03  0.22503883904E+03  0.91212554070E+02 0.  0.
         23    2    4    4    0    0  0.47458008847E+03 -0.96882232837E+03 -0.84894607549E+03  0.13757164336E+04  0.89684459219E+02 0.  0.
          4    1    3    3  502    0 -0.40933470116E+03  0.97091630458E+03  0.25166076819E+03  0.10833127482E+04  0.00000000000E+00 0. -1.
         -3    1    3    3    0  502 -0.58326928477E+02  0.77426745324E+02  0.33237515907E+02  0.10247762654E+03  0.00000000000E+00 0.  1.
         11    1    5    5    0    0 -0.25050046986E+02 -0.93650704620E+02  0.16494587345E+03  0.19132459460E+03  0.00000000000E+00 0. -1.
        -11    1    5    5    0    0  0.18131588145E+02  0.14129983084E+02  0.24662509358E+02  0.33714244444E+02  0.00000000000E+00 0.  1.
          3    1    6    6  503    0  0.30146362042E+03 -0.53669033462E+03 -0.51855141791E+03  0.80486794117E+03  0.00000000000E+00 0. -1.
         -3    1    6    6    0  503  0.17311646806E+03 -0.43213199375E+03 -0.33039465758E+03  0.57084849242E+03  0.00000000000E+00 0.  1.
<mgrwt>
<rscale>  0 0.27612736E+04</rscale>
<asrwt>0</asrwt>
<pdfrwt beam="1">  1        2 0.18554663E+00 0.27612736E+04</pdfrwt>
<pdfrwt beam="2">  1       -1 0.24315270E+00 0.27612736E+04</pdfrwt>
<totfact> 0.14441259E+00</totfact>
</mgrwt>
</event>
<event>
12    6  0.1395358E-007  0.3062511E+04  0.7818608E-02  0.8226102E-01
         -1   -1    0    0    0  501 -0.00000000000E+00  0.00000000000E+00  0.47775212888E+03  0.47775212888E+03  0.00000000000E+00 0.  1.
          2   -1    0    0  501    0  0.00000000000E+00 -0.00000000000E+00 -0.49078646268E+04  0.49078646268E+04  0.00000000000E+00 0. -1.
         24    2    1    2    0    0 -0.91999493598E+03  0.74394058909E+03 -0.33352825137E+04  0.35397862401E+04  0.78351115056E+02 0.  0.
        254    2    1    2    0    0  0.91999493598E+03 -0.74394058909E+03 -0.10948299842E+04  0.18458305156E+04  0.89922150527E+03 0.  0.
         23    2    4    4    0    0  0.14038730446E+03  0.81850760111E+02 -0.55366115780E+03  0.58447487542E+03  0.93070189417E+02 0.  0.
         23    2    4    4    0    0  0.77960763153E+03 -0.82579134920E+03 -0.54116882644E+03  0.12613556402E+04  0.91841933304E+02 0.  0.
          4    1    3    3  502    0 -0.47928057895E+03  0.35770891005E+03 -0.17787554931E+04  0.18766024198E+04  0.00000000000E+00 0. -1.
         -3    1    3    3    0  502 -0.44071435704E+03  0.38623167904E+03 -0.15565270206E+04  0.16631838203E+04  0.00000000000E+00 0.  1.
         11    1    5    5    0    0  0.86827650688E+02  0.80947053967E+02 -0.47284194331E+03  0.48751509702E+03  0.00000000000E+00 0. -1.
        -11    1    5    5    0    0  0.53559653770E+02  0.90370614386E+00 -0.80819214496E+02  0.96959778406E+02  0.00000000000E+00 0.  1.
          4    1    6    6  503    0  0.27053092414E+01 -0.19046719546E+02 -0.68165198333E+01  0.20409830136E+02  0.00000000000E+00 0.  1.
         -4    1    6    6    0  503  0.77690232228E+03 -0.80674462966E+03 -0.53435230661E+03  0.12409458100E+04  0.00000000000E+00 0. -1.
<mgrwt>
<rscale>  0 0.30625106E+04</rscale>
<asrwt>0</asrwt>
<pdfrwt beam="1">  1        2 0.75505610E+00 0.30625106E+04</pdfrwt>
<pdfrwt beam="2">  1       -1 0.73500327E-01 0.30625106E+04</pdfrwt>
<totfact> 0.80308077E-02</totfact>
</mgrwt>
</event>
<event>
12    6  0.1395358E-007  0.1618205E+04  0.7818608E-02  0.8809442E-01
          2   -1    0    0  501    0  0.00000000000E+00  0.00000000000E+00  0.24993102073E+04  0.24993102073E+04  0.00000000000E+00 0. -1.
         -1   -1    0    0    0  501 -0.00000000000E+00 -0.00000000000E+00 -0.26193092495E+03  0.26193092495E+03  0.00000000000E+00 0.  1.
         24    2    1    2    0    0  0.19157144939E+03  0.51058274288E+03  0.96031589997E+03  0.11072291446E+04  0.79720720892E+02 0.  0.
        254    2    1    2    0    0 -0.19157144939E+03 -0.51058274288E+03  0.12770633824E+04  0.16540119877E+04  0.89859357620E+03 0.  0.
         23    2    4    4    0    0 -0.32697747327E+02  0.21649899884E+03  0.59495265750E+03  0.64030385337E+03  0.89885487087E+02 0.  0.
         23    2    4    4    0    0 -0.15887370206E+03 -0.72708174172E+03  0.68211072491E+03  0.10137081343E+04  0.91871803162E+02 0.  0.
          4    1    3    3  502    0  0.11447763180E+03  0.38638517447E+03  0.74445429845E+03  0.84652869633E+03  0.00000000000E+00 0. -1.
         -3    1    3    3    0  502  0.77093817590E+02  0.12419756841E+03  0.21586160152E+03  0.26070044825E+03  0.00000000000E+00 0.  1.
         11    1    5    5    0    0 -0.11847606895E+02  0.20511238480E+03  0.56978365759E+03  0.60569371191E+03  0.00000000000E+00 0. -1.
        -11    1    5    5    0    0 -0.20850140432E+02  0.11386614034E+02  0.25168999915E+02  0.34610141460E+02  0.00000000000E+00 0.  1.
          2    1    6    6  503    0 -0.13542033731E+03 -0.45082805888E+03  0.39389121128E+03  0.61378733512E+03  0.00000000000E+00 0. -1.
         -2    1    6    6    0  503 -0.23453364749E+02 -0.27625368284E+03  0.28821951364E+03  0.39992079921E+03  0.00000000000E+00 0.  1.
<mgrwt>
<rscale>  0 0.16182047E+04</rscale>
<asrwt>0</asrwt>
<pdfrwt beam="1">  1        2 0.38450925E+00 0.16182047E+04</pdfrwt>
<pdfrwt beam="2">  1       -1 0.40297067E-01 0.16182047E+04</pdfrwt>
<totfact> 0.22878071E+01</totfact>
</mgrwt>
</event>
<event>
12    6  0.1395358E-007  0.1420944E+04  0.7818608E-02  0.8938796E-01
         -3   -1    0    0    0  501 -0.00000000000E+00  0.00000000000E+00  0.48911582354E+03  0.48911582354E+03  0.00000000000E+00 0.  1.
          4   -1    0    0  501    0  0.00000000000E+00 -0.00000000000E+00 -0.10320063227E+04  0.10320063227E+04  0.00000000000E+00 0. -1.
         24    2    1    2    0    0  0.26759677651E+03  0.16288480177E+03  0.13624103279E+03  0.35061973052E+03  0.78949876288E+02 0.  0.
        254    2    1    2    0    0 -0.26759677651E+03 -0.16288480177E+03 -0.67913153190E+03  0.11705024157E+04  0.90039811975E+03 0.  0.
         23    2    4    4    0    0 -0.34971768796E+03  0.67368884664E+02 -0.80206244184E+03  0.88165807896E+03  0.84709974009E+02 0.  0.
         23    2    4    4    0    0  0.82120911451E+02 -0.23025368643E+03  0.12293090994E+03  0.28884433672E+03  0.92511826388E+02 0.  0.
          2    1    3    3  502    0  0.18799871295E+03  0.13766667455E+03  0.67858833484E+02  0.24269415039E+03  0.00000000000E+00 0. -1.
         -1    1    3    3    0  502  0.79598063557E+02  0.25218127217E+02  0.68382199311E+02  0.10792558012E+03  0.00000000000E+00 0.  1.
         11    1    5    5    0    0 -0.10422081430E+03  0.45418492342E+02 -0.33149451245E+03  0.35044747019E+03  0.00000000000E+00 0.  1.
        -11    1    5    5    0    0 -0.24549687366E+03  0.21950392322E+02 -0.47056792939E+03  0.53121060877E+03  0.00000000000E+00 0. -1.
          3    1    6    6  503    0  0.28308344778E+02 -0.23164665930E+02 -0.87423149034E+01  0.37608405996E+02  0.00000000000E+00 0. -1.
         -3    1    6    6    0  503  0.53812566673E+02 -0.20708902050E+03  0.13167322484E+03  0.25123593072E+03  0.00000000000E+00 0.  1.
<mgrwt>
<rscale>  0 0.14209442E+04</rscale>
<asrwt>0</asrwt>
<pdfrwt beam="1">  1        4 0.15877020E+00 0.14209442E+04</pdfrwt>
<pdfrwt beam="2">  1       -3 0.75248588E-01 0.14209442E+04</pdfrwt>
<totfact> 0.94547879E-01</totfact>
</mgrwt>
</event>
<event>
12    6  0.1395358E-007  0.1632349E+04  0.7818608E-02  0.8800918E-01
         -1   -1    0    0    0  501 -0.00000000000E+00  0.00000000000E+00  0.72361147879E+03  0.72361147879E+03  0.00000000000E+00 0.  1.
          2   -1    0    0  501    0  0.00000000000E+00 -0.00000000000E+00 -0.92057770710E+03  0.92057770710E+03  0.00000000000E+00 0. -1.
         24    2    1    2    0    0  0.42375423701E+03  0.37385312328E+03 -0.59749272115E+02  0.57380978164E+03  0.79711221422E+02 0.  0.
        254    2    1    2    0    0 -0.42375423701E+03 -0.37385312328E+03 -0.13721695620E+03  0.10703794042E+04  0.89863772722E+03 0.  0.
         23    2    4    4    0    0  0.16797212454E+03 -0.38223259803E+03  0.77341826832E+02  0.43425241085E+03  0.90978044216E+02 0.  0.
         23    2    4    4    0    0 -0.59172636156E+03  0.83794747501E+01 -0.21455878303E+03  0.63612699339E+03  0.91715744499E+02 0.  0.
          4    1    3    3  502    0  0.13654756274E+03  0.16793486038E+03 -0.75181157532E+01  0.21657302760E+03  0.00000000000E+00 0. -1.
         -3    1    3    3    0  502  0.28720667428E+03  0.20591826290E+03 -0.52231156362E+02  0.35723675404E+03  0.00000000000E+00 0.  1.
         11    1    5    5    0    0  0.10529896192E+03 -0.20879886856E+03 -0.11039567240E+01  0.23385050270E+03  0.00000000000E+00 0. -1.
        -11    1    5    5    0    0  0.62673162625E+02 -0.17343372947E+03  0.78445783556E+02  0.20040190815E+03  0.00000000000E+00 0.  1.
          1    1    6    6  503    0 -0.37155504761E+03  0.14173830090E+02 -0.87962001227E+02  0.38208816328E+03  0.00000000000E+00 0. -1.
         -1    1    6    6    0  503 -0.22017131395E+03 -0.57943553401E+01 -0.12659678180E+03  0.25403883011E+03  0.00000000000E+00 0.  1.
<mgrwt>
<rscale>  0 0.16323487E+04</rscale>
<asrwt>0</asrwt>
<pdfrwt beam="1">  1        2 0.14162734E+00 0.16323487E+04</pdfrwt>
<pdfrwt beam="2">  1       -1 0.11132484E+00 0.16323487E+04</pdfrwt>
<totfact> 0.23003131E+01</totfact>
</mgrwt>
</event>
<event>
12    6  0.1395358E-007  0.3091275E+04  0.7818608E-02  0.8218137E-01
          2   -1    0    0  501    0  0.00000000000E+00  0.00000000000E+00  0.20668262292E+04  0.20668262292E+04  0.00000000000E+00 0. -1.
         -1   -1    0    0    0  501 -0.00000000000E+00 -0.00000000000E+00 -0.11558759495E+04  0.11558759495E+04  0.00000000000E+00 0.  1.
         24    2    1    2    0    0  0.93411988832E+03 -0.10586389460E+04  0.48829949453E+03  0.14958683394E+04  0.76741831995E+02 0.  0.
        254    2    1    2    0    0 -0.93411988832E+03  0.10586389460E+04  0.42265078513E+03  0.17268338393E+04  0.90001391016E+03 0.  0.
         23    2    4    4    0    0 -0.86299325553E+02  0.25565358012E+03 -0.24769833623E+03  0.37732705923E+03  0.90636180578E+02 0.  0.
         23    2    4    4    0    0 -0.84782056277E+03  0.80298536590E+03  0.67034912137E+03  0.13495067800E+04  0.90638845799E+02 0.  0.
          2    1    3    3  502    0  0.68406542119E+02 -0.50141807361E+02  0.28564935425E+02  0.89496432253E+02  0.00000000000E+00 0. -1.
         -1    1    3    3    0  502  0.86571334620E+03 -0.10084971387E+04  0.45973455910E+03  0.14063719072E+04  0.00000000000E+00 0.  1.
         11    1    5    5    0    0 -0.82668077975E+02  0.18750970057E+03 -0.13440310806E+03  0.24506753025E+03  0.00000000000E+00 0.  1.
        -11    1    5    5    0    0 -0.36312475775E+01  0.68143879555E+02 -0.11329522817E+03  0.13225952898E+03  0.00000000000E+00 0. -1.
          3    1    6    6  503    0 -0.36419179332E+03  0.35478814564E+03  0.34322801268E+03  0.61344580796E+03  0.00000000000E+00 0.  1.
         -3    1    6    6    0  503 -0.48362876945E+03  0.44819722026E+03  0.32712110869E+03  0.73606097209E+03  0.00000000000E+00 0. -1.
<mgrwt>
<rscale>  0 0.30912746E+04</rscale>
<asrwt>0</asrwt>
<pdfrwt beam="1">  1        2 0.31797327E+00 0.30912746E+04</pdfrwt>
<pdfrwt beam="2">  1       -1 0.17782707E+00 0.30912746E+04</pdfrwt>
<totfact> 0.12784509E+00</totfact>
</mgrwt>
</event>
<event>
12    6  0.1395358E-007  0.1206609E+04  0.7818608E-02  0.9107092E-01
          2   -1    0    0  501    0  0.00000000000E+00  0.00000000000E+00  0.11151194323E+04  0.11151194323E+04  0.00000000000E+00 0. -1.
         -1   -1    0    0    0  501 -0.00000000000E+00 -0.00000000000E+00 -0.32640100730E+03  0.32640100730E+03  0.00000000000E+00 0.  1.
         24    2    1    2    0    0  0.19408615313E+03 -0.14519028774E+03  0.32511471453E+03  0.41298376232E+03  0.78143175262E+02 0.  0.
        254    2    1    2    0    0 -0.19408615313E+03  0.14519028774E+03  0.46360371050E+03  0.10285366773E+04  0.88555612001E+03 0.  0.
         23    2    4    4    0    0  0.11829731118E+03  0.22360038875E+03  0.60847990074E+03  0.66430196902E+03  0.84011479935E+02 0.  0.
         23    2    4    4    0    0 -0.31238346432E+03 -0.78410101007E+02 -0.14487619024E+03  0.36423470829E+03  0.89141682222E+02 0.  0.
          2    1    3    3  502    0  0.94609963346E+02 -0.24557813403E+02  0.11184268328E+03  0.14853591204E+03  0.00000000000E+00 0. -1.
         -1    1    3    3    0  502  0.99476189784E+02 -0.12063247434E+03  0.21327203125E+03  0.26444785027E+03  0.00000000000E+00 0.  1.
         11    1    5    5    0    0  0.17914596766E+02  0.21953169589E+02  0.15937647805E+03  0.16187568127E+03  0.00000000000E+00 0. -1.
        -11    1    5    5    0    0  0.10038271442E+03  0.20164721916E+03  0.44910342268E+03  0.50242628774E+03  0.00000000000E+00 0.  1.
          2    1    6    6  503    0 -0.17517879280E+03 -0.21389516259E+02 -0.12043107916E+03  0.21365571764E+03  0.00000000000E+00 0. -1.
         -2    1    6    6    0  503 -0.13720467151E+03 -0.57020584748E+02 -0.24445111081E+02  0.15057899065E+03  0.00000000000E+00 0.  1.
<mgrwt>
<rscale>  0 0.12066086E+04</rscale>
<asrwt>0</asrwt>
<pdfrwt beam="1">  1        2 0.17155683E+00 0.12066086E+04</pdfrwt>
<pdfrwt beam="2">  1       -1 0.50215540E-01 0.12066086E+04</pdfrwt>
<totfact> 0.95446962E+01</totfact>
</mgrwt>
</event>
<event>
12    6  0.1395358E-007  0.1572455E+04  0.7818608E-02  0.8837651E-01
          2   -1    0    0  501    0  0.00000000000E+00  0.00000000000E+00  0.72487875058E+03  0.72487875058E+03  0.00000000000E+00 0. -1.
         -1   -1    0    0    0  501 -0.00000000000E+00 -0.00000000000E+00 -0.85276887416E+03  0.85276887416E+03  0.00000000000E+00 0.  1.
         24    2    1    2    0    0 -0.19234839143E+03  0.27539935223E+03 -0.44661456922E+03  0.56459973330E+03  0.80408821108E+02 0.  0.
        254    2    1    2    0    0  0.19234839143E+03 -0.27539935223E+03  0.31872444565E+03  0.10130478914E+04  0.90102056092E+03 0.  0.
         23    2    4    4    0    0 -0.46724810546E+02  0.25215278470E+03  0.32862679087E+03  0.42669141787E+03  0.91135962467E+02 0.  0.
         23    2    4    4    0    0  0.23907320197E+03 -0.52755213693E+03 -0.99023452201E+01  0.58635647357E+03  0.90821828745E+02 0.  0.
          2    1    3    3  502    0  0.37585659201E+01  0.32965003866E+02 -0.51512593412E+02  0.61272877994E+02  0.00000000000E+00 0. -1.
         -1    1    3    3    0  502 -0.19610695735E+03  0.24243434836E+03 -0.39510197581E+03  0.50332685531E+03  0.00000000000E+00 0.  1.
         11    1    5    5    0    0  0.18810893203E+02  0.28165058256E+02  0.18593694713E+02  0.38637361358E+02  0.00000000000E+00 0. -1.
        -11    1    5    5    0    0 -0.65535703749E+02  0.22398772644E+03  0.31003309616E+03  0.38805405651E+03  0.00000000000E+00 0.  1.
          3    1    6    6  503    0  0.91021227428E+02 -0.27142170893E+03 -0.39705740284E+02  0.28901756648E+03  0.00000000000E+00 0. -1.
         -3    1    6    6    0  503  0.14805197455E+03 -0.25613042800E+03  0.29803395064E+02  0.29733890709E+03  0.00000000000E+00 0.  1.
<mgrwt>
<rscale>  0 0.15724555E+04</rscale>
<asrwt>0</asrwt>
<pdfrwt beam="1">  1        2 0.11151981E+00 0.15724555E+04</pdfrwt>
<pdfrwt beam="2">  1       -1 0.13119521E+00 0.15724555E+04</pdfrwt>
<totfact> 0.21313487E+01</totfact>
</mgrwt>
</event>
<event>
12    6  0.1395358E-007  0.3422517E+04  0.7818608E-02  0.8132402E-01
         -1   -1    0    0    0  501 -0.00000000000E+00  0.00000000000E+00  0.69154007440E+03  0.69154007440E+03  0.00000000000E+00 0.  1.
          2   -1    0    0  501    0  0.00000000000E+00 -0.00000000000E+00 -0.42346144504E+04  0.42346144504E+04  0.00000000000E+00 0. -1.
         24    2    1    2    0    0  0.14239076430E+04  0.69827378618E+03 -0.17966951613E+04  0.23978252585E+04  0.79707037434E+02 0.  0.
        254    2    1    2    0    0 -0.14239076430E+04 -0.69827378618E+03 -0.17463792147E+04  0.25283292663E+04  0.90967536015E+03 0.  0.
         23    2    4    4    0    0 -0.25559458988E+03  0.17061358204E+03 -0.57309224158E+03  0.65626554459E+03  0.88386418119E+02 0.  0.
         23    2    4    4    0    0 -0.11683130531E+04 -0.86888736822E+03 -0.11732869731E+04  0.18720637217E+04  0.89997822149E+02 0.  0.
          2    1    3    3  502    0  0.48996198801E+03  0.24745698353E+03 -0.67894905649E+03  0.87308048294E+03  0.00000000000E+00 0. -1.
         -1    1    3    3    0  502  0.93394565494E+03  0.45081680265E+03 -0.11177461048E+04  0.15247447756E+04  0.00000000000E+00 0.  1.
         11    1    5    5    0    0 -0.15679287875E+03  0.12788205655E+03 -0.29184618993E+03  0.35512255038E+03  0.00000000000E+00 0.  1.
        -11    1    5    5    0    0 -0.98801711129E+02  0.42731525494E+02 -0.28124605165E+03  0.30114299421E+03  0.00000000000E+00 0. -1.
          3    1    6    6  503    0 -0.13357248989E+03 -0.10741584826E+03 -0.10336133362E+03  0.20015828686E+03  0.00000000000E+00 0. -1.
         -3    1    6    6    0  503 -0.10347405632E+04 -0.76147151996E+03 -0.10699256395E+04  0.16719054348E+04  0.00000000000E+00 0.  1.
<mgrwt>
<rscale>  0 0.34225170E+04</rscale>
<asrwt>0</asrwt>
<pdfrwt beam="1">  1        2 0.65147913E+00 0.34225170E+04</pdfrwt>
<pdfrwt beam="2">  1       -1 0.10639078E+00 0.34225170E+04</pdfrwt>
<totfact> 0.16752508E-01</totfact>
</mgrwt>
</event>
<event>
12    6  0.1395358E-007  0.1747112E+04  0.7818608E-02  0.8734941E-01
          2   -1    0    0  501    0  0.00000000000E+00  0.00000000000E+00  0.27183501664E+04  0.27183501664E+04  0.00000000000E+00 0. -1.
         -3   -1    0    0    0  501 -0.00000000000E+00 -0.00000000000E+00 -0.28072183924E+03  0.28072183924E+03  0.00000000000E+00 0.  1.
         24    2    1    2    0    0 -0.33598161045E+03 -0.39934720285E+03  0.26772025662E+03  0.59286547528E+03  0.86333683933E+02 0.  0.
        254    2    1    2    0    0  0.33598161045E+03  0.39934720285E+03  0.21699080706E+04  0.24062065304E+04  0.89942592867E+03 0.  0.
         23    2    4    4    0    0  0.10275817744E+03  0.66022912457E+03  0.13104717039E+04  0.14739258475E+04  0.93056849737E+02 0.  0.
         23    2    4    4    0    0  0.23322343301E+03 -0.26088192172E+03  0.85943636667E+03  0.93228068287E+03  0.89798978363E+02 0.  0.
          2    1    3    3  502    0 -0.24463304767E+03 -0.25949382152E+03  0.22045207076E+03  0.41926302833E+03  0.00000000000E+00 0. -1.
         -1    1    3    3    0  502 -0.91348562785E+02 -0.13985338133E+03  0.47268185860E+02  0.17360244695E+03  0.00000000000E+00 0.  1.
         11    1    5    5    0    0 -0.12743963074E+02  0.12176552085E+03  0.20243088282E+03  0.23657454001E+03  0.00000000000E+00 0. -1.
        -11    1    5    5    0    0  0.11550214052E+03  0.53846360372E+03  0.11080408211E+04  0.12373513075E+04  0.00000000000E+00 0.  1.
          4    1    6    6  503    0  0.21022860381E+03 -0.26019641790E+03  0.76245047671E+03  0.83260372998E+03  0.00000000000E+00 0.  1.
         -4    1    6    6    0  503  0.22994829204E+02 -0.68550381827E+00  0.96985889966E+02  0.99676952893E+02  0.00000000000E+00 0. -1.
<mgrwt>
<rscale>  0 0.17471122E+04</rscale>
<asrwt>0</asrwt>
<pdfrwt beam="1">  1        2 0.41820770E+00 0.17471122E+04</pdfrwt>
<pdfrwt beam="2">  1       -3 0.43187977E-01 0.17471122E+04</pdfrwt>
<totfact> 0.84817745E+00</totfact>
</mgrwt>
</event>
<event>
12    6  0.1395358E-007  0.1869553E+04  0.7818608E-02  0.8670162E-01
         -1   -1    0    0    0  501 -0.00000000000E+00  0.00000000000E+00  0.10202884279E+04  0.10202884279E+04  0.00000000000E+00 0.  1.
          2   -1    0    0  501    0  0.00000000000E+00 -0.00000000000E+00 -0.85643138538E+03  0.85643138538E+03  0.00000000000E+00 0. -1.
         24    2    1    2    0    0 -0.37133161142E+03 -0.57352293630E+03  0.28257030431E+03  0.74372031809E+03  0.80362992452E+02 0.  0.
        254    2    1    2    0    0  0.37133161142E+03  0.57352293630E+03 -0.11871326176E+03  0.11329994952E+04  0.89597951627E+03 0.  0.
         23    2    4    4    0    0 -0.18970007506E+03  0.14617195056E+03  0.22671495272E+03  0.34223441150E+03  0.91500628530E+02 0.  0.
         23    2    4    4    0    0  0.56103168648E+03  0.42735098574E+03 -0.34542821448E+03  0.79076508373E+03  0.92754234600E+02 0.  0.
          4    1    3    3  502    0 -0.29254034258E+03 -0.41171179435E+03  0.17763645071E+03  0.53538879543E+03  0.00000000000E+00 0. -1.
         -3    1    3    3    0  502 -0.78791268845E+02 -0.16181114195E+03  0.10493385360E+03  0.20833152267E+03  0.00000000000E+00 0.  1.
         11    1    5    5    0    0 -0.38849493168E+02 -0.44779053373E+01  0.59894409181E+02  0.71530937410E+02  0.00000000000E+00 0. -1.
        -11    1    5    5    0    0 -0.15085058189E+03  0.15064985590E+03  0.16682054354E+03  0.27070347409E+03  0.00000000000E+00 0.  1.
          2    1    6    6  503    0  0.31809678866E+03  0.24522766562E+03 -0.14531428058E+03  0.42712810148E+03  0.00000000000E+00 0. -1.
         -2    1    6    6    0  503  0.24293489783E+03  0.18212332012E+03 -0.20011393390E+03  0.36363698225E+03  0.00000000000E+00 0.  1.
<mgrwt>
<rscale>  0 0.18695529E+04</rscale>
<asrwt>0</asrwt>
<pdfrwt beam="1">  1        2 0.13175867E+00 0.18695529E+04</pdfrwt>
<pdfrwt beam="2">  1       -1 0.15696745E+00 0.18695529E+04</pdfrwt>
<totfact> 0.10373810E+01</totfact>
</mgrwt>
</event>
<event>
12    6  0.1395358E-007  0.1131541E+04  0.7818608E-02  0.9174984E-01
          2   -1    0    0  501    0  0.00000000000E+00  0.00000000000E+00  0.52871823410E+03  0.52871823410E+03  0.00000000000E+00 0. -1.
         -1   -1    0    0    0  501 -0.00000000000E+00 -0.00000000000E+00 -0.60541890083E+03  0.60541890083E+03  0.00000000000E+00 0.  1.
         24    2    1    2    0    0 -0.16687607176E+02 -0.11508181780E+03  0.14347411921E+03  0.20114143078E+03  0.79691601006E+02 0.  0.
        254    2    1    2    0    0  0.16687607176E+02  0.11508181780E+03 -0.22017478594E+03  0.93299570415E+03  0.89915613025E+03 0.  0.
         23    2    4    4    0    0 -0.18261978611E+03  0.44124099814E+03 -0.47195932315E+01  0.48599854872E+03  0.90159359373E+02 0.  0.
         23    2    4    4    0    0  0.19930739328E+03 -0.32615918034E+03 -0.21545519271E+03  0.44699715543E+03  0.85336211307E+02 0.  0.
          4    1    3    3  502    0 -0.10639849318E+02 -0.48992042354E+02  0.12116311128E+03  0.13112561207E+03  0.00000000000E+00 0. -1.
         -1    1    3    3    0  502 -0.60477578581E+01 -0.66089775446E+02  0.22311007930E+02  0.70015818701E+02  0.00000000000E+00 0.  1.
         11    1    5    5    0    0 -0.14428470266E+03  0.28557287839E+03 -0.38186543937E+02  0.32222376764E+03  0.00000000000E+00 0. -1.
        -11    1    5    5    0    0 -0.38335083446E+02  0.15566811974E+03  0.33466950705E+02  0.16377478108E+03  0.00000000000E+00 0.  1.
          3    1    6    6  503    0  0.18115137279E+03 -0.32454137995E+03 -0.19544942454E+03  0.41993261926E+03  0.00000000000E+00 0. -1.
         -3    1    6    6    0  503  0.18156020497E+02 -0.16178003895E+01 -0.20005768162E+02  0.27064536171E+02  0.00000000000E+00 0.  1.
<mgrwt>
<rscale>  0 0.11315406E+04</rscale>
<asrwt>0</asrwt>
<pdfrwt beam="1">  1        2 0.81341266E-01 0.11315406E+04</pdfrwt>
<pdfrwt beam="2">  1       -1 0.93141370E-01 0.11315406E+04</pdfrwt>
<totfact> 0.73194665E+01</totfact>
</mgrwt>
</event>
<event>
12    6  0.1395358E-007  0.3025445E+04  0.7818608E-02  0.8236502E-01
          2   -1    0    0  501    0  0.00000000000E+00  0.00000000000E+00  0.20451813862E+04  0.20451813862E+04  0.00000000000E+00 0. -1.
         -1   -1    0    0    0  501 -0.00000000000E+00 -0.00000000000E+00 -0.11188883478E+04  0.11188883478E+04  0.00000000000E+00 0.  1.
         24    2    1    2    0    0 -0.40392270957E+03 -0.77429412198E+03 -0.69203694861E+03  0.11165015700E+04  0.70538463654E+02 0.  0.
        254    2    1    2    0    0  0.40392270957E+03  0.77429412198E+03  0.16183299870E+04  0.20475681641E+04  0.90047681654E+03 0.  0.
         23    2    4    4    0    0  0.25492722843E+03  0.16766511094E+03  0.81232863786E+01  0.31852907919E+03  0.91078566576E+02 0.  0.
         23    2    4    4    0    0  0.14899548114E+03  0.60662901104E+03  0.16102067006E+04  0.17290390849E+04  0.81314992184E+02 0.  0.
          2    1    3    3  502    0 -0.57173156922E+02 -0.12137221379E+03 -0.76032289765E+02  0.15421054840E+03  0.00000000000E+00 0. -1.
         -1    1    3    3    0  502 -0.34674955265E+03 -0.65292190819E+03 -0.61600465884E+03  0.96229102156E+03  0.00000000000E+00 0.  1.
         11    1    5    5    0    0  0.11520519074E+03  0.11682930947E+03  0.34129427300E+02  0.16758920410E+03  0.00000000000E+00 0. -1.
        -11    1    5    5    0    0  0.13972203769E+03  0.50835801476E+02 -0.26006140921E+02  0.15093987509E+03  0.00000000000E+00 0.  1.
          3    1    6    6  503    0  0.47771165413E+02  0.17612349966E+03  0.57679866369E+03  0.60497790853E+03  0.00000000000E+00 0. -1.
         -3    1    6    6    0  503  0.10122431573E+03  0.43050551139E+03  0.10334080369E+04  0.11240611763E+04  0.00000000000E+00 0.  1.
<mgrwt>
<rscale>  0 0.30254452E+04</rscale>
<asrwt>0</asrwt>
<pdfrwt beam="1">  1        2 0.31464329E+00 0.30254452E+04</pdfrwt>
<pdfrwt beam="2">  1       -1 0.17213667E+00 0.30254452E+04</pdfrwt>
<totfact> 0.14539398E+00</totfact>
</mgrwt>
</event>
<event>
12    6  0.1395358E-007  0.1729445E+04  0.7818608E-02  0.8744747E-01
          4   -1    0    0  501    0  0.00000000000E+00  0.00000000000E+00  0.11775102079E+04  0.11775102079E+04  0.00000000000E+00 0. -1.
         -1   -1    0    0    0  501 -0.00000000000E+00 -0.00000000000E+00 -0.63502224828E+03  0.63502224828E+03  0.00000000000E+00 0.  1.
         24    2    1    2    0    0  0.18720239452E+03  0.96950411634E+02  0.81800420687E+03  0.84857378725E+03  0.80637901330E+02 0.  0.
        254    2    1    2    0    0 -0.18720239452E+03 -0.96950411634E+02 -0.27551624730E+03  0.96395866889E+03  0.89936810816E+03 0.  0.
         23    2    4    4    0    0  0.26133115923E+02  0.46405426180E+02 -0.55952646657E+03  0.56950643376E+03  0.91822154102E+02 0.  0.
         23    2    4    4    0    0 -0.21333551044E+03 -0.14335583781E+03  0.28401021927E+03  0.39445223512E+03  0.94169129200E+02 0.  0.
          4    1    3    3  502    0  0.14228847464E+03  0.69524486727E+02  0.72127232977E+03  0.73845340948E+03  0.00000000000E+00 0. -1.
         -3    1    3    3    0  502  0.44913919872E+02  0.27425924908E+02  0.96731877091E+02  0.11012037777E+03  0.00000000000E+00 0.  1.
         11    1    5    5    0    0  0.51442215112E+02 -0.95029321102E+00 -0.31296577672E+03  0.31716680462E+03  0.00000000000E+00 0. -1.
        -11    1    5    5    0    0 -0.25309099190E+02  0.47355719391E+02 -0.24656068985E+03  0.25233962915E+03  0.00000000000E+00 0.  1.
          4    1    6    6  503    0 -0.63476415048E+02 -0.75454612927E+02  0.56362763546E+02  0.11357559154E+03  0.00000000000E+00 0. -1.
         -4    1    6    6    0  503 -0.14985909539E+03 -0.67901224888E+02  0.22764745572E+03  0.28087664358E+03  0.00000000000E+00 0.  1.
<mgrwt>
<rscale>  0 0.17294452E+04</rscale>
<asrwt>0</asrwt>
<pdfrwt beam="1">  1        4 0.18115542E+00 0.17294452E+04</pdfrwt>
<pdfrwt beam="2">  1       -1 0.97695730E-01 0.17294452E+04</pdfrwt>
<totfact> 0.69108227E-01</totfact>
</mgrwt>
</event>
<event>
12    6  0.1395358E-007  0.2513428E+04  0.7818608E-02  0.8398217E-01
         -1   -1    0    0    0  501 -0.00000000000E+00  0.00000000000E+00  0.40472461078E+03  0.40472461078E+03  0.00000000000E+00 0.  1.
          2   -1    0    0  501    0  0.00000000000E+00 -0.00000000000E+00 -0.39022347266E+04  0.39022347266E+04  0.00000000000E+00 0. -1.
         24    2    1    2    0    0  0.10353730777E+04  0.23561585410E+03 -0.19753763309E+04  0.22441120331E+04  0.80093243424E+02 0.  0.
        254    2    1    2    0    0 -0.10353730777E+04 -0.23561585410E+03 -0.15221337849E+04  0.20628473043E+04  0.90051957282E+03 0.  0.
         23    2    4    4    0    0 -0.43528848979E+03 -0.17397328280E+03 -0.13454002949E+04  0.14275858456E+04  0.90314009662E+02 0.  0.
         23    2    4    4    0    0 -0.60008458787E+03 -0.61642571300E+02 -0.17673348999E+03  0.63526145875E+03  0.91766417015E+02 0.  0.
          4    1    3    3  502    0  0.10226375580E+04  0.22831082527E+03 -0.19619270018E+04  0.22242011979E+04  0.00000000000E+00 0. -1.
         -3    1    3    3    0  502  0.12735519647E+02  0.73050288369E+01 -0.13449329085E+02  0.19910835237E+02  0.00000000000E+00 0.  1.
         11    1    5    5    0    0 -0.26663463616E+03 -0.10760660902E+03 -0.95138609326E+03  0.99388566242E+03  0.00000000000E+00 0. -1.
        -11    1    5    5    0    0 -0.16865385363E+03 -0.66366673784E+02 -0.39401420168E+03  0.43370018314E+03  0.00000000000E+00 0.  1.
          2    1    6    6  503    0 -0.55627541291E+03 -0.63076855830E+02 -0.18699415704E+03  0.59024388139E+03  0.00000000000E+00 0. -1.
         -2    1    6    6    0  503 -0.43809174959E+02  0.14342845300E+01  0.10260667056E+02  0.45017577357E+02  0.00000000000E+00 0.  1.
<mgrwt>
<rscale>  0 0.25134283E+04</rscale>
<asrwt>0</asrwt>
<pdfrwt beam="1">  1        2 0.60034378E+00 0.25134283E+04</pdfrwt>
<pdfrwt beam="2">  1       -1 0.62265328E-01 0.25134283E+04</pdfrwt>
<totfact> 0.10882707E+00</totfact>
</mgrwt>
</event>
<event>
12    6  0.1395358E-007  0.3162196E+04  0.7818608E-02  0.8198873E-01
          2   -1    0    0  501    0  0.00000000000E+00  0.00000000000E+00  0.21751579216E+04  0.21751579216E+04  0.00000000000E+00 0. -1.
         -1   -1    0    0    0  501 -0.00000000000E+00 -0.00000000000E+00 -0.11492822293E+04  0.11492822293E+04  0.00000000000E+00 0.  1.
         24    2    1    2    0    0 -0.71219041043E+03 -0.70191799593E+03 -0.63538281054E+03  0.11874436168E+04  0.80043571738E+02 0.  0.
        254    2    1    2    0    0  0.71219041043E+03  0.70191799593E+03  0.16612585028E+04  0.21369965341E+04  0.89837092551E+03 0.  0.
         23    2    4    4    0    0  0.15574488271E+03  0.68866304230E+03  0.12513322826E+04  0.14396571353E+04  0.90922666463E+02 0.  0.
         23    2    4    4    0    0  0.55644552772E+03  0.13254953630E+02  0.40992622020E+03  0.69733939882E+03  0.91844499146E+02 0.  0.
          4    1    3    3  502    0 -0.81082638194E+01 -0.37744605474E+01 -0.16068985885E+02  0.18390290970E+02  0.00000000000E+00 0. -1.
         -3    1    3    3    0  502 -0.70408214661E+03 -0.69814353539E+03 -0.61931382465E+03  0.11690533258E+04  0.00000000000E+00 0.  1.
         11    1    5    5    0    0  0.10595896382E+03  0.42142097285E+03  0.85455305164E+03  0.95868861286E+03  0.00000000000E+00 0. -1.
        -11    1    5    5    0    0  0.49785918887E+02  0.26724206946E+03  0.39677923101E+03  0.48096852243E+03  0.00000000000E+00 0.  1.
          1    1    6    6  503    0  0.13384762435E+03 -0.69283492325E+01  0.14835166863E+03  0.19992850261E+03  0.00000000000E+00 0.  1.
         -1    1    6    6    0  503  0.42259790337E+03  0.20183302863E+02  0.26157455156E+03  0.49741089621E+03  0.00000000000E+00 0. -1.
<mgrwt>
<rscale>  0 0.31621957E+04</rscale>
<asrwt>0</asrwt>
<pdfrwt beam="1">  1        2 0.33463968E+00 0.31621957E+04</pdfrwt>
<pdfrwt beam="2">  1       -1 0.17681265E+00 0.31621957E+04</pdfrwt>
<totfact> 0.11238795E+00</totfact>
</mgrwt>
</event>
<event>
12    6  0.1395358E-007  0.1377064E+04  0.7818608E-02  0.8970590E-01
         -1   -1    0    0    0  501 -0.00000000000E+00  0.00000000000E+00  0.52011992964E+03  0.52011992964E+03  0.00000000000E+00 0.  1.
          2   -1    0    0  501    0  0.00000000000E+00 -0.00000000000E+00 -0.91147487011E+03  0.91147487011E+03  0.00000000000E+00 0. -1.
         24    2    1    2    0    0  0.38227059137E+03  0.26351736840E+02 -0.16803517291E+03  0.42585717103E+03  0.79330269907E+02 0.  0.
        254    2    1    2    0    0 -0.38227059137E+03 -0.26351736840E+02 -0.22331976756E+03  0.10057376287E+04  0.90266895382E+03 0.  0.
         23    2    4    4    0    0  0.14005585981E+03 -0.18244802115E+03 -0.36050133780E+03  0.43671251218E+03  0.88620987655E+02 0.  0.
         23    2    4    4    0    0 -0.52232645118E+03  0.15609628431E+03  0.13718157023E+03  0.56902511654E+03  0.88203335914E+02 0.  0.
          4    1    3    3  502    0  0.32704659768E+03  0.15360497585E+01 -0.16211548020E+03  0.36502502027E+03  0.00000000000E+00 0. -1.
         -3    1    3    3    0  502  0.55223993685E+02  0.24815687081E+02 -0.59196927080E+01  0.60832150756E+02  0.00000000000E+00 0.  1.
         11    1    5    5    0    0  0.65136628467E+02 -0.57851558863E+02 -0.69611006754E+02  0.11151356640E+03  0.00000000000E+00 0.  1.
        -11    1    5    5    0    0  0.74919231346E+02 -0.12459646228E+03 -0.29089033105E+03  0.32519894578E+03  0.00000000000E+00 0. -1.
          3    1    6    6  503    0 -0.23990285811E+03  0.11686861791E+03  0.74904364935E+02  0.27716839479E+03  0.00000000000E+00 0. -1.
         -3    1    6    6    0  503 -0.28242359307E+03  0.39227666392E+02  0.62277205300E+02  0.29185672176E+03  0.00000000000E+00 0.  1.
<mgrwt>
<rscale>  0 0.13770639E+04</rscale>
<asrwt>0</asrwt>
<pdfrwt beam="1">  1        2 0.14022690E+00 0.13770639E+04</pdfrwt>
<pdfrwt beam="2">  1       -1 0.80018451E-01 0.13770639E+04</pdfrwt>
<totfact> 0.49979241E+01</totfact>
</mgrwt>
</event>
<event>
12    6  0.1395358E-007  0.2328703E+04  0.7818608E-02  0.8466689E-01
         -1   -1    0    0    0  501 -0.00000000000E+00  0.00000000000E+00  0.12679555917E+04  0.12679555917E+04  0.00000000000E+00 0.  1.
          2   -1    0    0  501    0  0.00000000000E+00 -0.00000000000E+00 -0.10692129503E+04  0.10692129503E+04  0.00000000000E+00 0. -1.
         24    2    1    2    0    0  0.36109819753E+03  0.88311282079E+03 -0.17411010158E+03  0.97340399661E+03  0.83191650177E+02 0.  0.
        254    2    1    2    0    0 -0.36109819753E+03 -0.88311282079E+03  0.37285274295E+03  0.13637645454E+04  0.90030795007E+03 0.  0.
         23    2    4    4    0    0  0.12299557771E+03  0.11287440628E+03 -0.51714326472E+01  0.19004237221E+03  0.90668714498E+02 0.  0.
         23    2    4    4    0    0 -0.48409377524E+03 -0.99598722707E+03  0.37802417560E+03  0.11737221732E+04  0.91564856127E+02 0.  0.
          2    1    3    3  502    0  0.64887563159E+02  0.13431970806E+03  0.17052462573E+01  0.14918139191E+03  0.00000000000E+00 0. -1.
         -1    1    3    3    0  502  0.29621063437E+03  0.74879311273E+03 -0.17581534783E+03  0.82422260471E+03  0.00000000000E+00 0.  1.
         11    1    5    5    0    0  0.82944900735E+02  0.11536604167E+03  0.18757339837E+02  0.14332137986E+03  0.00000000000E+00 0. -1.
        -11    1    5    5    0    0  0.40050676977E+02 -0.24916353850E+01 -0.23928772485E+02  0.46720992346E+02  0.00000000000E+00 0.  1.
          3    1    6    6  503    0 -0.45454275153E+03 -0.97232046606E+03  0.36520699377E+03  0.11337514498E+04  0.00000000000E+00 0. -1.
         -3    1    6    6    0  503 -0.29551023710E+02 -0.23666761005E+02  0.12817181831E+02  0.39970723397E+02  0.00000000000E+00 0.  1.
<mgrwt>
<rscale>  0 0.23287031E+04</rscale>
<asrwt>0</asrwt>
<pdfrwt beam="1">  1        2 0.16449430E+00 0.23287031E+04</pdfrwt>
<pdfrwt beam="2">  1       -1 0.19507009E+00 0.23287031E+04</pdfrwt>
<totfact> 0.38231804E+00</totfact>
</mgrwt>
</event>
<event>
12    6  0.1395358E-007  0.1991973E+04  0.7818608E-02  0.8610383E-01
         -1   -1    0    0    0  501 -0.00000000000E+00  0.00000000000E+00  0.48445579242E+03  0.48445579242E+03  0.00000000000E+00 0.  1.
          2   -1    0    0  501    0  0.00000000000E+00 -0.00000000000E+00 -0.20476353215E+04  0.20476353215E+04  0.00000000000E+00 0. -1.
         24    2    1    2    0    0  0.32322822614E+03 -0.71292725614E+03 -0.80078189685E+03  0.11227141092E+04  0.80582665454E+02 0.  0.
        254    2    1    2    0    0 -0.32322822614E+03  0.71292725614E+03 -0.76239763220E+03  0.14093770047E+04  0.89014135565E+03 0.  0.
         23    2    4    4    0    0 -0.10956007839E+03 -0.18247143052E+03 -0.38274020750E+02  0.23461604075E+03  0.90997539422E+02 0.  0.
         23    2    4    4    0    0 -0.21366814775E+03  0.89539868666E+03 -0.72412361145E+03  0.11747609639E+04  0.91188992096E+02 0.  0.
          4    1    3    3  502    0  0.22234194820E+03 -0.51713871253E+03 -0.62319588403E+03  0.83978657991E+03  0.00000000000E+00 0. -1.
         -3    1    3    3    0  502  0.10088627793E+03 -0.19578854360E+03 -0.17758601282E+03  0.28292752929E+03  0.00000000000E+00 0.  1.
         11    1    5    5    0    0 -0.12263471554E+03 -0.16273348321E+03 -0.47457803286E+02  0.20922166022E+03  0.00000000000E+00 0. -1.
        -11    1    5    5    0    0  0.13074637154E+02 -0.19737947314E+02  0.91837825361E+01  0.25394380531E+02  0.00000000000E+00 0.  1.
          3    1    6    6  503    0 -0.21187549164E+03  0.89081222689E+03 -0.70671489237E+03  0.11566691777E+04  0.00000000000E+00 0. -1.
         -3    1    6    6    0  503 -0.17926561112E+01  0.45864597713E+01 -0.17408719081E+02  0.18091786236E+02  0.00000000000E+00 0.  1.
<mgrwt>
<rscale>  0 0.19919727E+04</rscale>
<asrwt>0</asrwt>
<pdfrwt beam="1">  1        2 0.31502082E+00 0.19919727E+04</pdfrwt>
<pdfrwt beam="2">  1       -1 0.74531660E-01 0.19919727E+04</pdfrwt>
<totfact> 0.12050678E+01</totfact>
</mgrwt>
</event>
<event>
12    6  0.1395358E-007  0.2304610E+04  0.7818608E-02  0.8476106E-01
          2   -1    0    0  501    0  0.00000000000E+00  0.00000000000E+00  0.25944590431E+04  0.25944590431E+04  0.00000000000E+00 0. -1.
         -1   -1    0    0    0  501 -0.00000000000E+00 -0.00000000000E+00 -0.51178540768E+03  0.51178540768E+03  0.00000000000E+00 0.  1.
         24    2    1    2    0    0 -0.68146813193E+03  0.51239385158E+03  0.15170703674E+04  0.17420468330E+04  0.79236323166E+02 0.  0.
        254    2    1    2    0    0  0.68146813193E+03 -0.51239385158E+03  0.56560326806E+03  0.13641976178E+04  0.90232023669E+03 0.  0.
         23    2    4    4    0    0  0.43126624870E+03 -0.36317083050E+03  0.79770616580E+03  0.98112715132E+03  0.91606390136E+02 0.  0.
         23    2    4    4    0    0  0.25020188323E+03 -0.14922302108E+03 -0.23210289774E+03  0.38307046645E+03  0.89458005441E+02 0.  0.
          2    1    3    3  502    0 -0.17117808614E+03  0.14696209513E+03  0.46831916146E+03  0.51982942545E+03  0.00000000000E+00 0. -1.
         -1    1    3    3    0  502 -0.51029004579E+03  0.36543175645E+03  0.10487512059E+04  0.12222174076E+04  0.00000000000E+00 0.  1.
         11    1    5    5    0    0  0.35341152124E+03 -0.30945896746E+03  0.71486932373E+03  0.85539622743E+03  0.00000000000E+00 0.  1.
        -11    1    5    5    0    0  0.77854727463E+02 -0.53711863043E+02  0.82836842065E+02  0.12573092389E+03  0.00000000000E+00 0. -1.
          2    1    6    6  503    0 -0.49418223091E+01 -0.14114265327E+02 -0.19268247739E+02  0.24390560969E+02  0.00000000000E+00 0. -1.
         -2    1    6    6    0  503  0.25514370554E+03 -0.13510875575E+03 -0.21283465000E+03  0.35867990548E+03  0.00000000000E+00 0.  1.
<mgrwt>
<rscale>  0 0.23046095E+04</rscale>
<asrwt>0</asrwt>
<pdfrwt beam="1">  1        2 0.39914754E+00 0.23046095E+04</pdfrwt>
<pdfrwt beam="2">  1       -1 0.78736218E-01 0.23046095E+04</pdfrwt>
<totfact> 0.51018579E+00</totfact>
</mgrwt>
</event>
<event>
12    6  0.1395358E-007  0.2517613E+04  0.7818608E-02  0.8396738E-01
          2   -1    0    0  501    0  0.00000000000E+00  0.00000000000E+00  0.14519873180E+04  0.14519873180E+04  0.00000000000E+00 0. -1.
         -1   -1    0    0    0  501 -0.00000000000E+00 -0.00000000000E+00 -0.10913272539E+04  0.10913272539E+04  0.00000000000E+00 0.  1.
         24    2    1    2    0    0  0.60894614163E+03 -0.90236578338E+03  0.28717759210E+03  0.11290964843E+04  0.85489712450E+02 0.  0.
        254    2    1    2    0    0 -0.60894614163E+03  0.90236578338E+03  0.73482472054E+02  0.14142180876E+04  0.89974091561E+03 0.  0.
         23    2    4    4    0    0 -0.73896466388E+03  0.94271920018E+03  0.18650982273E+03  0.12157166578E+04  0.91612297812E+02 0.  0.
         23    2    4    4    0    0  0.13001852225E+03 -0.40353416795E+02 -0.11302735068E+03  0.19850142987E+03  0.89969001788E+02 0.  0.
          4    1    3    3  502    0  0.21403165614E+03 -0.25285529338E+03  0.10356653781E+03  0.34708986873E+03  0.00000000000E+00 0. -1.
         -3    1    3    3    0  502  0.39491448549E+03 -0.64951049001E+03  0.18361105429E+03  0.78200661553E+03  0.00000000000E+00 0.  1.
         11    1    5    5    0    0 -0.36864211798E+03  0.53047205967E+03  0.12729082734E+03  0.65840760321E+03  0.00000000000E+00 0.  1.
        -11    1    5    5    0    0 -0.37032254590E+03  0.41224714051E+03  0.59218995386E+02  0.55730905454E+03  0.00000000000E+00 0. -1.
          1    1    6    6  503    0  0.10826462066E+03 -0.24034225273E+02 -0.35658031365E+02  0.11649191934E+03  0.00000000000E+00 0. -1.
         -1    1    6    6    0  503  0.21753901595E+02 -0.16319191521E+02 -0.77369319310E+02  0.82009510528E+02  0.00000000000E+00 0.  1.
<mgrwt>
<rscale>  0 0.25176126E+04</rscale>
<asrwt>0</asrwt>
<pdfrwt beam="1">  1        2 0.22338267E+00 0.25176126E+04</pdfrwt>
<pdfrwt beam="2">  1       -1 0.16789650E+00 0.25176126E+04</pdfrwt>
<totfact> 0.34965786E+00</totfact>
</mgrwt>
</event>
<event>
12    6  0.1395358E-007  0.2247537E+04  0.7818608E-02  0.8498899E-01
         -1   -1    0    0    0  501 -0.00000000000E+00  0.00000000000E+00  0.80005758097E+03  0.80005758097E+03  0.00000000000E+00 0.  1.
          2   -1    0    0  501    0  0.00000000000E+00 -0.00000000000E+00 -0.15784556257E+04  0.15784556257E+04  0.00000000000E+00 0. -1.
         24    2    1    2    0    0 -0.49291308289E+03  0.78994009678E+03 -0.17661327868E+03  0.95107368010E+03  0.79876348106E+02 0.  0.
        254    2    1    2    0    0  0.49291308289E+03 -0.78994009678E+03 -0.60178476606E+03  0.14274395266E+04  0.89914961693E+03 0.  0.
         23    2    4    4    0    0  0.29977754545E+03 -0.34721618218E+01  0.12275893018E+03  0.33714609851E+03  0.93376143303E+02 0.  0.
         23    2    4    4    0    0  0.19313553744E+03 -0.78646793495E+03 -0.72454369624E+03  0.10902934281E+04  0.89123751110E+02 0.  0.
          2    1    3    3  502    0 -0.21706113170E+03  0.33883186786E+03 -0.36431779957E+02  0.40404188417E+03  0.00000000000E+00 0. -1.
         -1    1    3    3    0  502 -0.27585195119E+03  0.45110822892E+03 -0.14018149872E+03  0.54703179593E+03  0.00000000000E+00 0.  1.
         11    1    5    5    0    0  0.25001449070E+03 -0.34366119895E+01  0.13736186639E+03  0.28528466170E+03  0.00000000000E+00 0. -1.
        -11    1    5    5    0    0  0.49763054755E+02 -0.35549832298E-01 -0.14602936216E+02  0.51861436814E+02  0.00000000000E+00 0.  1.
          4    1    6    6  503    0  0.90850262095E+02 -0.30168399137E+03 -0.33638951391E+03  0.46089576462E+03  0.00000000000E+00 0. -1.
         -4    1    6    6    0  503  0.10228527534E+03 -0.48478394358E+03 -0.38815418232E+03  0.62939766346E+03  0.00000000000E+00 0.  1.
<mgrwt>
<rscale>  0 0.22475368E+04</rscale>
<asrwt>0</asrwt>
<pdfrwt beam="1">  1        2 0.24283933E+00 0.22475368E+04</pdfrwt>
<pdfrwt beam="2">  1       -1 0.12308578E+00 0.22475368E+04</pdfrwt>
<totfact> 0.69149364E+00</totfact>
</mgrwt>
</event>
<event>
12    6  0.1395358E-007  0.2416255E+04  0.7818608E-02  0.8433443E-01
         -1   -1    0    0    0  501 -0.00000000000E+00  0.00000000000E+00  0.88271733156E+03  0.88271733156E+03  0.00000000000E+00 0.  1.
          2   -1    0    0  501    0  0.00000000000E+00 -0.00000000000E+00 -0.16534993006E+04  0.16534993006E+04  0.00000000000E+00 0. -1.
         24    2    1    2    0    0 -0.44457583302E+03 -0.81693089836E+03 -0.81687693136E+03  0.12404364585E+04  0.79818058553E+02 0.  0.
        254    2    1    2    0    0  0.44457583302E+03  0.81693089836E+03  0.46094962333E+02  0.12957801737E+04  0.90105368817E+03 0.  0.
         23    2    4    4    0    0  0.46963095411E+03  0.59124826099E+03 -0.34609180374E+03  0.83580050294E+03  0.93033353793E+02 0.  0.
         23    2    4    4    0    0 -0.25055121089E+02  0.22568263737E+03  0.39218676607E+03  0.45997967075E+03  0.78806256834E+02 0.  0.
          2    1    3    3  502    0 -0.38267703918E+03 -0.65627103326E+03 -0.63666861097E+03  0.99120144552E+03  0.00000000000E+00 0. -1.
         -1    1    3    3    0  502 -0.61898793841E+02 -0.16065986510E+03 -0.18020832039E+03  0.24923501293E+03  0.00000000000E+00 0.  1.
         11    1    5    5    0    0  0.36051367674E+03  0.43585541123E+03 -0.21523594393E+03  0.60519960524E+03  0.00000000000E+00 0.  1.
        -11    1    5    5    0    0  0.10911727737E+03  0.15539284976E+03 -0.13085585980E+03  0.23060089770E+03  0.00000000000E+00 0. -1.
          3    1    6    6  503    0  0.12849383967E+02  0.15436579419E+03  0.21237985674E+03  0.26286709310E+03  0.00000000000E+00 0. -1.
         -3    1    6    6    0  503 -0.37904505056E+02  0.71316843180E+02  0.17980690933E+03  0.19711257765E+03  0.00000000000E+00 0.  1.
<mgrwt>
<rscale>  0 0.24162554E+04</rscale>
<asrwt>0</asrwt>
<pdfrwt beam="1">  1        2 0.25438451E+00 0.24162554E+04</pdfrwt>
<pdfrwt beam="2">  1       -1 0.13580267E+00 0.24162554E+04</pdfrwt>
<totfact> 0.48294738E+00</totfact>
</mgrwt>
</event>
<event>
12    6  0.1395358E-007  0.3214170E+04  0.7818608E-02  0.8185085E-01
          2   -1    0    0  501    0  0.00000000000E+00  0.00000000000E+00  0.15941622268E+04  0.15941622268E+04  0.00000000000E+00 0. -1.
         -1   -1    0    0    0  501 -0.00000000000E+00 -0.00000000000E+00 -0.16201128936E+04  0.16201128936E+04  0.00000000000E+00 0.  1.
         24    2    1    2    0    0 -0.66746566082E+03  0.12871204945E+04  0.28340263451E+03  0.14795667164E+04  0.81308297552E+02 0.  0.
        254    2    1    2    0    0  0.66746566082E+03 -0.12871204945E+04 -0.30935330128E+03  0.17347084039E+04  0.90073536955E+03 0.  0.
         23    2    4    4    0    0  0.63173166448E+03 -0.14025683495E+04 -0.34567165006E+03  0.15792689441E+04  0.91206563729E+02 0.  0.
         23    2    4    4    0    0  0.35733996337E+02  0.11544785495E+03  0.36318348782E+02  0.15543945987E+03  0.90759448661E+02 0.  0.
          4    1    3    3  502    0 -0.18202189583E+03  0.37445411214E+03  0.11738414844E+03  0.43258165815E+03  0.00000000000E+00 0. -1.
         -1    1    3    3    0  502 -0.48544376499E+03  0.91266638237E+03  0.16601848607E+03  0.10469850582E+04  0.00000000000E+00 0.  1.
         11    1    5    5    0    0  0.56550332460E+03 -0.11971844413E+04 -0.27584559526E+03  0.13524553187E+04  0.00000000000E+00 0. -1.
        -11    1    5    5    0    0  0.66228339883E+02 -0.20538390816E+03 -0.69826054804E+02  0.22681362540E+03  0.00000000000E+00 0.  1.
          2    1    6    6  503    0  0.31618786852E+02  0.82132193863E+02 -0.19650703669E+02  0.90175357528E+02  0.00000000000E+00 0. -1.
         -2    1    6    6    0  503  0.41152094850E+01  0.33315661084E+02  0.55969052451E+02  0.65264102344E+02  0.00000000000E+00 0.  1.
<mgrwt>
<rscale>  0 0.32141704E+04</rscale>
<asrwt>0</asrwt>
<pdfrwt beam="1">  1        2 0.24525573E+00 0.32141704E+04</pdfrwt>
<pdfrwt beam="2">  1       -1 0.24924814E+00 0.32141704E+04</pdfrwt>
<totfact> 0.75856922E-01</totfact>
</mgrwt>
</event>
<event>
12    6  0.1395358E-007  0.1886046E+04  0.7818608E-02  0.8661833E-01
          2   -1    0    0  501    0  0.00000000000E+00  0.00000000000E+00  0.49367496469E+03  0.49367496469E+03  0.00000000000E+00 0. -1.
         -1   -1    0    0    0  501 -0.00000000000E+00 -0.00000000000E+00 -0.18013728740E+04  0.18013728740E+04  0.00000000000E+00 0.  1.
         24    2    1    2    0    0  0.65323412834E+03 -0.25073288628E+03 -0.26747988777E+03  0.75332709021E+03  0.79839888541E+02 0.  0.
        254    2    1    2    0    0 -0.65323412834E+03  0.25073288628E+03 -0.10402180215E+04  0.15417207484E+04  0.89736699696E+03 0.  0.
         23    2    4    4    0    0 -0.58393687036E+03  0.55238016886E+03 -0.67285399031E+03  0.10524203862E+04  0.93541741778E+02 0.  0.
         23    2    4    4    0    0 -0.69297257976E+02 -0.30164728258E+03 -0.36736403119E+03  0.48930036226E+03  0.93087700800E+02 0.  0.
          4    1    3    3  502    0  0.12785363791E+03 -0.16280447809E+02 -0.46018167466E+02  0.13685495039E+03  0.00000000000E+00 0. -1.
         -3    1    3    3    0  502  0.52538049042E+03 -0.23445243847E+03 -0.22146172031E+03  0.61647213983E+03  0.00000000000E+00 0.  1.
         11    1    5    5    0    0 -0.28304195429E+03  0.33082535604E+03 -0.37332074553E+03  0.57352117932E+03  0.00000000000E+00 0.  1.
        -11    1    5    5    0    0 -0.30089491607E+03  0.22155481282E+03 -0.29953324478E+03  0.47889920686E+03  0.00000000000E+00 0. -1.
          4    1    6    6  503    0  0.65906380898E+01 -0.14309668897E+03 -0.20443595955E+03  0.24962804423E+03  0.00000000000E+00 0. -1.
         -4    1    6    6    0  503 -0.75887896066E+02 -0.15855059361E+03 -0.16292807164E+03  0.23967231804E+03  0.00000000000E+00 0.  1.
<mgrwt>
<rscale>  0 0.18860463E+04</rscale>
<asrwt>0</asrwt>
<pdfrwt beam="1">  1        2 0.75949994E-01 0.18860463E+04</pdfrwt>
<pdfrwt beam="2">  1       -1 0.27713429E+00 0.18860463E+04</pdfrwt>
<totfact> 0.31115916E+00</totfact>
</mgrwt>
</event>
<event>
12    6  0.1395358E-007  0.2802387E+04  0.7818608E-02  0.8302528E-01
          2   -1    0    0  501    0  0.00000000000E+00  0.00000000000E+00  0.28912892670E+04  0.28912892670E+04  0.00000000000E+00 0. -1.
         -1   -1    0    0    0  501 -0.00000000000E+00 -0.00000000000E+00 -0.67905480523E+03  0.67905480523E+03  0.00000000000E+00 0.  1.
         24    2    1    2    0    0 -0.87799289338E+03 -0.84452378327E+03  0.60748258164E+03  0.13635815567E+04  0.78915356742E+02 0.  0.
        254    2    1    2    0    0  0.87799289338E+03  0.84452378327E+03  0.16047518802E+04  0.22067625155E+04  0.90026677252E+03 0.  0.
         23    2    4    4    0    0  0.10092367940E+04  0.61016751318E+03  0.10378590522E+04  0.15736452400E+04  0.91348938192E+02 0.  0.
         23    2    4    4    0    0 -0.13124390066E+03  0.23435627010E+03  0.56689282800E+03  0.63311727557E+03  0.85569757462E+02 0.  0.
          2    1    3    3  502    0 -0.30914867929E+03 -0.34523958592E+03  0.21219688056E+03  0.50969676644E+03  0.00000000000E+00 0. -1.
         -1    1    3    3    0  502 -0.56884421409E+03 -0.49928419736E+03  0.39528570107E+03  0.85388479030E+03  0.00000000000E+00 0.  1.
         11    1    5    5    0    0  0.87197644328E+03  0.55279452340E+03  0.87820735340E+03  0.13554234978E+04  0.00000000000E+00 0. -1.
        -11    1    5    5    0    0  0.13726035076E+03  0.57372989774E+02  0.15965169877E+03  0.21822174219E+03  0.00000000000E+00 0.  1.
          1    1    6    6  503    0 -0.44926241414E+02  0.52042901492E+02  0.23388329741E+03  0.24377905482E+03  0.00000000000E+00 0. -1.
         -1    1    6    6    0  503 -0.86317659246E+02  0.18231336861E+03  0.33300953059E+03  0.38933822075E+03  0.00000000000E+00 0.  1.
<mgrwt>
<rscale>  0 0.28023875E+04</rscale>
<asrwt>0</asrwt>
<pdfrwt beam="1">  1        2 0.44481373E+00 0.28023875E+04</pdfrwt>
<pdfrwt beam="2">  1       -1 0.10446997E+00 0.28023875E+04</pdfrwt>
<totfact> 0.17319376E+00</totfact>
</mgrwt>
</event>
<event>
12    6  0.1395358E-007  0.2739677E+04  0.7818608E-02  0.8322245E-01
         -1   -1    0    0    0  501 -0.00000000000E+00  0.00000000000E+00  0.81212067909E+03  0.81212067909E+03  0.00000000000E+00 0.  1.
          2   -1    0    0  501    0  0.00000000000E+00 -0.00000000000E+00 -0.23105643262E+04  0.23105643262E+04  0.00000000000E+00 0. -1.
         24    2    1    2    0    0  0.16808308112E+03 -0.11117933685E+04 -0.12734684315E+03  0.11338872781E+04  0.71740676620E+02 0.  0.
        254    2    1    2    0    0 -0.16808308112E+03  0.11117933685E+04 -0.13710968040E+04  0.19887977272E+04  0.90059621227E+03 0.  0.
         23    2    4    4    0    0  0.24176827146E+03  0.46699132112E+03 -0.16486751876E+03  0.55803188708E+03  0.87666967402E+02 0.  0.
         23    2    4    4    0    0 -0.40985135258E+03  0.64480204734E+03 -0.12062292853E+04  0.14307658401E+04  0.91400160164E+02 0.  0.
          4    1    3    3  502    0  0.11173073484E+03 -0.89656000703E+03 -0.85877418124E+02  0.90756737174E+03  0.00000000000E+00 0. -1.
         -3    1    3    3    0  502  0.56352346278E+02 -0.21523336143E+03 -0.41469425022E+02  0.22631990636E+03  0.00000000000E+00 0.  1.
         11    1    5    5    0    0  0.12707750998E+03  0.33182275955E+03 -0.12163807255E+03  0.37556738143E+03  0.00000000000E+00 0.  1.
        -11    1    5    5    0    0  0.11469076147E+03  0.13516856157E+03 -0.43229446215E+02  0.18246450566E+03  0.00000000000E+00 0. -1.
          1    1    6    6  503    0 -0.32914294113E+03  0.47897899121E+03 -0.85093134399E+03  0.10304562591E+04  0.00000000000E+00 0. -1.
         -1    1    6    6    0  503 -0.80708411451E+02  0.16582305612E+03 -0.35529794126E+03  0.40030958106E+03  0.00000000000E+00 0.  1.
<mgrwt>
<rscale>  0 0.27396767E+04</rscale>
<asrwt>0</asrwt>
<pdfrwt beam="1">  1        2 0.35547143E+00 0.27396767E+04</pdfrwt>
<pdfrwt beam="2">  1       -1 0.12494164E+00 0.27396767E+04</pdfrwt>
<totfact> 0.24907739E+00</totfact>
</mgrwt>
</event>
<event>
12    6  0.1395358E-007  0.2593323E+04  0.7818608E-02  0.8370473E-01
         -1   -1    0    0    0  501 -0.00000000000E+00  0.00000000000E+00  0.10383089128E+04  0.10383089128E+04  0.00000000000E+00 0.  1.
          2   -1    0    0  501    0  0.00000000000E+00 -0.00000000000E+00 -0.16192974293E+04  0.16192974293E+04  0.00000000000E+00 0. -1.
         24    2    1    2    0    0 -0.10246569711E+04  0.29813658025E+03  0.15073607439E+03  0.10808638113E+04  0.82084623952E+02 0.  0.
        254    2    1    2    0    0  0.10246569711E+04 -0.29813658025E+03 -0.73172459084E+03  0.15767425308E+04  0.90104872368E+03 0.  0.
         23    2    4    4    0    0  0.20784144926E+03 -0.24847613847E+03 -0.67170851099E+03  0.75126297234E+03  0.90913532867E+02 0.  0.
         23    2    4    4    0    0  0.81681552189E+03 -0.49660441783E+02 -0.60016079851E+02  0.82547955842E+03  0.90337230656E+02 0.  0.
          4    1    3    3  502    0 -0.60886573417E+03  0.19391097292E+03  0.52893420034E+02  0.64118379701E+03  0.00000000000E+00 0. -1.
         -3    1    3    3    0  502 -0.41579123697E+03  0.10422560733E+03  0.97842654352E+02  0.43968001430E+03  0.00000000000E+00 0.  1.
         11    1    5    5    0    0  0.11925574912E+03 -0.19906415760E+03 -0.41919053085E+03  0.47913377432E+03  0.00000000000E+00 0.  1.
        -11    1    5    5    0    0  0.88585700137E+02 -0.49411980865E+02 -0.25251798014E+03  0.27212919802E+03  0.00000000000E+00 0. -1.
          4    1    6    6  503    0  0.49718214036E+03 -0.74198039867E+02 -0.40243835928E+02  0.50429653593E+03  0.00000000000E+00 0. -1.
         -4    1    6    6    0  503  0.31963338153E+03  0.24537598084E+02 -0.19772243923E+02  0.32118302249E+03  0.00000000000E+00 0.  1.
<mgrwt>
<rscale>  0 0.25933229E+04</rscale>
<asrwt>0</asrwt>
<pdfrwt beam="1">  1        2 0.24912268E+00 0.25933229E+04</pdfrwt>
<pdfrwt beam="2">  1       -1 0.15973983E+00 0.25933229E+04</pdfrwt>
<totfact> 0.32183574E+00</totfact>
</mgrwt>
</event>
<event>
12    6  0.1395358E-007  0.2619182E+04  0.7818608E-02  0.8361714E-01
         -1   -1    0    0    0  501 -0.00000000000E+00  0.00000000000E+00  0.92587530356E+03  0.92587530356E+03  0.00000000000E+00 0.  1.
          2   -1    0    0  501    0  0.00000000000E+00 -0.00000000000E+00 -0.18523326394E+04  0.18523326394E+04  0.00000000000E+00 0. -1.
         24    2    1    2    0    0  0.38415173896E+03  0.87228057303E+03  0.27981685285E+03  0.99655370526E+03  0.79848980571E+02 0.  0.
        254    2    1    2    0    0 -0.38415173896E+03 -0.87228057303E+03 -0.12062741887E+04  0.17816542377E+04  0.90041570835E+03 0.  0.
         23    2    4    4    0    0 -0.34594624351E+03 -0.10491753169E+04 -0.10721553307E+04  0.15421856409E+04  0.91497806867E+02 0.  0.
         23    2    4    4    0    0 -0.38205495444E+02  0.17689474391E+03 -0.13411885800E+03  0.23946859686E+03  0.81276875588E+02 0.  0.
          2    1    3    3  502    0  0.15858277463E+03  0.33271803110E+03  0.69523487724E+02  0.37507772524E+03  0.00000000000E+00 0. -1.
         -1    1    3    3    0  502  0.22556896433E+03  0.53956254193E+03  0.21029336512E+03  0.62147598002E+03  0.00000000000E+00 0.  1.
         11    1    5    5    0    0 -0.19092324671E+03 -0.66186084229E+03 -0.61711048764E+03  0.92484421101E+03  0.00000000000E+00 0. -1.
        -11    1    5    5    0    0 -0.15502299680E+03 -0.38731447465E+03 -0.45504484310E+03  0.61734142988E+03  0.00000000000E+00 0.  1.
          3    1    6    6  503    0 -0.13754340523E+02  0.15305398967E+03 -0.13608015055E+03  0.20526205936E+03  0.00000000000E+00 0. -1.
         -3    1    6    6    0  503 -0.24451154920E+02  0.23840754236E+02  0.19612925464E+01  0.34206537503E+02  0.00000000000E+00 0.  1.
<mgrwt>
<rscale>  0 0.26191823E+04</rscale>
<asrwt>0</asrwt>
<pdfrwt beam="1">  1        2 0.28497425E+00 0.26191823E+04</pdfrwt>
<pdfrwt beam="2">  1       -1 0.14244236E+00 0.26191823E+04</pdfrwt>
<totfact> 0.32489548E+00</totfact>
</mgrwt>
</event>
<event>
12    6  0.1395358E-007  0.2218632E+04  0.7818608E-02  0.8510713E-01
         -1   -1    0    0    0  501 -0.00000000000E+00  0.00000000000E+00  0.14070645058E+04  0.14070645058E+04  0.00000000000E+00 0.  1.
          2   -1    0    0  501    0  0.00000000000E+00 -0.00000000000E+00 -0.87457410191E+03  0.87457410191E+03  0.00000000000E+00 0. -1.
         24    2    1    2    0    0 -0.32312171736E+03 -0.83821858501E+03  0.44450426110E+03  0.10055895760E+04  0.81291553299E+02 0.  0.
        254    2    1    2    0    0  0.32312171736E+03  0.83821858501E+03  0.87986142835E+02  0.12760490318E+04  0.90196537059E+03 0.  0.
         23    2    4    4    0    0 -0.49277264740E+01  0.23459816076E+03  0.43359552598E+03  0.50176258033E+03  0.93273937159E+02 0.  0.
         23    2    4    4    0    0  0.32804944383E+03  0.60362042425E+03 -0.34560938314E+03  0.77428645146E+03  0.89997827963E+02 0.  0.
          4    1    3    3  502    0 -0.89844343315E+02 -0.28537686856E+03  0.18555859349E+03  0.35205674933E+03  0.00000000000E+00 0. -1.
         -3    1    3    3    0  502 -0.23327737404E+03 -0.55284171645E+03  0.25894566761E+03  0.65353282662E+03  0.00000000000E+00 0.  1.
         11    1    5    5    0    0  0.11514684425E+02  0.20382391060E+03  0.29437585892E+03  0.35823724095E+03  0.00000000000E+00 0. -1.
        -11    1    5    5    0    0 -0.16442410899E+02  0.30774250166E+02  0.13921966706E+03  0.14352533938E+03  0.00000000000E+00 0.  1.
          1    1    6    6  503    0  0.22057370040E+03  0.37198716461E+03 -0.26178099643E+03  0.50552596178E+03  0.00000000000E+00 0. -1.
         -1    1    6    6    0  503  0.10747574343E+03  0.23163325963E+03 -0.83828386715E+02  0.26876048968E+03  0.00000000000E+00 0.  1.
<mgrwt>
<rscale>  0 0.22186322E+04</rscale>
<asrwt>0</asrwt>
<pdfrwt beam="1">  1        2 0.13454986E+00 0.22186322E+04</pdfrwt>
<pdfrwt beam="2">  1       -1 0.21647146E+00 0.22186322E+04</pdfrwt>
<totfact> 0.36924109E+00</totfact>
</mgrwt>
</event>
<event>
12    6  0.1395358E-007  0.2797544E+04  0.7818608E-02  0.8304031E-01
         -1   -1    0    0    0  501 -0.00000000000E+00  0.00000000000E+00  0.80219770920E+03  0.80219770920E+03  0.00000000000E+00 0.  1.
          2   -1    0    0  501    0  0.00000000000E+00 -0.00000000000E+00 -0.24390035195E+04  0.24390035195E+04  0.00000000000E+00 0. -1.
         24    2    1    2    0    0 -0.57738676754E+01 -0.12508893018E+04 -0.66894054163E+03  0.14207455330E+04  0.79240384756E+02 0.  0.
        254    2    1    2    0    0  0.57738676754E+01  0.12508893018E+04 -0.96786526868E+03  0.18204556957E+04  0.90140910732E+03 0.  0.
         23    2    4    4    0    0 -0.19698793320E+03  0.19321882088E+03 -0.61980415862E+03  0.68478927435E+03  0.92959112780E+02 0.  0.
         23    2    4    4    0    0  0.20276180088E+03  0.10576704809E+04 -0.34806111005E+03  0.11356664213E+04  0.93874864276E+02 0.  0.
          4    1    3    3  502    0 -0.33888303796E+02 -0.10515440443E+04 -0.56240829888E+03  0.11929779499E+04  0.00000000000E+00 0. -1.
         -3    1    3    3    0  502  0.28114436120E+02 -0.19934525744E+03 -0.10653224274E+03  0.22776758313E+03  0.00000000000E+00 0.  1.
         11    1    5    5    0    0  0.38769453114E+00 -0.74510011252E+01 -0.61761408891E+01  0.96856822733E+01  0.00000000000E+00 0.  1.
        -11    1    5    5    0    0 -0.19737562774E+03  0.20066982201E+03 -0.61362801774E+03  0.67510359208E+03  0.00000000000E+00 0. -1.
          2    1    6    6  503    0  0.21228379838E+03  0.10311253839E+04 -0.34090548118E+03  0.11065715139E+04  0.00000000000E+00 0. -1.
         -2    1    6    6    0  503 -0.95219975007E+01  0.26545096988E+02 -0.71556288750E+01  0.29094907374E+02  0.00000000000E+00 0.  1.
<mgrwt>
<rscale>  0 0.27975439E+04</rscale>
<asrwt>0</asrwt>
<pdfrwt beam="1">  1        2 0.37523130E+00 0.27975439E+04</pdfrwt>
<pdfrwt beam="2">  1       -1 0.12341503E+00 0.27975439E+04</pdfrwt>
<totfact> 0.21576365E+00</totfact>
</mgrwt>
</event>
<event>
12    6  0.1395358E-007  0.1298646E+04  0.7818608E-02  0.9030639E-01
         -1   -1    0    0    0  501 -0.00000000000E+00  0.00000000000E+00  0.27769778066E+03  0.27769778066E+03  0.00000000000E+00 0.  1.
          2   -1    0    0  501    0  0.00000000000E+00 -0.00000000000E+00 -0.15182711130E+04  0.15182711130E+04  0.00000000000E+00 0. -1.
         24    2    1    2    0    0 -0.32827249392E+03  0.13572877502E+02 -0.37950857231E+03  0.50848437404E+03  0.81132908947E+02 0.  0.
        254    2    1    2    0    0  0.32827249392E+03 -0.13572877502E+02 -0.86106476004E+03  0.12874845196E+04  0.89901991861E+03 0.  0.
         23    2    4    4    0    0  0.52852593377E+03  0.22292427408E+03 -0.33590743002E+03  0.67094612765E+03  0.91104390842E+02 0.  0.
         23    2    4    4    0    0 -0.20025343985E+03 -0.23649715158E+03 -0.52515733001E+03  0.61653839199E+03  0.91088004958E+02 0.  0.
          4    1    3    3  502    0 -0.38291123530E+02  0.25787968661E+02 -0.72924525774E+02  0.86308840383E+02  0.00000000000E+00 0. -1.
         -3    1    3    3    0  502 -0.28998137039E+03 -0.12215091160E+02 -0.30658404654E+03  0.42217553366E+03  0.00000000000E+00 0.  1.
         11    1    5    5    0    0  0.65596815803E+01  0.27442601755E+01  0.59621607620E+01  0.92794260220E+01  0.00000000000E+00 0.  1.
        -11    1    5    5    0    0  0.52196625219E+03  0.22018001390E+03 -0.34186959079E+03  0.66166670163E+03  0.00000000000E+00 0. -1.
          1    1    6    6  503    0 -0.51619951459E+02 -0.60330630838E+02 -0.22156759199E+03  0.23536482793E+03  0.00000000000E+00 0. -1.
         -1    1    6    6    0  503 -0.14863348839E+03 -0.17616652074E+03 -0.30358973802E+03  0.38117356405E+03  0.00000000000E+00 0.  1.
<mgrwt>
<rscale>  0 0.12986462E+04</rscale>
<asrwt>0</asrwt>
<pdfrwt beam="1">  1        2 0.23358017E+00 0.12986462E+04</pdfrwt>
<pdfrwt beam="2">  1       -1 0.42722736E-01 0.12986462E+04</pdfrwt>
<totfact> 0.74670283E+01</totfact>
</mgrwt>
</event>
<event>
12    6  0.1395358E-007  0.2129579E+04  0.7818608E-02  0.8548324E-01
          2   -1    0    0  501    0  0.00000000000E+00  0.00000000000E+00  0.14650356771E+04  0.14650356771E+04  0.00000000000E+00 0. -1.
         -1   -1    0    0    0  501 -0.00000000000E+00 -0.00000000000E+00 -0.77389032987E+03  0.77389032987E+03  0.00000000000E+00 0.  1.
         24    2    1    2    0    0 -0.61626805384E+03 -0.33827077635E+03 -0.25851072450E+03  0.75324776023E+03  0.79630153169E+02 0.  0.
        254    2    1    2    0    0  0.61626805384E+03  0.33827077635E+03  0.94965607173E+03  0.14856782467E+04  0.90065518705E+03 0.  0.
         23    2    4    4    0    0  0.15557925506E+03  0.40152468399E+03  0.18160359862E+02  0.44065574901E+03  0.91764448472E+02 0.  0.
         23    2    4    4    0    0  0.46068879878E+03 -0.63253907638E+02  0.93149571187E+03  0.10450224977E+04  0.90291380488E+02 0.  0.
          2    1    3    3  502    0 -0.38590282404E+03 -0.21781393805E+03 -0.12195066080E+03  0.45960403053E+03  0.00000000000E+00 0. -1.
         -1    1    3    3    0  502 -0.23036522980E+03 -0.12045683831E+03 -0.13656006370E+03  0.29364372971E+03  0.00000000000E+00 0.  1.
         11    1    5    5    0    0  0.98875293086E+02  0.20127111717E+03 -0.32137199279E+02  0.22653738271E+03  0.00000000000E+00 0.  1.
        -11    1    5    5    0    0  0.56703961974E+02  0.20025356682E+03  0.50297559141E+02  0.21411836629E+03  0.00000000000E+00 0. -1.
          3    1    6    6  503    0  0.16617472023E+03 -0.66954816204E+02  0.35075669784E+03  0.39386196330E+03  0.00000000000E+00 0. -1.
         -3    1    6    6    0  503  0.29451407855E+03  0.37009085668E+01  0.58073901403E+03  0.65116053444E+03  0.00000000000E+00 0.  1.
<mgrwt>
<rscale>  0 0.21295792E+04</rscale>
<asrwt>0</asrwt>
<pdfrwt beam="1">  1        2 0.22539010E+00 0.21295792E+04</pdfrwt>
<pdfrwt beam="2">  1       -1 0.11906005E+00 0.21295792E+04</pdfrwt>
<totfact> 0.87834845E+00</totfact>
</mgrwt>
</event>
<event>
12    6  0.1395358E-007  0.2127477E+04  0.7818608E-02  0.8549235E-01
          2   -1    0    0  501    0  0.00000000000E+00  0.00000000000E+00  0.30902214907E+04  0.30902214907E+04  0.00000000000E+00 0. -1.
         -1   -1    0    0    0  501 -0.00000000000E+00 -0.00000000000E+00 -0.36616767907E+03  0.36616767907E+03  0.00000000000E+00 0.  1.
         24    2    1    2    0    0 -0.74626351396E+03 -0.26412143197E+02  0.18476915436E+04  0.19944421525E+04  0.78921643149E+02 0.  0.
        254    2    1    2    0    0  0.74626351396E+03  0.26412143197E+02  0.87636226803E+03  0.14619470173E+04  0.90092808975E+03 0.  0.
         23    2    4    4    0    0  0.55627319872E+03  0.42850225960E+03  0.61510428586E+03  0.93810178390E+03  0.92884963142E+02 0.  0.
         23    2    4    4    0    0  0.18999031524E+03 -0.40209011640E+03  0.26125798217E+03  0.52384523337E+03  0.91571358446E+02 0.  0.
          2    1    3    3  502    0 -0.39052438329E+03  0.12059208791E+02  0.10432168739E+04  0.11139821203E+04  0.00000000000E+00 0. -1.
         -1    1    3    3    0  502 -0.35573913067E+03 -0.38471351987E+02  0.80447466974E+03  0.88046003218E+03  0.00000000000E+00 0.  1.
         11    1    5    5    0    0  0.10565685961E+03  0.13092782458E+03  0.14151881560E+03  0.21984777097E+03  0.00000000000E+00 0. -1.
        -11    1    5    5    0    0  0.45061633911E+03  0.29757443502E+03  0.47358547025E+03  0.71825401293E+03  0.00000000000E+00 0.  1.
          1    1    6    6  503    0  0.84914595156E+02 -0.16815700055E+03  0.16335905036E+03  0.24934603393E+03  0.00000000000E+00 0. -1.
         -1    1    6    6    0  503  0.10507572009E+03 -0.23393311585E+03  0.97898931809E+02  0.27449919944E+03  0.00000000000E+00 0.  1.
<mgrwt>
<rscale>  0 0.21274767E+04</rscale>
<asrwt>0</asrwt>
<pdfrwt beam="1">  1        2 0.47541867E+00 0.21274767E+04</pdfrwt>
<pdfrwt beam="2">  1       -1 0.56333491E-01 0.21274767E+04</pdfrwt>
<totfact> 0.51040393E+00</totfact>
</mgrwt>
</event>
<event>
12    6  0.1395358E-007  0.4694641E+04  0.7818608E-02  0.7877420E-01
          2   -1    0    0  501    0  0.00000000000E+00  0.00000000000E+00  0.24282660845E+04  0.24282660845E+04  0.00000000000E+00 0. -1.
         -3   -1    0    0    0  501 -0.00000000000E+00 -0.00000000000E+00 -0.22690733998E+04  0.22690733998E+04  0.00000000000E+00 0.  1.
         24    2    1    2    0    0 -0.53893538243E+03 -0.13154083855E+04  0.18351576653E+04  0.23227088933E+04  0.80139749180E+02 0.  0.
        254    2    1    2    0    0  0.53893538243E+03  0.13154083855E+04 -0.16759649806E+04  0.23746305910E+04  0.89958949547E+03 0.  0.
         23    2    4    4    0    0 -0.22773102334E+03  0.15979828557E+03 -0.26443140844E+03  0.39376128511E+03  0.87903747486E+02 0.  0.
         23    2    4    4    0    0  0.76666640576E+03  0.11556101000E+04 -0.14115335722E+04  0.19808693059E+04  0.90576491546E+02 0.  0.
          4    1    3    3  502    0 -0.18301419636E+03 -0.44648744821E+03  0.56196190843E+03  0.74070670579E+03  0.00000000000E+00 0. -1.
         -3    1    3    3    0  502 -0.35592118607E+03 -0.86892093733E+03  0.12731957568E+04  0.15820021875E+04  0.00000000000E+00 0.  1.
         11    1    5    5    0    0 -0.11631169041E+03  0.91453249538E+02 -0.19788936390E+03  0.24708764948E+03  0.00000000000E+00 0.  1.
        -11    1    5    5    0    0 -0.11141933292E+03  0.68345036036E+02 -0.66542044537E+02  0.14667363564E+03  0.00000000000E+00 0. -1.
          4    1    6    6  503    0  0.24011249586E+03  0.38269894821E+03 -0.51900531327E+03  0.68809811134E+03  0.00000000000E+00 0. -1.
         -4    1    6    6    0  503  0.52655390990E+03  0.77291115176E+03 -0.89252825890E+03  0.12927711946E+04  0.00000000000E+00 0.  1.
<mgrwt>
<rscale>  0 0.46946412E+04</rscale>
<asrwt>0</asrwt>
<pdfrwt beam="1">  1        2 0.37357940E+00 0.46946412E+04</pdfrwt>
<pdfrwt beam="2">  1       -3 0.34908821E+00 0.46946412E+04</pdfrwt>
<totfact> 0.36328414E-02</totfact>
</mgrwt>
</event>
<event>
12    6  0.1395358E-007  0.1803910E+04  0.7818608E-02  0.8704223E-01
         -1   -1    0    0    0  501 -0.00000000000E+00  0.00000000000E+00  0.31659660444E+03  0.31659660444E+03  0.00000000000E+00 0.  1.
          2   -1    0    0  501    0  0.00000000000E+00 -0.00000000000E+00 -0.25695878521E+04  0.25695878521E+04  0.00000000000E+00 0. -1.
         24    2    1    2    0    0 -0.40210482036E+03 -0.35816333476E+03 -0.14969869861E+04  0.15929142741E+04  0.80228344810E+02 0.  0.
        254    2    1    2    0    0  0.40210482036E+03  0.35816333476E+03 -0.75600426158E+03  0.12932701824E+04  0.90057540509E+03 0.  0.
         23    2    4    4    0    0  0.32586795376E+03  0.58430451553E+03 -0.23741105551E+03  0.71586949349E+03  0.92214056806E+02 0.  0.
         23    2    4    4    0    0  0.76236866598E+02 -0.22614118077E+03 -0.51859320607E+03  0.57740068892E+03  0.86606862997E+02 0.  0.
          4    1    3    3  502    0 -0.17240051710E+03 -0.17759464855E+03 -0.79213824712E+03  0.82990650078E+03  0.00000000000E+00 0. -1.
         -3    1    3    3    0  502 -0.22970430326E+03 -0.18056868621E+03 -0.70484873896E+03  0.76300777335E+03  0.00000000000E+00 0.  1.
         11    1    5    5    0    0  0.23925013083E+03  0.33710433597E+03 -0.14138335240E+03  0.43688580975E+03  0.00000000000E+00 0. -1.
        -11    1    5    5    0    0  0.86617822934E+02  0.24720017956E+03 -0.96027703114E+02  0.27898368374E+03  0.00000000000E+00 0.  1.
          1    1    6    6  503    0  0.27855544893E+02 -0.18779558710E+03 -0.35556187321E+03  0.40307239994E+03  0.00000000000E+00 0. -1.
         -1    1    6    6    0  503  0.48381321706E+02 -0.38345593662E+02 -0.16303133286E+03  0.17432828898E+03  0.00000000000E+00 0.  1.
<mgrwt>
<rscale>  0 0.18039100E+04</rscale>
<asrwt>0</asrwt>
<pdfrwt beam="1">  1        2 0.39532120E+00 0.18039100E+04</pdfrwt>
<pdfrwt beam="2">  1       -1 0.48707171E-01 0.18039100E+04</pdfrwt>
<totfact> 0.14395686E+01</totfact>
</mgrwt>
</event>
<event>
12    6  0.1395358E-007  0.1880033E+04  0.7818608E-02  0.8664859E-01
         -1   -1    0    0    0  501 -0.00000000000E+00  0.00000000000E+00  0.66342018978E+03  0.66342018978E+03  0.00000000000E+00 0.  1.
          2   -1    0    0  501    0  0.00000000000E+00 -0.00000000000E+00 -0.13319327825E+04  0.13319327825E+04  0.00000000000E+00 0. -1.
         24    2    1    2    0    0  0.19148323112E+03 -0.62183787646E+03 -0.58890804909E+03  0.88150548969E+03  0.83012442848E+02 0.  0.
        254    2    1    2    0    0 -0.19148323112E+03  0.62183787646E+03 -0.79604543657E+02  0.11138474826E+04  0.90053937102E+03 0.  0.
         23    2    4    4    0    0  0.21371496769E+03  0.64017878671E+03 -0.13558504628E+03  0.69439273729E+03  0.91076904090E+02 0.  0.
         23    2    4    4    0    0 -0.40519819881E+03 -0.18340910248E+02  0.55980502618E+02  0.41945474533E+03  0.91030200491E+02 0.  0.
          4    1    3    3  502    0  0.80425971822E+02 -0.14513414552E+03 -0.16471727727E+03  0.23380341864E+03  0.00000000000E+00 0. -1.
         -3    1    3    3    0  502  0.11105725930E+03 -0.47670373095E+03 -0.42419077182E+03  0.64770207105E+03  0.00000000000E+00 0.  1.
         11    1    5    5    0    0 -0.55782458737E+01  0.64383217512E+02 -0.18556789748E+02  0.67235927672E+02  0.00000000000E+00 0. -1.
        -11    1    5    5    0    0  0.21929321356E+03  0.57579556920E+03 -0.11702825653E+03  0.62715680962E+03  0.00000000000E+00 0.  1.
          1    1    6    6  503    0 -0.13957578698E+03  0.22468948674E+02  0.52160977797E+02  0.15068849183E+03  0.00000000000E+00 0. -1.
         -1    1    6    6    0  503 -0.26562241182E+03 -0.40809858923E+02  0.38195248213E+01  0.26876625349E+03  0.00000000000E+00 0.  1.
<mgrwt>
<rscale>  0 0.18800331E+04</rscale>
<asrwt>0</asrwt>
<pdfrwt beam="1">  1        2 0.20491273E+00 0.18800331E+04</pdfrwt>
<pdfrwt beam="2">  1       -1 0.10206465E+00 0.18800331E+04</pdfrwt>
<totfact> 0.15400731E+01</totfact>
</mgrwt>
</event>
<event>
12    6  0.1395358E-007  0.1482908E+04  0.7818608E-02  0.8895899E-01
         -1   -1    0    0    0  501 -0.00000000000E+00  0.00000000000E+00  0.29841408428E+03  0.29841408428E+03  0.00000000000E+00 0.  1.
          2   -1    0    0  501    0  0.00000000000E+00 -0.00000000000E+00 -0.18422511350E+04  0.18422511350E+04  0.00000000000E+00 0. -1.
         24    2    1    2    0    0  0.12084100185E+03  0.11690838360E+03 -0.11210300459E+04  0.11353816697E+04  0.64133096729E+02 0.  0.
        254    2    1    2    0    0 -0.12084100185E+03 -0.11690838360E+03 -0.42280700476E+03  0.10052835496E+04  0.89641459932E+03 0.  0.
         23    2    4    4    0    0 -0.25469952110E+03  0.19324138164E+03 -0.54193684719E+03  0.63572377207E+03  0.90747398905E+02 0.  0.
         23    2    4    4    0    0  0.13385851925E+03 -0.31014976524E+03  0.11912984244E+03  0.36955977749E+03  0.90947950645E+02 0.  0.
          2    1    3    3  502    0  0.81837637933E+02  0.10330289223E+03 -0.96575357351E+03  0.97470449434E+03  0.00000000000E+00 0. -1.
         -1    1    3    3    0  502  0.39003363913E+02  0.13605491369E+02 -0.15527647242E+03  0.16067717535E+03  0.00000000000E+00 0.  1.
         11    1    5    5    0    0 -0.26131080871E+03  0.18223941869E+03 -0.52883423208E+03  0.61738172105E+03  0.00000000000E+00 0. -1.
        -11    1    5    5    0    0  0.66112876138E+01  0.11001962956E+02 -0.13102615112E+02  0.18342051019E+02  0.00000000000E+00 0.  1.
          3    1    6    6  503    0  0.14480946692E+03 -0.25186439619E+03  0.99219321261E+02  0.30700151382E+03  0.00000000000E+00 0. -1.
         -3    1    6    6    0  503 -0.10950947666E+02 -0.58285369048E+02  0.19910521175E+02  0.62558263670E+02  0.00000000000E+00 0.  1.
<mgrwt>
<rscale>  0 0.14829075E+04</rscale>
<asrwt>0</asrwt>
<pdfrwt beam="1">  1        2 0.28342326E+00 0.14829075E+04</pdfrwt>
<pdfrwt beam="2">  1       -1 0.45909858E-01 0.14829075E+04</pdfrwt>
<totfact> 0.42502881E+01</totfact>
</mgrwt>
</event>
<event>
12    6  0.1395358E-007  0.1199267E+04  0.7818608E-02  0.9113498E-01
          2   -1    0    0  501    0  0.00000000000E+00  0.00000000000E+00  0.13124896095E+04  0.13124896095E+04  0.00000000000E+00 0. -1.
         -1   -1    0    0    0  501 -0.00000000000E+00 -0.00000000000E+00 -0.27395284471E+03  0.27395284471E+03  0.00000000000E+00 0.  1.
         24    2    1    2    0    0 -0.20242779671E+03 -0.83599677093E+02  0.38963398381E+03  0.45496470947E+03  0.84925418019E+02 0.  0.
        254    2    1    2    0    0  0.20242779671E+03  0.83599677093E+02  0.64890278094E+03  0.11314777447E+04  0.90066705765E+03 0.  0.
         23    2    4    4    0    0  0.31639089677E+03  0.34439216975E+03  0.68186276094E+03  0.83172408556E+03  0.90105291663E+02 0.  0.
         23    2    4    4    0    0 -0.11396310006E+03 -0.26079249266E+03 -0.32959980008E+02  0.29975365914E+03  0.88122548079E+02 0.  0.
          4    1    3    3  502    0 -0.52729988052E+02 -0.21658986251E+02  0.18719263046E+03  0.19567995356E+03  0.00000000000E+00 0. -1.
         -3    1    3    3    0  502 -0.14969780866E+03 -0.61940690841E+02  0.20244135335E+03  0.25928475591E+03  0.00000000000E+00 0.  1.
         11    1    5    5    0    0  0.17159454751E+03  0.16039811416E+03  0.26922160567E+03  0.35728492372E+03  0.00000000000E+00 0.  1.
        -11    1    5    5    0    0  0.14479634926E+03  0.18399405559E+03  0.41264115528E+03  0.47443916183E+03  0.00000000000E+00 0. -1.
          1    1    6    6  503    0 -0.12673258212E+03 -0.22318673278E+03 -0.38926231607E+02  0.25959336773E+03  0.00000000000E+00 0. -1.
         -1    1    6    6    0  503  0.12769482057E+02 -0.37605759881E+02  0.59662515984E+01  0.40160291413E+02  0.00000000000E+00 0.  1.
<mgrwt>
<rscale>  0 0.11992669E+04</rscale>
<asrwt>0</asrwt>
<pdfrwt beam="1">  1        2 0.20192148E+00 0.11992669E+04</pdfrwt>
<pdfrwt beam="2">  1       -1 0.42146592E-01 0.11992669E+04</pdfrwt>
<totfact> 0.10108851E+02</totfact>
</mgrwt>
</event>
<event>
12    6  0.1395358E-007  0.2188469E+04  0.7818608E-02  0.8523243E-01
         -1   -1    0    0    0  501 -0.00000000000E+00  0.00000000000E+00  0.63451464808E+03  0.63451464808E+03  0.00000000000E+00 0.  1.
          2   -1    0    0  501    0  0.00000000000E+00 -0.00000000000E+00 -0.18870323137E+04  0.18870323137E+04  0.00000000000E+00 0. -1.
         24    2    1    2    0    0  0.68694294694E+02 -0.57722133298E+03 -0.13224059162E+04  0.14470376836E+04  0.85189654014E+02 0.  0.
        254    2    1    2    0    0 -0.68694294694E+02  0.57722133298E+03  0.69888250597E+02  0.10745092782E+04  0.90098970470E+03 0.  0.
         23    2    4    4    0    0 -0.29254449081E+03  0.26804554824E+03 -0.32286147469E+03  0.51962860724E+03  0.91343651067E+02 0.  0.
         23    2    4    4    0    0  0.22385019611E+03  0.30917578474E+03  0.39274972528E+03  0.55488067095E+03  0.89115857814E+02 0.  0.
          2    1    3    3  502    0  0.84188347555E+02 -0.38785823201E+03 -0.86275892134E+03  0.94967080736E+03  0.00000000000E+00 0. -1.
         -1    1    3    3    0  502 -0.15494052861E+02 -0.18936310096E+03 -0.45964699490E+03  0.49736687626E+03  0.00000000000E+00 0.  1.
         11    1    5    5    0    0 -0.14908350657E+03  0.17880857241E+03 -0.14476794101E+03  0.27414622785E+03  0.00000000000E+00 0.  1.
        -11    1    5    5    0    0 -0.14346098424E+03  0.89236975827E+02 -0.17809353367E+03  0.24548237939E+03  0.00000000000E+00 0. -1.
          3    1    6    6  503    0  0.92330114243E+02  0.15545378566E+03  0.12728855781E+03  0.22111785641E+03  0.00000000000E+00 0. -1.
         -3    1    6    6    0  503  0.13152008187E+03  0.15372199908E+03  0.26546116747E+03  0.33376281454E+03  0.00000000000E+00 0.  1.
<mgrwt>
<rscale>  0 0.21884695E+04</rscale>
<asrwt>0</asrwt>
<pdfrwt beam="1">  1        2 0.29031266E+00 0.21884695E+04</pdfrwt>
<pdfrwt beam="2">  1       -1 0.97617639E-01 0.21884695E+04</pdfrwt>
<totfact> 0.80968227E+00</totfact>
</mgrwt>
</event>
<event>
12    6  0.1395358E-007  0.1245883E+04  0.7818608E-02  0.9073617E-01
          2   -1    0    0  501    0  0.00000000000E+00  0.00000000000E+00  0.46522673984E+03  0.46522673984E+03  0.00000000000E+00 0. -1.
         -1   -1    0    0    0  501 -0.00000000000E+00 -0.00000000000E+00 -0.83412262914E+03  0.83412262914E+03  0.00000000000E+00 0.  1.
         24    2    1    2    0    0 -0.83136190472E+02 -0.39716145755E+02 -0.37381433588E+03  0.39318784426E+03  0.79815567153E+02 0.  0.
        254    2    1    2    0    0  0.83136190472E+02  0.39716145755E+02  0.49184465814E+01  0.90616152471E+03  0.90145189520E+03 0.  0.
         23    2    4    4    0    0 -0.90333544037E+02 -0.34381740960E+03 -0.21238965173E+03  0.42394982975E+03  0.90848960690E+02 0.  0.
         23    2    4    4    0    0  0.17346973451E+03  0.38353355535E+03  0.21730809832E+03  0.48221169497E+03  0.90086471239E+02 0.  0.
          4    1    3    3  502    0  0.12650584660E+02  0.36914214708E+01 -0.19043460212E+02  0.23158524599E+02  0.00000000000E+00 0. -1.
         -1    1    3    3    0  502 -0.95786775133E+02 -0.43407567226E+02 -0.35477087567E+03  0.37002931966E+03  0.00000000000E+00 0.  1.
         11    1    5    5    0    0 -0.18465763124E+02 -0.19335399193E+03 -0.76166473776E+02  0.20863384752E+03  0.00000000000E+00 0.  1.
        -11    1    5    5    0    0 -0.71867780912E+02 -0.15046341766E+03 -0.13622317796E+03  0.21531598222E+03  0.00000000000E+00 0. -1.
          3    1    6    6  503    0  0.12676033396E+03  0.18698391848E+03  0.14079228249E+03  0.26618346088E+03  0.00000000000E+00 0. -1.
         -3    1    6    6    0  503  0.46709400550E+02  0.19654963687E+03  0.76515815828E+02  0.21602823409E+03  0.00000000000E+00 0.  1.
<mgrwt>
<rscale>  0 0.12458831E+04</rscale>
<asrwt>0</asrwt>
<pdfrwt beam="1">  1        2 0.71573345E-01 0.12458831E+04</pdfrwt>
<pdfrwt beam="2">  1       -1 0.12832656E+00 0.12458831E+04</pdfrwt>
<totfact> 0.39483919E+01</totfact>
</mgrwt>
</event>
<event>
12    6  0.1395358E-007  0.3241425E+04  0.7818608E-02  0.8177962E-01
         -1   -1    0    0    0  501 -0.00000000000E+00  0.00000000000E+00  0.12188515408E+04  0.12188515408E+04  0.00000000000E+00 0.  1.
          2   -1    0    0  501    0  0.00000000000E+00 -0.00000000000E+00 -0.21550684219E+04  0.21550684219E+04  0.00000000000E+00 0. -1.
         24    2    1    2    0    0  0.20990075457E+03  0.46395987312E+03  0.10305867405E+04  0.11522823185E+04  0.79551375734E+02 0.  0.
        254    2    1    2    0    0 -0.20990075457E+03 -0.46395987312E+03 -0.19668036215E+04  0.22216376442E+04  0.89891058840E+03 0.  0.
         23    2    4    4    0    0  0.63088297732E+01 -0.66993826961E+03 -0.10081936691E+04  0.12137502611E+04  0.88758861028E+02 0.  0.
         23    2    4    4    0    0 -0.21620958434E+03  0.20597839649E+03 -0.95860995238E+03  0.10078873831E+04  0.87921851925E+02 0.  0.
          4    1    3    3  502    0  0.11159951080E+03  0.16107887904E+03  0.35801830723E+03  0.40813963835E+03  0.00000000000E+00 0. -1.
         -3    1    3    3    0  502  0.98301243764E+02  0.30288099408E+03  0.67256843323E+03  0.74414268019E+03  0.00000000000E+00 0.  1.
         11    1    5    5    0    0  0.41858686603E+02 -0.25165732630E+03 -0.35076251498E+03  0.43372560616E+03  0.00000000000E+00 0. -1.
        -11    1    5    5    0    0 -0.35549856830E+02 -0.41828094331E+03 -0.65743115413E+03  0.78002465491E+03  0.00000000000E+00 0.  1.
          2    1    6    6  503    0 -0.75245664137E+02  0.34050055713E+02 -0.35921230238E+03  0.36858485379E+03  0.00000000000E+00 0. -1.
         -2    1    6    6    0  503 -0.14096392020E+03  0.17192834078E+03 -0.59939765000E+03  0.63930252932E+03  0.00000000000E+00 0.  1.
<mgrwt>
<rscale>  0 0.32414247E+04</rscale>
<asrwt>0</asrwt>
<pdfrwt beam="1">  1        2 0.33154898E+00 0.32414247E+04</pdfrwt>
<pdfrwt beam="2">  1       -1 0.18751563E+00 0.32414247E+04</pdfrwt>
<totfact> 0.96076934E-01</totfact>
</mgrwt>
</event>
<event>
12    6  0.1395358E-007  0.3669398E+04  0.7818608E-02  0.8074778E-01
         -1   -1    0    0    0  501 -0.00000000000E+00  0.00000000000E+00  0.18952704927E+04  0.18952704927E+04  0.00000000000E+00 0.  1.
          2   -1    0    0  501    0  0.00000000000E+00 -0.00000000000E+00 -0.17760629095E+04  0.17760629095E+04  0.00000000000E+00 0. -1.
         24    2    1    2    0    0  0.16382930618E+04  0.40375690475E+03 -0.29447235706E+03  0.17146711796E+04  0.79746412966E+02 0.  0.
        254    2    1    2    0    0 -0.16382930618E+04 -0.40375690475E+03  0.41367994023E+03  0.19566622226E+04  0.90020673506E+03 0.  0.
         23    2    4    4    0    0 -0.12868846464E+04 -0.38856465856E+03 -0.73184667807E+02  0.13493857195E+04  0.91821768199E+02 0.  0.
         23    2    4    4    0    0 -0.35140841539E+03 -0.15192246188E+02  0.48686460804E+03  0.60727650316E+03  0.89604274318E+02 0.  0.
          2    1    3    3  502    0  0.25281636173E+03  0.61832186221E+02 -0.74913118340E+02  0.27083446477E+03  0.00000000000E+00 0. -1.
         -1    1    3    3    0  502  0.13854767001E+04  0.34192471853E+03 -0.21955923872E+03  0.14438367148E+04  0.00000000000E+00 0.  1.
         11    1    5    5    0    0 -0.72765946313E+03 -0.26287293573E+03 -0.60868960040E+02  0.77607699677E+03  0.00000000000E+00 0.  1.
        -11    1    5    5    0    0 -0.55922518331E+03 -0.12569172284E+03 -0.12315707767E+02  0.57330872268E+03  0.00000000000E+00 0. -1.
          4    1    6    6  503    0 -0.93622648761E+02  0.12307645028E+01  0.20254855143E+03  0.22314262441E+03  0.00000000000E+00 0. -1.
         -4    1    6    6    0  503 -0.25778576663E+03 -0.16423010691E+02  0.28431605661E+03  0.38413387875E+03  0.00000000000E+00 0.  1.
<mgrwt>
<rscale>  0 0.36693976E+04</rscale>
<asrwt>0</asrwt>
<pdfrwt beam="1">  1        2 0.27324045E+00 0.36693976E+04</pdfrwt>
<pdfrwt beam="2">  1       -1 0.29158008E+00 0.36693976E+04</pdfrwt>
<totfact> 0.30725384E-01</totfact>
</mgrwt>
</event>
<event>
12    6  0.1395358E-007  0.2084682E+04  0.7818608E-02  0.8568021E-01
         -1   -1    0    0    0  501 -0.00000000000E+00  0.00000000000E+00  0.37715145681E+03  0.37715145681E+03  0.00000000000E+00 0.  1.
          2   -1    0    0  501    0  0.00000000000E+00 -0.00000000000E+00 -0.28807399500E+04  0.28807399500E+04  0.00000000000E+00 0. -1.
         24    2    1    2    0    0  0.72063286953E+03 -0.28224428846E+03 -0.48733116869E+03  0.91800331576E+03  0.79150797602E+02 0.  0.
        254    2    1    2    0    0 -0.72063286953E+03  0.28224428846E+03 -0.20162573245E+04  0.23398880911E+04  0.90044939284E+03 0.  0.
         23    2    4    4    0    0  0.13837024427E+03  0.21771577263E+03 -0.23934425678E+03  0.36316184909E+03  0.89746159985E+02 0.  0.
         23    2    4    4    0    0 -0.85900311379E+03  0.64528515829E+02 -0.17769130678E+04  0.19767262420E+04  0.89310170632E+02 0.  0.
          4    1    3    3  502    0  0.38864204538E+02 -0.78277035350E+01 -0.46089956172E+02  0.60794600064E+02  0.00000000000E+00 0. -1.
         -3    1    3    3    0  502  0.68176866499E+03 -0.27441658492E+03 -0.44124121251E+03  0.85720871570E+03  0.00000000000E+00 0.  1.
         11    1    5    5    0    0  0.89244352617E+02  0.20237135747E+03 -0.18538463995E+03  0.28859346064E+03  0.00000000000E+00 0.  1.
        -11    1    5    5    0    0  0.49125891650E+02  0.15344415160E+02 -0.53959616834E+02  0.74568388449E+02  0.00000000000E+00 0. -1.
          1    1    6    6  503    0 -0.31747727266E+03  0.92350650406E+01 -0.56438533787E+03  0.64761710499E+03  0.00000000000E+00 0. -1.
         -1    1    6    6    0  503 -0.54152584113E+03  0.55293450788E+02 -0.12125277299E+04  0.13291091370E+04  0.00000000000E+00 0.  1.
<mgrwt>
<rscale>  0 0.20846825E+04</rscale>
<asrwt>0</asrwt>
<pdfrwt beam="1">  1        2 0.44319076E+00 0.20846825E+04</pdfrwt>
<pdfrwt beam="2">  1       -1 0.58023301E-01 0.20846825E+04</pdfrwt>
<totfact> 0.65333554E+00</totfact>
</mgrwt>
</event>
<event>
12    6  0.1395358E-007  0.1746203E+04  0.7818608E-02  0.8735443E-01
         -1   -1    0    0    0  501 -0.00000000000E+00  0.00000000000E+00  0.80187366539E+03  0.80187366539E+03  0.00000000000E+00 0.  1.
          2   -1    0    0  501    0  0.00000000000E+00 -0.00000000000E+00 -0.95065581073E+03  0.95065581073E+03  0.00000000000E+00 0. -1.
         24    2    1    2    0    0 -0.51793938049E+03 -0.19215063894E+03 -0.37720027634E+03  0.67376772462E+03  0.80621513037E+02 0.  0.
        254    2    1    2    0    0  0.51793938049E+03  0.19215063894E+03  0.22841813099E+03  0.10787617515E+04  0.89798051428E+03 0.  0.
         23    2    4    4    0    0  0.43337783209E+03 -0.36210721966E+02 -0.26705036111E+03  0.51838082560E+03  0.90968254070E+02 0.  0.
         23    2    4    4    0    0  0.84561548391E+02  0.22836136091E+03  0.49546849211E+03  0.56038092589E+03  0.96115497248E+02 0.  0.
          4    1    3    3  502    0 -0.34327284138E+03 -0.89752683574E+02 -0.22054152195E+03  0.41776829791E+03  0.00000000000E+00 0. -1.
         -3    1    3    3    0  502 -0.17466653911E+03 -0.10239795537E+03 -0.15665875439E+03  0.25599942671E+03  0.00000000000E+00 0.  1.
         11    1    5    5    0    0  0.42636741082E+03 -0.20935748965E+02 -0.25135884441E+03  0.49538746780E+03  0.00000000000E+00 0. -1.
        -11    1    5    5    0    0  0.70104212774E+01 -0.15274973001E+02 -0.15691516703E+02  0.22993357804E+02  0.00000000000E+00 0.  1.
          1    1    6    6  503    0  0.29195177620E+02  0.41958683092E+02  0.20177512172E+03  0.20814919944E+03  0.00000000000E+00 0. -1.
         -1    1    6    6    0  503  0.55366370771E+02  0.18640267781E+03  0.29369337039E+03  0.35223172645E+03  0.00000000000E+00 0.  1.
<mgrwt>
<rscale>  0 0.17462026E+04</rscale>
<asrwt>0</asrwt>
<pdfrwt beam="1">  1        2 0.14625474E+00 0.17462026E+04</pdfrwt>
<pdfrwt beam="2">  1       -1 0.12336518E+00 0.17462026E+04</pdfrwt>
<totfact> 0.16969878E+01</totfact>
</mgrwt>
</event>
<event>
12    6  0.1395358E-007  0.3937246E+04  0.7818608E-02  0.8017327E-01
         -1   -1    0    0    0  501 -0.00000000000E+00  0.00000000000E+00  0.43628927902E+04  0.43628927902E+04  0.00000000000E+00 0.  1.
          2   -1    0    0  501    0  0.00000000000E+00 -0.00000000000E+00 -0.88828152773E+03  0.88828152773E+03  0.00000000000E+00 0. -1.
         24    2    1    2    0    0  0.60992993728E+03 -0.98281388014E+03  0.35981026202E+04  0.37803005945E+04  0.79952910110E+02 0.  0.
        254    2    1    2    0    0 -0.60992993728E+03  0.98281388014E+03 -0.12349135774E+03  0.14708737234E+04  0.90015651052E+03 0.  0.
         23    2    4    4    0    0 -0.20973291772E+03  0.47732397038E+03  0.37702120991E+03  0.64965906565E+03  0.89921295534E+02 0.  0.
         23    2    4    4    0    0 -0.40019701956E+03  0.50548990976E+03 -0.50051256765E+03  0.82121465777E+03  0.90570306505E+02 0.  0.
          2    1    3    3  502    0  0.22537386365E+03 -0.43265836801E+03  0.14667887734E+04  0.15457865143E+04  0.00000000000E+00 0. -1.
         -1    1    3    3    0  502  0.38455607364E+03 -0.55015551213E+03  0.21313138468E+04  0.22345140802E+04  0.00000000000E+00 0.  1.
         11    1    5    5    0    0  0.73547725083E+01  0.10822884656E+02  0.17969406214E+02  0.22228969176E+02  0.00000000000E+00 0. -1.
        -11    1    5    5    0    0 -0.21708769023E+03  0.46650108572E+03  0.35905180369E+03  0.62743009648E+03  0.00000000000E+00 0.  1.
          4    1    6    6  503    0 -0.20220595597E+03  0.31452346890E+03 -0.25581141810E+03  0.45304717498E+03  0.00000000000E+00 0. -1.
         -4    1    6    6    0  503 -0.19799106359E+03  0.19096644086E+03 -0.24470114955E+03  0.36816748279E+03  0.00000000000E+00 0.  1.
<mgrwt>
<rscale>  0 0.39372463E+04</rscale>
<asrwt>0</asrwt>
<pdfrwt beam="1">  1        2 0.13665870E+00 0.39372463E+04</pdfrwt>
<pdfrwt beam="2">  1       -1 0.67121426E+00 0.39372463E+04</pdfrwt>
<totfact> 0.67380642E-03</totfact>
</mgrwt>
</event>
<event>
12    6  0.1395358E-007  0.1846167E+04  0.7818608E-02  0.8682126E-01
         -1   -1    0    0    0  501 -0.00000000000E+00  0.00000000000E+00  0.40988964346E+03  0.40988964346E+03  0.00000000000E+00 0.  1.
          2   -1    0    0  501    0  0.00000000000E+00 -0.00000000000E+00 -0.20788111911E+04  0.20788111911E+04  0.00000000000E+00 0. -1.
         24    2    1    2    0    0 -0.62464650351E+02 -0.54486370609E+03 -0.49096534783E+02  0.55584859646E+03  0.76019087730E+02 0.  0.
        254    2    1    2    0    0  0.62464650351E+02  0.54486370609E+03 -0.16198250129E+04  0.19328522381E+04  0.90072549166E+03 0.  0.
         23    2    4    4    0    0  0.12541882863E+03 -0.22006770192E+03 -0.55510603492E+03  0.61720170907E+03  0.92927733644E+02 0.  0.
         23    2    4    4    0    0 -0.62954178280E+02  0.76493140801E+03 -0.10647189779E+04  0.13156505290E+04  0.90700193202E+02 0.  0.
          2    1    3    3  502    0 -0.44461491553E+01 -0.31279053762E+03 -0.48977020790E+02  0.31663296928E+03  0.00000000000E+00 0. -1.
         -1    1    3    3    0  502 -0.58018501195E+02 -0.23207316847E+03 -0.11951399335E+00  0.23921562718E+03  0.00000000000E+00 0.  1.
         11    1    5    5    0    0  0.72063415446E+02 -0.12047097268E+03 -0.40953739876E+03  0.43292871479E+03  0.00000000000E+00 0. -1.
        -11    1    5    5    0    0  0.53355413185E+02 -0.99596729237E+02 -0.14556863616E+03  0.18427299429E+03  0.00000000000E+00 0.  1.
          4    1    6    6  503    0 -0.11288330430E+02  0.58432186813E+03 -0.78358476165E+03  0.97752982086E+03  0.00000000000E+00 0. -1.
         -4    1    6    6    0  503 -0.51665847849E+02  0.18060953988E+03 -0.28113421630E+03  0.33812070818E+03  0.00000000000E+00 0.  1.
<mgrwt>
<rscale>  0 0.18461670E+04</rscale>
<asrwt>0</asrwt>
<pdfrwt beam="1">  1        2 0.31981711E+00 0.18461670E+04</pdfrwt>
<pdfrwt beam="2">  1       -1 0.63059945E-01 0.18461670E+04</pdfrwt>
<totfact> 0.16496677E+01</totfact>
</mgrwt>
</event>
<event>
12    6  0.1395358E-007  0.3380300E+04  0.7818608E-02  0.8142758E-01
          2   -1    0    0  501    0  0.00000000000E+00  0.00000000000E+00  0.27631118863E+04  0.27631118863E+04  0.00000000000E+00 0. -1.
         -1   -1    0    0    0  501 -0.00000000000E+00 -0.00000000000E+00 -0.10338370332E+04  0.10338370332E+04  0.00000000000E+00 0.  1.
         24    2    1    2    0    0  0.13735330124E+04  0.58988312444E+03  0.26568998373E+03  0.15203410618E+04  0.79314186565E+02 0.  0.
        254    2    1    2    0    0 -0.13735330124E+04 -0.58988312444E+03  0.14635848693E+04  0.22766078577E+04  0.89794634098E+03 0.  0.
         23    2    4    4    0    0 -0.14402873723E+04 -0.46017154239E+03  0.14594089435E+04  0.21034303025E+04  0.91427622397E+02 0.  0.
         23    2    4    4    0    0  0.66754359892E+02 -0.12971158205E+03  0.41759258167E+01  0.17317755512E+03  0.93229760042E+02 0.  0.
          4    1    3    3  502    0  0.11699636677E+04  0.51902685810E+03  0.25092177084E+03  0.13042873910E+04  0.00000000000E+00 0. -1.
         -3    1    3    3    0  502  0.20356934469E+03  0.70856266342E+02  0.14768212897E+02  0.21605367086E+03  0.00000000000E+00 0.  1.
         11    1    5    5    0    0 -0.35034302545E+02 -0.47311248778E+01  0.53539485289E+02  0.64158104573E+02  0.00000000000E+00 0. -1.
        -11    1    5    5    0    0 -0.14052530698E+04 -0.45544041751E+03  0.14058694582E+04  0.20392721980E+04  0.00000000000E+00 0.  1.
          1    1    6    6  503    0 -0.17266480886E+02 -0.20324167130E+02  0.21375626410E+02  0.34177778396E+02  0.00000000000E+00 0. -1.
         -1    1    6    6    0  503  0.84020840778E+02 -0.10938741492E+03 -0.17199700593E+02  0.13899977672E+03  0.00000000000E+00 0.  1.
<mgrwt>
<rscale>  0 0.33803002E+04</rscale>
<asrwt>0</asrwt>
<pdfrwt beam="1">  1        2 0.42509413E+00 0.33803002E+04</pdfrwt>
<pdfrwt beam="2">  1       -1 0.15905185E+00 0.33803002E+04</pdfrwt>
<totfact> 0.68144821E-01</totfact>
</mgrwt>
</event>
<event>
12    6  0.1395358E-007  0.1199000E+04  0.7818608E-02  0.9113732E-01
         -1   -1    0    0    0  501 -0.00000000000E+00  0.00000000000E+00  0.17716765860E+04  0.17716765860E+04  0.00000000000E+00 0.  1.
          2   -1    0    0  501    0  0.00000000000E+00 -0.00000000000E+00 -0.20285895355E+03  0.20285895355E+03  0.00000000000E+00 0. -1.
         24    2    1    2    0    0 -0.23878336945E+03  0.21022191792E+01  0.48477485222E+03  0.54569778382E+03  0.75878172527E+02 0.  0.
        254    2    1    2    0    0  0.23878336945E+03 -0.21022191792E+01  0.10840427802E+04  0.14288377557E+04  0.89967030961E+03 0.  0.
         23    2    4    4    0    0  0.32568601072E+03 -0.39012339391E+03  0.68990332555E+03  0.86164454094E+03  0.90537706328E+02 0.  0.
         23    2    4    4    0    0 -0.86902641265E+02  0.38802117474E+03  0.39413945469E+03  0.56719321481E+03  0.90828035753E+02 0.  0.
          4    1    3    3  502    0 -0.22557493090E+03 -0.17042811539E+02  0.45272703401E+03  0.50609907548E+03  0.00000000000E+00 0. -1.
         -3    1    3    3    0  502 -0.13208438556E+02  0.19145030718E+02  0.32047818205E+02  0.39598708337E+02  0.00000000000E+00 0.  1.
         11    1    5    5    0    0  0.22163206769E+02 -0.23068024336E+02  0.14331407749E+02  0.35053255614E+02  0.00000000000E+00 0.  1.
        -11    1    5    5    0    0  0.30352280395E+03 -0.36705536958E+03  0.67557191780E+03  0.82659128532E+03  0.00000000000E+00 0. -1.
          4    1    6    6  503    0 -0.19676721826E+02  0.22586540112E+03  0.17493107175E+03  0.28636206569E+03  0.00000000000E+00 0. -1.
         -4    1    6    6    0  503 -0.67225919439E+02  0.16215577362E+03  0.21920838295E+03  0.28083114912E+03  0.00000000000E+00 0.  1.
<mgrwt>
<rscale>  0 0.11990003E+04</rscale>
<asrwt>0</asrwt>
<pdfrwt beam="1">  1        2 0.31209071E-01 0.11990003E+04</pdfrwt>
<pdfrwt beam="2">  1       -1 0.27256562E+00 0.11990003E+04</pdfrwt>
<totfact> 0.96268877E+00</totfact>
</mgrwt>
</event>
<event>
12    6  0.1395358E-007  0.1594938E+04  0.7818608E-02  0.8823664E-01
         -1   -1    0    0    0  501 -0.00000000000E+00  0.00000000000E+00  0.37626616113E+03  0.37626616113E+03  0.00000000000E+00 0.  1.
          2   -1    0    0  501    0  0.00000000000E+00 -0.00000000000E+00 -0.16901781039E+04  0.16901781039E+04  0.00000000000E+00 0. -1.
         24    2    1    2    0    0  0.43039299026E+03 -0.31612142128E+03 -0.55831561095E+03  0.77669846613E+03  0.79832993107E+02 0.  0.
        254    2    1    2    0    0 -0.43039299026E+03  0.31612142128E+03 -0.75559633182E+03  0.12897457989E+04  0.89852519724E+03 0.  0.
         23    2    4    4    0    0 -0.37772015553E+03  0.51988987085E+03 -0.82452646519E+03  0.10499035364E+04  0.97445114249E+02 0.  0.
         23    2    4    4    0    0 -0.52672834733E+02 -0.20376844957E+03  0.68930133367E+02  0.23984226248E+03  0.92070293945E+02 0.  0.
          2    1    3    3  502    0  0.35123555706E+03 -0.21966833715E+03 -0.44750892332E+03  0.60982360674E+03  0.00000000000E+00 0. -1.
         -1    1    3    3    0  502  0.79157433205E+02 -0.96453084136E+02 -0.11080668763E+03  0.16687485938E+03  0.00000000000E+00 0.  1.
         11    1    5    5    0    0 -0.39179310621E+02  0.18748540295E+02 -0.37739199039E+02  0.57539319496E+02  0.00000000000E+00 0.  1.
        -11    1    5    5    0    0 -0.33854084491E+03  0.50114133056E+03 -0.78678726615E+03  0.99236421693E+03  0.00000000000E+00 0. -1.
          4    1    6    6  503    0  0.23486592643E+01 -0.44308766605E+02  0.54879166459E+02  0.70572699464E+02  0.00000000000E+00 0.  1.
         -4    1    6    6    0  503 -0.55021493997E+02 -0.15945968297E+03  0.14050966908E+02  0.16926956302E+03  0.00000000000E+00 0. -1.
<mgrwt>
<rscale>  0 0.15949380E+04</rscale>
<asrwt>0</asrwt>
<pdfrwt beam="1">  1        2 0.26002740E+00 0.15949380E+04</pdfrwt>
<pdfrwt beam="2">  1       -1 0.57887102E-01 0.15949380E+04</pdfrwt>
<totfact> 0.32810163E+01</totfact>
</mgrwt>
</event>
<event>
12    6  0.1395358E-007  0.2219087E+04  0.7818608E-02  0.8510526E-01
         -1   -1    0    0    0  501 -0.00000000000E+00  0.00000000000E+00  0.63417120645E+03  0.63417120645E+03  0.00000000000E+00 0.  1.
          2   -1    0    0  501    0  0.00000000000E+00 -0.00000000000E+00 -0.19412524282E+04  0.19412524282E+04  0.00000000000E+00 0. -1.
         24    2    1    2    0    0  0.12374701757E+03  0.64550721679E+03  0.20883366865E+03  0.69417582309E+03  0.79219195355E+02 0.  0.
        254    2    1    2    0    0 -0.12374701757E+03 -0.64550721679E+03 -0.15159148904E+04  0.18812478116E+04  0.89950124085E+03 0.  0.
         23    2    4    4    0    0 -0.47839999446E+03 -0.19593282745E+03 -0.83813111069E+03  0.98925018263E+03  0.94318278004E+02 0.  0.
         23    2    4    4    0    0  0.35465297688E+03 -0.44957438934E+03 -0.67778377976E+03  0.89199762897E+03  0.91504384673E+02 0.  0.
          2    1    3    3  502    0  0.11152664357E+03  0.37626361699E+03  0.11946724387E+03  0.41022545515E+03  0.00000000000E+00 0. -1.
         -1    1    3    3    0  502  0.12220374007E+02  0.26924359980E+03  0.89366424785E+02  0.28395036794E+03  0.00000000000E+00 0.  1.
         11    1    5    5    0    0 -0.33633306831E+03 -0.17695178633E+03 -0.64679387213E+03  0.75018276477E+03  0.00000000000E+00 0. -1.
        -11    1    5    5    0    0 -0.14206692615E+03 -0.18981041120E+02 -0.19133723856E+03  0.23906741787E+03  0.00000000000E+00 0.  1.
          3    1    6    6  503    0  0.32703262537E+03 -0.44434432939E+03 -0.64214403902E+03  0.84660568624E+03  0.00000000000E+00 0. -1.
         -3    1    6    6    0  503  0.27620351516E+02 -0.52300599479E+01 -0.35639740736E+02  0.45391942729E+02  0.00000000000E+00 0.  1.
<mgrwt>
<rscale>  0 0.22190867E+04</rscale>
<asrwt>0</asrwt>
<pdfrwt beam="1">  1        2 0.29865421E+00 0.22190867E+04</pdfrwt>
<pdfrwt beam="2">  1       -1 0.97564803E-01 0.22190867E+04</pdfrwt>
<totfact> 0.75438268E+00</totfact>
</mgrwt>
</event>
<event>
12    6  0.1395358E-007  0.1405215E+04  0.7818608E-02  0.8950052E-01
          2   -1    0    0  501    0  0.00000000000E+00  0.00000000000E+00  0.66268879052E+03  0.66268879052E+03  0.00000000000E+00 0. -1.
         -1   -1    0    0    0  501 -0.00000000000E+00 -0.00000000000E+00 -0.74493133519E+03  0.74493133519E+03  0.00000000000E+00 0.  1.
         24    2    1    2    0    0 -0.11751348300E+03 -0.35235088925E+03 -0.19656542820E+03  0.42683577073E+03  0.74767906016E+02 0.  0.
        254    2    1    2    0    0  0.11751348300E+03  0.35235088925E+03  0.11432288353E+03  0.98078435498E+03  0.90050411517E+03 0.  0.
         23    2    4    4    0    0  0.17722003128E+03  0.18621573467E+03  0.48713926158E+03  0.55857913198E+03  0.92858748518E+02 0.  0.
         23    2    4    4    0    0 -0.59706548281E+02  0.16613515458E+03 -0.37281637805E+03  0.42220522301E+03  0.89996872716E+02 0.  0.
          4    1    3    3  502    0 -0.46988089931E+02 -0.15446599534E+03 -0.44428787690E+02  0.16745608824E+03  0.00000000000E+00 0. -1.
         -3    1    3    3    0  502 -0.70525393066E+02 -0.19788489391E+03 -0.15213664051E+03  0.25937968249E+03  0.00000000000E+00 0.  1.
         11    1    5    5    0    0  0.14870087354E+03  0.12637059036E+03  0.42524621700E+03  0.46788440984E+03  0.00000000000E+00 0. -1.
        -11    1    5    5    0    0  0.28519157734E+02  0.59845144305E+02  0.61893044589E+02  0.90694722136E+02  0.00000000000E+00 0.  1.
          1    1    6    6  503    0  0.13686543492E+02  0.94649694903E+02 -0.18547577459E+03  0.20867953703E+03  0.00000000000E+00 0. -1.
         -1    1    6    6    0  503 -0.73393091773E+02  0.71485459675E+02 -0.18734060347E+03  0.21352568598E+03  0.00000000000E+00 0.  1.
<mgrwt>
<rscale>  0 0.14052155E+04</rscale>
<asrwt>0</asrwt>
<pdfrwt beam="1">  1        2 0.10195212E+00 0.14052155E+04</pdfrwt>
<pdfrwt beam="2">  1       -1 0.11460482E+00 0.14052155E+04</pdfrwt>
<totfact> 0.33780069E+01</totfact>
</mgrwt>
</event>
<event>
12    6  0.1395358E-007  0.3831827E+04  0.7818608E-02  0.8039359E-01
          2   -1    0    0  501    0  0.00000000000E+00  0.00000000000E+00  0.12939470763E+04  0.12939470763E+04  0.00000000000E+00 0. -1.
         -1   -1    0    0    0  501 -0.00000000000E+00 -0.00000000000E+00 -0.28368424383E+04  0.28368424383E+04  0.00000000000E+00 0.  1.
         24    2    1    2    0    0  0.10676157388E+04  0.14339806960E+04 -0.10284478638E+04  0.20640469851E+04  0.80504322332E+02 0.  0.
        254    2    1    2    0    0 -0.10676157388E+04 -0.14339806960E+04 -0.51444749810E+03  0.20667425295E+04  0.90036906464E+03 0.  0.
         23    2    4    4    0    0 -0.37906320817E+03 -0.39389972699E+03 -0.59523586225E+03  0.81352577125E+03  0.93126462732E+02 0.  0.
         23    2    4    4    0    0 -0.68855253063E+03 -0.10400809690E+04  0.80788364154E+02  0.12532167582E+04  0.90291050267E+02 0.  0.
          4    1    3    3  502    0  0.33396237185E+03  0.43330279513E+03 -0.35655505089E+03  0.65300358529E+03  0.00000000000E+00 0. -1.
         -3    1    3    3    0  502  0.73365336695E+03  0.10006779009E+04 -0.67189281294E+03  0.14110433998E+04  0.00000000000E+00 0.  1.
         11    1    5    5    0    0 -0.38065188377E+03 -0.38648509366E+03 -0.56871042892E+03  0.78593774321E+03  0.00000000000E+00 0. -1.
        -11    1    5    5    0    0  0.15886756008E+01 -0.74146333327E+01 -0.26525433329E+02  0.27588028036E+02  0.00000000000E+00 0.  1.
          1    1    6    6  503    0 -0.56637166708E+03 -0.78783352964E+03  0.66967602895E+02  0.97259611121E+03  0.00000000000E+00 0. -1.
         -1    1    6    6    0  503 -0.12218086355E+03 -0.25224743937E+03  0.13820761258E+02  0.28062064701E+03  0.00000000000E+00 0.  1.
<mgrwt>
<rscale>  0 0.38318267E+04</rscale>
<asrwt>0</asrwt>
<pdfrwt beam="1">  1        2 0.19906878E+00 0.38318267E+04</pdfrwt>
<pdfrwt beam="2">  1       -1 0.43643730E+00 0.38318267E+04</pdfrwt>
<totfact> 0.60923184E-02</totfact>
</mgrwt>
</event>
<event>
12    6  0.1395358E-007  0.2361550E+04  0.7818608E-02  0.8454040E-01
          2   -1    0    0  501    0  0.00000000000E+00  0.00000000000E+00  0.25491466051E+04  0.25491466051E+04  0.00000000000E+00 0. -1.
         -1   -1    0    0    0  501 -0.00000000000E+00 -0.00000000000E+00 -0.54693981625E+03  0.54693981625E+03  0.00000000000E+00 0.  1.
         24    2    1    2    0    0  0.51639278403E+03  0.15495663462E+02  0.19874365165E+04  0.20550339423E+04  0.79743176287E+02 0.  0.
        254    2    1    2    0    0 -0.51639278403E+03 -0.15495663462E+02  0.14770272351E+02  0.10410524790E+04  0.90369822402E+03 0.  0.
         23    2    4    4    0    0  0.64988862631E+02 -0.34586247077E+03 -0.16806351818E+01  0.36422663149E+03  0.93881913071E+02 0.  0.
         23    2    4    4    0    0 -0.58138164666E+03  0.33036680730E+03  0.16450907533E+02  0.67682584750E+03  0.10332351643E+03 0.  0.
          4    1    3    3  502    0  0.26936908955E+03  0.25893581217E+02  0.11778024979E+04  0.12084903425E+04  0.00000000000E+00 0. -1.
         -3    1    3    3    0  502  0.24702369447E+03 -0.10397917755E+02  0.80963401858E+03  0.84654359981E+03  0.00000000000E+00 0.  1.
         11    1    5    5    0    0  0.27885883578E+02 -0.13868303424E+03 -0.46742381152E+02  0.14898139711E+03  0.00000000000E+00 0. -1.
        -11    1    5    5    0    0  0.37102979054E+02 -0.20717943653E+03  0.45061745970E+02  0.21524523438E+03  0.00000000000E+00 0.  1.
          1    1    6    6  503    0 -0.40260021460E+03  0.20956509834E+03  0.56474511293E+02  0.45737712411E+03  0.00000000000E+00 0. -1.
         -1    1    6    6    0  503 -0.17878143206E+03  0.12080170896E+03 -0.40023603760E+02  0.21944872339E+03  0.00000000000E+00 0.  1.
<mgrwt>
<rscale>  0 0.23615501E+04</rscale>
<asrwt>0</asrwt>
<pdfrwt beam="1">  1        2 0.39217639E+00 0.23615501E+04</pdfrwt>
<pdfrwt beam="2">  1       -1 0.84144589E-01 0.23615501E+04</pdfrwt>
<totfact> 0.46805299E+00</totfact>
</mgrwt>
</event>
<event>
12    6  0.1395358E-007  0.1720144E+04  0.7818608E-02  0.8749958E-01
          2   -1    0    0  501    0  0.00000000000E+00  0.00000000000E+00  0.14836407598E+04  0.14836407598E+04  0.00000000000E+00 0. -1.
         -1   -1    0    0    0  501 -0.00000000000E+00 -0.00000000000E+00 -0.49858688553E+03  0.49858688553E+03  0.00000000000E+00 0.  1.
         24    2    1    2    0    0 -0.54106984379E+03  0.36558906244E+02  0.70762940512E+03  0.89486119367E+03  0.77097674896E+02 0.  0.
        254    2    1    2    0    0  0.54106984379E+03 -0.36558906244E+02  0.27742446911E+03  0.10873664516E+04  0.90072655926E+03 0.  0.
         23    2    4    4    0    0  0.22517859403E+01  0.12839267275E+03 -0.25964013820E+03  0.30361580301E+03  0.90993436658E+02 0.  0.
         23    2    4    4    0    0  0.53881805785E+03 -0.16495157899E+03  0.53706460731E+03  0.78375064861E+03  0.91064613830E+02 0.  0.
          4    1    3    3  502    0 -0.23719938383E+03 -0.17600183083E+02  0.33808933593E+03  0.41337357584E+03  0.00000000000E+00 0. -1.
         -3    1    3    3    0  502 -0.30387045996E+03  0.54159089327E+02  0.36954006919E+03  0.48148761784E+03  0.00000000000E+00 0.  1.
         11    1    5    5    0    0  0.14756418452E+02  0.42563056138E+02 -0.21001437404E+02  0.49703380231E+02  0.00000000000E+00 0.  1.
        -11    1    5    5    0    0 -0.12504632512E+02  0.85829616610E+02 -0.23863870080E+03  0.25391242278E+03  0.00000000000E+00 0. -1.
          1    1    6    6  503    0  0.52487116759E+03 -0.17458537085E+03  0.52719306735E+03  0.76413501722E+03  0.00000000000E+00 0. -1.
         -1    1    6    6    0  503  0.13946890262E+02  0.96337918587E+01  0.98715399569E+01  0.19615631386E+02  0.00000000000E+00 0.  1.
<mgrwt>
<rscale>  0 0.17201440E+04</rscale>
<asrwt>0</asrwt>
<pdfrwt beam="1">  1        2 0.22825242E+00 0.17201440E+04</pdfrwt>
<pdfrwt beam="2">  1       -1 0.76705675E-01 0.17201440E+04</pdfrwt>
<totfact> 0.23940902E+01</totfact>
</mgrwt>
</event>
<event>
12    6  0.1395358E-007  0.1407566E+04  0.7818608E-02  0.8948360E-01
         -1   -1    0    0    0  501 -0.00000000000E+00  0.00000000000E+00  0.30864193951E+03  0.30864193951E+03  0.00000000000E+00 0.  1.
          2   -1    0    0  501    0  0.00000000000E+00 -0.00000000000E+00 -0.16048058830E+04  0.16048058830E+04  0.00000000000E+00 0. -1.
         24    2    1    2    0    0 -0.40441029737E+03 -0.50654986924E+02 -0.35967590864E+03  0.54956405891E+03  0.80871993140E+02 0.  0.
        254    2    1    2    0    0  0.40441029737E+03  0.50654986924E+02 -0.93648803486E+03  0.13638837636E+04  0.90391120411E+03 0.  0.
         23    2    4    4    0    0  0.84816043436E+02 -0.28982595935E+03 -0.81402138212E+03  0.87268559552E+03  0.88070938107E+02 0.  0.
         23    2    4    4    0    0  0.31959425393E+03  0.34048094628E+03 -0.12246665274E+03  0.49119816810E+03  0.90607932270E+02 0.  0.
          4    1    3    3  502    0 -0.37041723802E+03 -0.50765215054E+02 -0.35441520641E+03  0.51516616331E+03  0.00000000000E+00 0. -1.
         -3    1    3    3    0  502 -0.33993059350E+02  0.11022813033E+00 -0.52607022305E+01  0.34397895607E+02  0.00000000000E+00 0.  1.
         11    1    5    5    0    0  0.74210144956E+01  0.52977306687E+01 -0.17575471729E+02  0.19799863961E+02  0.00000000000E+00 0.  1.
        -11    1    5    5    0    0  0.77395028940E+02 -0.29512369002E+03 -0.79644591039E+03  0.85288573156E+03  0.00000000000E+00 0. -1.
          3    1    6    6  503    0  0.23611985738E+03  0.21905837379E+03 -0.12034672082E+03  0.34383497697E+03  0.00000000000E+00 0. -1.
         -3    1    6    6    0  503  0.83474396546E+02  0.12142257249E+03 -0.21199319230E+01  0.14736319113E+03  0.00000000000E+00 0.  1.
<mgrwt>
<rscale>  0 0.14075658E+04</rscale>
<asrwt>0</asrwt>
<pdfrwt beam="1">  1        2 0.24689321E+00 0.14075658E+04</pdfrwt>
<pdfrwt beam="2">  1       -1 0.47483376E-01 0.14075658E+04</pdfrwt>
<totfact> 0.54376008E+01</totfact>
</mgrwt>
</event>
<event>
12    6  0.1395358E-007  0.1635255E+04  0.7818608E-02  0.8799177E-01
         -1   -1    0    0    0  501 -0.00000000000E+00  0.00000000000E+00  0.42943130051E+03  0.42943130051E+03  0.00000000000E+00 0.  1.
          2   -1    0    0  501    0  0.00000000000E+00 -0.00000000000E+00 -0.15567446850E+04  0.15567446850E+04  0.00000000000E+00 0. -1.
         24    2    1    2    0    0  0.48164635386E+03 -0.27727017943E+03 -0.25691230340E+03  0.61746976888E+03  0.80018880606E+02 0.  0.
        254    2    1    2    0    0 -0.48164635386E+03  0.27727017943E+03 -0.87040108109E+03  0.13687062166E+04  0.89827429155E+03 0.  0.
         23    2    4    4    0    0  0.13880308982E+03  0.70504842365E+02 -0.64479059452E+03  0.67041402617E+03  0.97277053627E+02 0.  0.
         23    2    4    4    0    0 -0.62044944369E+03  0.20676533707E+03 -0.22561048657E+03  0.69829219045E+03  0.94881372294E+02 0.  0.
          2    1    3    3  502    0  0.14281722957E+03 -0.68234677169E+02 -0.11155580077E+03  0.19364252868E+03  0.00000000000E+00 0. -1.
         -1    1    3    3    0  502  0.33882912430E+03 -0.20903550226E+03 -0.14535650263E+03  0.42382724020E+03  0.00000000000E+00 0.  1.
         11    1    5    5    0    0  0.10962783353E+03  0.94312924514E+02 -0.54132713581E+03  0.56031085799E+03  0.00000000000E+00 0.  1.
        -11    1    5    5    0    0  0.29175256299E+02 -0.23808082149E+02 -0.10346345871E+03  0.11010316819E+03  0.00000000000E+00 0. -1.
          3    1    6    6  503    0 -0.99407932959E+02  0.51716148914E+02 -0.72704751254E+02  0.13357573900E+03  0.00000000000E+00 0. -1.
         -3    1    6    6    0  503 -0.52104151073E+03  0.15504918815E+03 -0.15290573532E+03  0.56471645145E+03  0.00000000000E+00 0.  1.
<mgrwt>
<rscale>  0 0.16352552E+04</rscale>
<asrwt>0</asrwt>
<pdfrwt beam="1">  1        2 0.23949918E+00 0.16352552E+04</pdfrwt>
<pdfrwt beam="2">  1       -1 0.66066354E-01 0.16352552E+04</pdfrwt>
<totfact> 0.29836104E+01</totfact>
</mgrwt>
</event>
<event>
12    6  0.1395358E-007  0.1168696E+04  0.7818608E-02  0.9140707E-01
          2   -1    0    0  501    0  0.00000000000E+00  0.00000000000E+00  0.19863346168E+04  0.19863346168E+04  0.00000000000E+00 0. -1.
         -1   -1    0    0    0  501 -0.00000000000E+00 -0.00000000000E+00 -0.17190579618E+03  0.17190579618E+03  0.00000000000E+00 0.  1.
         24    2    1    2    0    0 -0.11589532825E+02 -0.17505940018E+03  0.10785087202E+03  0.22103633365E+03  0.80281625151E+02 0.  0.
        254    2    1    2    0    0  0.11589532825E+02  0.17505940018E+03  0.17065779486E+04  0.19372040794E+04  0.89976176817E+03 0.  0.
         23    2    4    4    0    0  0.81613734939E+02  0.97595436752E+02 -0.61741722136E+02  0.16349585088E+03  0.82055968683E+02 0.  0.
         23    2    4    4    0    0 -0.70024202114E+02  0.77463963424E+02  0.17683196708E+04  0.17737082285E+04  0.90456438330E+02 0.  0.
          2    1    3    3  502    0 -0.41190143576E+02 -0.52631038405E+02  0.41554057880E+02  0.78698118514E+02  0.00000000000E+00 0. -1.
         -1    1    3    3    0  502  0.29600610751E+02 -0.12242836177E+03  0.66296814139E+02  0.14233821513E+03  0.00000000000E+00 0.  1.
         11    1    5    5    0    0  0.70319802773E+02  0.20186066297E+02 -0.30141669819E+02  0.79125673419E+02  0.00000000000E+00 0.  1.
        -11    1    5    5    0    0  0.11293932166E+02  0.77409370455E+02 -0.31600052317E+02  0.84370177459E+02  0.00000000000E+00 0. -1.
          4    1    6    6  503    0 -0.68660010887E+02  0.68671575854E+02  0.17550331206E+04  0.17577176215E+04  0.00000000000E+00 0. -1.
         -4    1    6    6    0  503 -0.13641912265E+01  0.87923875698E+01  0.13286550126E+02  0.15990606966E+02  0.00000000000E+00 0.  1.
<mgrwt>
<rscale>  0 0.11686957E+04</rscale>
<asrwt>0</asrwt>
<pdfrwt beam="1">  1        2 0.30558992E+00 0.11686957E+04</pdfrwt>
<pdfrwt beam="2">  1       -1 0.26447047E-01 0.11686957E+04</pdfrwt>
<totfact> 0.97494554E+01</totfact>
</mgrwt>
</event>
<event>
12    6  0.1395358E-007  0.1710306E+04  0.7818608E-02  0.8755508E-01
         -1   -1    0    0    0  501 -0.00000000000E+00  0.00000000000E+00  0.60809996763E+03  0.60809996763E+03  0.00000000000E+00 0.  1.
          2   -1    0    0  501    0  0.00000000000E+00 -0.00000000000E+00 -0.12025759185E+04  0.12025759185E+04  0.00000000000E+00 0. -1.
         24    2    1    2    0    0  0.52618310706E+03  0.94979884559E+02 -0.53854905122E+03  0.76289581552E+03  0.78007077514E+02 0.  0.
        254    2    1    2    0    0 -0.52618310706E+03 -0.94979884559E+02 -0.55926899658E+02  0.10477800706E+04  0.89934721752E+03 0.  0.
         23    2    4    4    0    0 -0.30849509733E+03 -0.46623029561E+03  0.11172586622E+03  0.57715320656E+03  0.89906846476E+02 0.  0.
         23    2    4    4    0    0 -0.21768800974E+03  0.37125041105E+03 -0.16765276588E+03  0.47062686406E+03  0.90372883026E+02 0.  0.
          4    1    3    3  502    0  0.20372063171E+03  0.56893855382E+02 -0.25931149646E+03  0.33463630819E+03  0.00000000000E+00 0. -1.
         -3    1    3    3    0  502  0.32246247535E+03  0.38086029177E+02 -0.27923755475E+03  0.42825950733E+03  0.00000000000E+00 0.  1.
         11    1    5    5    0    0 -0.10427386908E+01 -0.10324180238E+01 -0.69034347358E+01  0.70576626516E+01  0.00000000000E+00 0. -1.
        -11    1    5    5    0    0 -0.30745235863E+03 -0.46519787758E+03  0.11862930095E+03  0.57009554391E+03  0.00000000000E+00 0.  1.
          1    1    6    6  503    0 -0.70513319301E+01  0.79742557163E+01 -0.24934317584E+02  0.27111440935E+02  0.00000000000E+00 0. -1.
         -1    1    6    6    0  503 -0.21063667780E+03  0.36327615533E+03 -0.14271844829E+03  0.44351542313E+03  0.00000000000E+00 0.  1.
<mgrwt>
<rscale>  0 0.17103057E+04</rscale>
<asrwt>0</asrwt>
<pdfrwt beam="1">  1        2 0.18501168E+00 0.17103057E+04</pdfrwt>
<pdfrwt beam="2">  1       -1 0.93553843E-01 0.17103057E+04</pdfrwt>
<totfact> 0.22679639E+01</totfact>
</mgrwt>
</event>
<event>
12    6  0.1395358E-007  0.3146641E+04  0.7818608E-02  0.8203053E-01
         -1   -1    0    0    0  501 -0.00000000000E+00  0.00000000000E+00  0.14726776076E+04  0.14726776076E+04  0.00000000000E+00 0.  1.
          2   -1    0    0  501    0  0.00000000000E+00 -0.00000000000E+00 -0.16808417557E+04  0.16808417557E+04  0.00000000000E+00 0. -1.
         24    2    1    2    0    0  0.53893164661E+03  0.59599172924E+03 -0.12973987158E+04  0.15284083739E+04  0.84470519590E+02 0.  0.
        254    2    1    2    0    0 -0.53893164661E+03 -0.59599172924E+03  0.10892345677E+04  0.16251109893E+04  0.89938886090E+03 0.  0.
         23    2    4    4    0    0 -0.20072732924E+03 -0.54234277463E+03  0.11263754013E+04  0.12694983964E+04  0.92073273803E+02 0.  0.
         23    2    4    4    0    0 -0.33820431738E+03 -0.53648954604E+02 -0.37140833613E+02  0.35561259297E+03  0.88433614287E+02 0.  0.
          4    1    3    3  502    0  0.35233317607E+03  0.32888920228E+03 -0.75984690717E+03  0.89981892438E+03  0.00000000000E+00 0. -1.
         -3    1    3    3    0  502  0.18659847054E+03  0.26710252696E+03 -0.53755180865E+03  0.62858944956E+03  0.00000000000E+00 0.  1.
         11    1    5    5    0    0 -0.97113074359E+02 -0.35693833108E+03  0.64927678744E+03  0.74725917064E+03  0.00000000000E+00 0.  1.
        -11    1    5    5    0    0 -0.10361425488E+03 -0.18540444355E+03  0.47709861388E+03  0.52223922571E+03  0.00000000000E+00 0. -1.
          3    1    6    6  503    0 -0.79446191416E+02 -0.43401618994E+02 -0.33792879045E+02  0.96629998117E+02  0.00000000000E+00 0. -1.
         -3    1    6    6    0  503 -0.25875812596E+03 -0.10247335610E+02 -0.33479545673E+01  0.25898259486E+03  0.00000000000E+00 0.  1.
<mgrwt>
<rscale>  0 0.31466414E+04</rscale>
<asrwt>0</asrwt>
<pdfrwt beam="1">  1        2 0.25859104E+00 0.31466414E+04</pdfrwt>
<pdfrwt beam="2">  1       -1 0.22656579E+00 0.31466414E+04</pdfrwt>
<totfact> 0.96255738E-01</totfact>
</mgrwt>
</event>
<event>
12    6  0.1395358E-007  0.1487709E+04  0.7818608E-02  0.8892668E-01
         -1   -1    0    0    0  501 -0.00000000000E+00  0.00000000000E+00  0.51523733417E+03  0.51523733417E+03  0.00000000000E+00 0.  1.
          2   -1    0    0  501    0  0.00000000000E+00 -0.00000000000E+00 -0.10739115582E+04  0.10739115582E+04  0.00000000000E+00 0. -1.
         24    2    1    2    0    0 -0.36343172841E+03  0.28673087557E+03 -0.20978131807E+03  0.51548952177E+03  0.86162807657E+02 0.  0.
        254    2    1    2    0    0  0.36343172841E+03 -0.28673087557E+03 -0.34889290601E+03  0.10736593706E+04  0.90372615768E+03 0.  0.
         23    2    4    4    0    0 -0.23147844603E+03 -0.28589703374E+03 -0.39276385477E+01  0.37942303797E+03  0.92881809414E+02 0.  0.
         23    2    4    4    0    0  0.59491017444E+03 -0.83384182368E+00 -0.34496526746E+03  0.69423633267E+03  0.95101203477E+02 0.  0.
          2    1    3    3  502    0 -0.25701850856E+03  0.19762995411E+03 -0.18863073645E+03  0.37509687713E+03  0.00000000000E+00 0. -1.
         -1    1    3    3    0  502 -0.10641321986E+03  0.89100921463E+02 -0.21150581617E+02  0.14039264464E+03  0.00000000000E+00 0.  1.
         11    1    5    5    0    0 -0.21498201164E+03 -0.25873250957E+03 -0.30805899751E+02  0.33779991163E+03  0.00000000000E+00 0.  1.
        -11    1    5    5    0    0 -0.16496434381E+02 -0.27164524178E+02  0.26878261204E+02  0.41623126341E+02  0.00000000000E+00 0. -1.
          3    1    6    6  503    0  0.54096649040E+02 -0.79412852953E+01 -0.38933954717E+01  0.54814870043E+02  0.00000000000E+00 0. -1.
         -3    1    6    6    0  503  0.54081352540E+03  0.71074434717E+01 -0.34107187199E+03  0.63942146263E+03  0.00000000000E+00 0.  1.
<mgrwt>
<rscale>  0 0.14877087E+04</rscale>
<asrwt>0</asrwt>
<pdfrwt beam="1">  1        2 0.16521716E+00 0.14877087E+04</pdfrwt>
<pdfrwt beam="2">  1       -1 0.79267284E-01 0.14877087E+04</pdfrwt>
<totfact> 0.39690427E+01</totfact>
</mgrwt>
</event>
<event>
12    6  0.1395358E-007  0.3676196E+04  0.7818608E-02  0.8073258E-01
         -1   -1    0    0    0  501 -0.00000000000E+00  0.00000000000E+00  0.12989277132E+04  0.12989277132E+04  0.00000000000E+00 0.  1.
          2   -1    0    0  501    0  0.00000000000E+00 -0.00000000000E+00 -0.26010713402E+04  0.26010713402E+04  0.00000000000E+00 0. -1.
         24    2    1    2    0    0  0.68646261590E+03  0.12330867627E+04 -0.16682406390E+04  0.21865389552E+04  0.78688533944E+02 0.  0.
        254    2    1    2    0    0 -0.68646261590E+03 -0.12330867627E+04  0.36609701200E+03  0.17134600983E+04  0.90010254904E+03 0.  0.
         23    2    4    4    0    0 -0.65220597952E+03 -0.13518286618E+04  0.25744665363E+03  0.15256255065E+04  0.91875110874E+02 0.  0.
         23    2    4    4    0    0 -0.34256636375E+02  0.11874189904E+03  0.10865035837E+03  0.18783459183E+03  0.90574708346E+02 0.  0.
          2    1    3    3  502    0  0.79004903929E+02  0.16703916421E+03 -0.25634824760E+03  0.31600360959E+03  0.00000000000E+00 0. -1.
         -1    1    3    3    0  502  0.60745771197E+03  0.10660475985E+04 -0.14118923914E+04  0.18705353456E+04  0.00000000000E+00 0.  1.
         11    1    5    5    0    0 -0.15846643330E+03 -0.42233850223E+03  0.66742568759E+02  0.45599999061E+03  0.00000000000E+00 0.  1.
        -11    1    5    5    0    0 -0.49373954622E+03 -0.92949015953E+03  0.19070408487E+03  0.10696255158E+04  0.00000000000E+00 0. -1.
          3    1    6    6  503    0 -0.15214888874E+00  0.11871882228E+03  0.89890251217E+02  0.14891084304E+03  0.00000000000E+00 0. -1.
         -3    1    6    6    0  503 -0.34104487486E+02  0.23076758410E-01  0.18760107152E+02  0.38923748787E+02  0.00000000000E+00 0.  1.
<mgrwt>
<rscale>  0 0.36761957E+04</rscale>
<asrwt>0</asrwt>
<pdfrwt beam="1">  1        2 0.40016482E+00 0.36761957E+04</pdfrwt>
<pdfrwt beam="2">  1       -1 0.19983503E+00 0.36761957E+04</pdfrwt>
<totfact> 0.42195980E-01</totfact>
</mgrwt>
</event>
<event>
12    6  0.1395358E-007  0.1369291E+04  0.7818608E-02  0.8976352E-01
         -1   -1    0    0    0  501 -0.00000000000E+00  0.00000000000E+00  0.52210284067E+03  0.52210284067E+03  0.00000000000E+00 0.  1.
          2   -1    0    0  501    0  0.00000000000E+00 -0.00000000000E+00 -0.89779098267E+03  0.89779098267E+03  0.00000000000E+00 0. -1.
         24    2    1    2    0    0  0.36526466541E+03  0.20448156240E+01 -0.22721395353E+03  0.43742482532E+03  0.79321119898E+02 0.  0.
        254    2    1    2    0    0 -0.36526466541E+03 -0.20448156240E+01 -0.14847418847E+03  0.98246899802E+03  0.89987681955E+03 0.  0.
         23    2    4    4    0    0 -0.63533462542E+03 -0.11724221150E+03 -0.16950835445E+03  0.67403781131E+03  0.90543174451E+02 0.  0.
         23    2    4    4    0    0  0.27006996001E+03  0.11519739588E+03  0.21034165972E+02  0.30843118671E+03  0.92082232146E+02 0.  0.
          2    1    3    3  502    0  0.24000617880E+03 -0.33152484640E+02 -0.16554372109E+03  0.29343956225E+03  0.00000000000E+00 0. -1.
         -1    1    3    3    0  502  0.12525848660E+03  0.35197300264E+02 -0.61670232443E+02  0.14398526307E+03  0.00000000000E+00 0.  1.
         11    1    5    5    0    0 -0.53710547968E+03 -0.12600892914E+03 -0.16271716121E+03  0.57518468432E+03  0.00000000000E+00 0. -1.
        -11    1    5    5    0    0 -0.98229145744E+02  0.87667176344E+01 -0.67911932333E+01  0.98853126997E+02  0.00000000000E+00 0.  1.
          3    1    6    6  503    0  0.59229614094E+02  0.70116387559E+02  0.12749297067E+02  0.92666064801E+02  0.00000000000E+00 0. -1.
         -3    1    6    6    0  503  0.21084034592E+03  0.45081008318E+02  0.82848689051E+01  0.21576512191E+03  0.00000000000E+00 0.  1.
<mgrwt>
<rscale>  0 0.13692907E+04</rscale>
<asrwt>0</asrwt>
<pdfrwt beam="1">  1        2 0.13812169E+00 0.13692907E+04</pdfrwt>
<pdfrwt beam="2">  1       -1 0.80323514E-01 0.13692907E+04</pdfrwt>
<totfact> 0.50673192E+01</totfact>
</mgrwt>
</event>
<event>
12    6  0.1395358E-007  0.1624770E+04  0.7818608E-02  0.8805474E-01
          2   -1    0    0  501    0  0.00000000000E+00  0.00000000000E+00  0.37685376565E+04  0.37685376565E+04  0.00000000000E+00 0. -1.
         -1   -1    0    0    0  501 -0.00000000000E+00 -0.00000000000E+00 -0.17512609045E+03  0.17512609045E+03  0.00000000000E+00 0.  1.
         24    2    1    2    0    0 -0.56064255198E+03 -0.48676881141E+02  0.11143004172E+04  0.12508847241E+04  0.79734957825E+02 0.  0.
        254    2    1    2    0    0  0.56064255198E+03  0.48676881141E+02  0.24791111489E+04  0.26927790228E+04  0.88790611407E+03 0.  0.
         23    2    4    4    0    0  0.68344372974E+03 -0.23498990582E+03  0.17705843471E+04  0.19145415086E+04  0.90469167512E+02 0.  0.
         23    2    4    4    0    0 -0.12280117776E+03  0.28366678696E+03  0.70852680177E+03  0.77823751425E+03  0.89980133736E+02 0.  0.
          2    1    3    3  502    0 -0.30874770437E+03 -0.10031731478E+02  0.68894056693E+03  0.75502641368E+03  0.00000000000E+00 0. -1.
         -1    1    3    3    0  502 -0.25189484760E+03 -0.38645149663E+02  0.42535985024E+03  0.49585831045E+03  0.00000000000E+00 0.  1.
         11    1    5    5    0    0  0.67320254110E+03 -0.22198398394E+03  0.16966522678E+04  0.18387787980E+04  0.00000000000E+00 0.  1.
        -11    1    5    5    0    0  0.10241188637E+02 -0.13005921886E+02  0.73932079361E+02  0.75762710534E+02  0.00000000000E+00 0. -1.
          1    1    6    6  503    0  0.67048505076E+01  0.69565569083E+02  0.12265660968E+03  0.14116999441E+03  0.00000000000E+00 0. -1.
         -1    1    6    6    0  503 -0.12950602827E+03  0.21410121788E+03  0.58587019209E+03  0.63706751984E+03  0.00000000000E+00 0.  1.
<mgrwt>
<rscale>  0 0.16247699E+04</rscale>
<asrwt>0</asrwt>
<pdfrwt beam="1">  1        2 0.57977496E+00 0.16247699E+04</pdfrwt>
<pdfrwt beam="2">  1       -1 0.26942478E-01 0.16247699E+04</pdfrwt>
<totfact> 0.70684046E+00</totfact>
</mgrwt>
</event>
<event>
12    6  0.1395358E-007  0.1431845E+04  0.7818608E-02  0.8931084E-01
          2   -1    0    0  501    0  0.00000000000E+00  0.00000000000E+00  0.72657927788E+03  0.72657927788E+03  0.00000000000E+00 0. -1.
         -1   -1    0    0    0  501 -0.00000000000E+00 -0.00000000000E+00 -0.70542230339E+03  0.70542230339E+03  0.00000000000E+00 0.  1.
         24    2    1    2    0    0 -0.19499603268E+03  0.33368775692E+03  0.19322097244E+03  0.43820856569E+03  0.72948138964E+02 0.  0.
        254    2    1    2    0    0  0.19499603268E+03 -0.33368775692E+03 -0.17206399795E+03  0.99379301558E+03  0.89924833419E+03 0.  0.
         23    2    4    4    0    0 -0.15823446814E+02 -0.35715599423E+03  0.29608405738E+03  0.47143917064E+03  0.82330655884E+02 0.  0.
         23    2    4    4    0    0  0.21081947949E+03  0.23468237307E+02 -0.46814805533E+03  0.52235384494E+03  0.93248734694E+02 0.  0.
          2    1    3    3  502    0 -0.15444906898E+03  0.26249614216E+03  0.18383420450E+03  0.35574394486E+03  0.00000000000E+00 0. -1.
         -1    1    3    3    0  502 -0.40546963700E+02  0.71191614757E+02  0.93867679348E+01  0.82464620834E+02  0.00000000000E+00 0.  1.
         11    1    5    5    0    0  0.21660033376E+02 -0.18493337995E+03  0.11557247680E+03  0.21914951394E+03  0.00000000000E+00 0. -1.
        -11    1    5    5    0    0 -0.37483480189E+02 -0.17222261428E+03  0.18051158058E+03  0.25228965670E+03  0.00000000000E+00 0.  1.
          1    1    6    6  503    0  0.54583413230E+02  0.48094641919E+02 -0.16822826452E+03  0.18328445805E+03  0.00000000000E+00 0. -1.
         -1    1    6    6    0  503  0.15623606626E+03 -0.24626404611E+02 -0.29991979081E+03  0.33906938689E+03  0.00000000000E+00 0.  1.
<mgrwt>
<rscale>  0 0.14318453E+04</rscale>
<asrwt>0</asrwt>
<pdfrwt beam="1">  1        2 0.11178143E+00 0.14318453E+04</pdfrwt>
<pdfrwt beam="2">  1       -1 0.10852651E+00 0.14318453E+04</pdfrwt>
<totfact> 0.34152031E+01</totfact>
</mgrwt>
</event>
<event>
12    6  0.1395358E-007  0.1504522E+04  0.7818608E-02  0.8881452E-01
         -1   -1    0    0    0  501 -0.00000000000E+00  0.00000000000E+00  0.12353458693E+03  0.12353458693E+03  0.00000000000E+00 0.  1.
          2   -1    0    0  501    0  0.00000000000E+00 -0.00000000000E+00 -0.45808737273E+04  0.45808737273E+04  0.00000000000E+00 0. -1.
         24    2    1    2    0    0  0.17726207367E+03 -0.79174007260E+02 -0.72554206151E+02  0.22399102314E+03  0.84955867538E+02 0.  0.
        254    2    1    2    0    0 -0.17726207367E+03  0.79174007260E+02 -0.43847849342E+04  0.44804172911E+04  0.90006100725E+03 0.  0.
         23    2    4    4    0    0  0.30462195591E+03 -0.32124587798E+02 -0.27872562192E+04  0.28055108741E+04  0.90925837822E+02 0.  0.
         23    2    4    4    0    0 -0.48188402958E+03  0.11129859506E+03 -0.15975287150E+04  0.16749064170E+04  0.92811180272E+02 0.  0.
          4    1    3    3  502    0  0.59517782716E+02 -0.20609911230E+02 -0.67596791095E+02  0.92392970872E+02  0.00000000000E+00 0. -1.
         -3    1    3    3    0  502  0.11774429096E+03 -0.58564096030E+02 -0.49574150557E+01  0.13159805227E+03  0.00000000000E+00 0.  1.
         11    1    5    5    0    0  0.20861822752E+03  0.16197378011E+02 -0.20091520887E+04  0.20200188206E+04  0.00000000000E+00 0. -1.
        -11    1    5    5    0    0  0.96003728388E+02 -0.48321965809E+02 -0.77810413049E+03  0.78549205351E+03  0.00000000000E+00 0.  1.
          4    1    6    6  503    0 -0.31134780017E+03  0.30198476334E+02 -0.10587256433E+04  0.11039698313E+04  0.00000000000E+00 0. -1.
         -4    1    6    6    0  503 -0.17053622941E+03  0.81100118723E+02 -0.53880307168E+03  0.57093658567E+03  0.00000000000E+00 0.  1.
<mgrwt>
<rscale>  0 0.15045216E+04</rscale>
<asrwt>0</asrwt>
<pdfrwt beam="1">  1        2 0.70474980E+00 0.15045216E+04</pdfrwt>
<pdfrwt beam="2">  1       -1 0.19005321E-01 0.15045216E+04</pdfrwt>
<totfact> 0.26005322E+00</totfact>
</mgrwt>
</event>
<event>
12    6  0.1395358E-007  0.1582066E+04  0.7818608E-02  0.8831642E-01
          2   -1    0    0  501    0  0.00000000000E+00  0.00000000000E+00  0.98741404185E+03  0.98741404185E+03  0.00000000000E+00 0. -1.
         -1   -1    0    0    0  501 -0.00000000000E+00 -0.00000000000E+00 -0.63370887936E+03  0.63370887936E+03  0.00000000000E+00 0.  1.
         24    2    1    2    0    0  0.79612222165E+01  0.49926100419E+03 -0.64429200853E+02  0.51015473728E+03  0.82351701174E+02 0.  0.
        254    2    1    2    0    0 -0.79612222165E+01 -0.49926100419E+03  0.41813436334E+03  0.11109681839E+04  0.90004945894E+03 0.  0.
         23    2    4    4    0    0 -0.14179771311E+03 -0.62713593600E+03  0.47942269071E+01  0.64971339156E+03  0.93265389592E+02 0.  0.
         23    2    4    4    0    0  0.13383649090E+03  0.12787493182E+03  0.41334013643E+03  0.46125479236E+03  0.87416878282E+02 0.  0.
          2    1    3    3  502    0  0.17153528520E+01  0.57639291143E+02  0.18927383381E+02  0.60691648194E+02  0.00000000000E+00 0. -1.
         -1    1    3    3    0  502  0.62458693645E+01  0.44162171304E+03 -0.83356584234E+02  0.44946308908E+03  0.00000000000E+00 0.  1.
         11    1    5    5    0    0 -0.15360644501E+03 -0.57654854340E+03 -0.58405739655E+01  0.59668859143E+03  0.00000000000E+00 0.  1.
        -11    1    5    5    0    0  0.11808731890E+02 -0.50587392603E+02  0.10634800873E+02  0.53024800130E+02  0.00000000000E+00 0. -1.
          4    1    6    6  503    0  0.36375471193E+01  0.28840431111E+02  0.13764685190E+03  0.14068282786E+03  0.00000000000E+00 0. -1.
         -4    1    6    6    0  503  0.13019894378E+03  0.99034500706E+02  0.27569328453E+03  0.32057196451E+03  0.00000000000E+00 0.  1.
<mgrwt>
<rscale>  0 0.15820658E+04</rscale>
<asrwt>0</asrwt>
<pdfrwt beam="1">  1        2 0.15190985E+00 0.15820658E+04</pdfrwt>
<pdfrwt beam="2">  1       -1 0.97493674E-01 0.15820658E+04</pdfrwt>
<totfact> 0.28402410E+01</totfact>
</mgrwt>
</event>
<event>
12    6  0.1395358E-007  0.1699236E+04  0.7818608E-02  0.8761800E-01
          2   -1    0    0  501    0  0.00000000000E+00  0.00000000000E+00  0.89932886371E+03  0.89932886371E+03  0.00000000000E+00 0. -1.
         -1   -1    0    0    0  501 -0.00000000000E+00 -0.00000000000E+00 -0.80265451578E+03  0.80265451578E+03  0.00000000000E+00 0.  1.
         24    2    1    2    0    0 -0.23511417917E+03 -0.48126733854E+03 -0.25307307425E+03  0.59804284820E+03  0.81928865357E+02 0.  0.
        254    2    1    2    0    0  0.23511417917E+03  0.48126733854E+03  0.34974742218E+03  0.11039405313E+04  0.89970245577E+03 0.  0.
         23    2    4    4    0    0  0.19830082711E+03  0.13899408132E+03  0.61025220258E+03  0.66286785486E+03  0.91342594550E+02 0.  0.
         23    2    4    4    0    0  0.36813352066E+02  0.34227325722E+03 -0.26050478040E+03  0.44107267644E+03  0.90422120022E+02 0.  0.
          2    1    3    3  502    0 -0.16497686418E+03 -0.29460002257E+03 -0.12013507715E+03  0.35838383860E+03  0.00000000000E+00 0. -1.
         -1    1    3    3    0  502 -0.70137314997E+02 -0.18666731597E+03 -0.13293799710E+03  0.23965900959E+03  0.00000000000E+00 0.  1.
         11    1    5    5    0    0  0.94713596759E+01  0.47880235576E+02  0.10231800061E+03  0.11336311949E+03  0.00000000000E+00 0. -1.
        -11    1    5    5    0    0  0.18882946743E+03  0.91113845740E+02  0.50793420197E+03  0.54950473537E+03  0.00000000000E+00 0.  1.
          1    1    6    6  503    0  0.14587099824E+02  0.26978709256E+01 -0.17346782979E+02  0.22824830087E+02  0.00000000000E+00 0. -1.
         -1    1    6    6    0  503  0.22226252242E+02  0.33957538630E+03 -0.24315799742E+03  0.41824784635E+03  0.00000000000E+00 0.  1.
<mgrwt>
<rscale>  0 0.16992356E+04</rscale>
<asrwt>0</asrwt>
<pdfrwt beam="1">  1        2 0.13835829E+00 0.16992356E+04</pdfrwt>
<pdfrwt beam="2">  1       -1 0.12348531E+00 0.16992356E+04</pdfrwt>
<totfact> 0.18391754E+01</totfact>
</mgrwt>
</event>
<event>
12    6  0.1395358E-007  0.2887676E+04  0.7818608E-02  0.8276554E-01
         -1   -1    0    0    0  501 -0.00000000000E+00  0.00000000000E+00  0.13646880734E+04  0.13646880734E+04  0.00000000000E+00 0.  1.
          2   -1    0    0  501    0  0.00000000000E+00 -0.00000000000E+00 -0.15275787523E+04  0.15275787523E+04  0.00000000000E+00 0. -1.
         24    2    1    2    0    0  0.18163213111E+03  0.12219027867E+04 -0.48640995626E+03  0.13302319501E+04  0.82980385396E+02 0.  0.
        254    2    1    2    0    0 -0.18163213111E+03 -0.12219027867E+04  0.32351927738E+03  0.15620348756E+04  0.89958411417E+03 0.  0.
         23    2    4    4    0    0 -0.37187423508E+02 -0.56650604666E+03 -0.29352887945E+03  0.64591347416E+03  0.93450562678E+02 0.  0.
         23    2    4    4    0    0 -0.14444470761E+03 -0.65539674004E+03  0.61704815683E+03  0.91612140140E+03  0.90115669319E+02 0.  0.
          2    1    3    3  502    0  0.12678306369E+03  0.80345777929E+03 -0.36147977414E+03  0.89010447446E+03  0.00000000000E+00 0. -1.
         -1    1    3    3    0  502  0.54849067426E+02  0.41844500740E+03 -0.12493018213E+03  0.44012747565E+03  0.00000000000E+00 0.  1.
         11    1    5    5    0    0 -0.30451870915E+02 -0.55534734629E+03 -0.26829302668E+03  0.61751043687E+03  0.00000000000E+00 0.  1.
        -11    1    5    5    0    0 -0.67355525926E+01 -0.11158700372E+02 -0.25235852772E+02  0.28403037299E+02  0.00000000000E+00 0. -1.
          4    1    6    6  503    0 -0.13837476965E+03 -0.56532178226E+03  0.49330319375E+03  0.76294451655E+03  0.00000000000E+00 0.  1.
         -4    1    6    6    0  503 -0.60699379599E+01 -0.90074957775E+02  0.12374496308E+03  0.15317688485E+03  0.00000000000E+00 0. -1.
<mgrwt>
<rscale>  0 0.28876762E+04</rscale>
<asrwt>0</asrwt>
<pdfrwt beam="1">  1        2 0.23501212E+00 0.28876762E+04</pdfrwt>
<pdfrwt beam="2">  1       -1 0.20995201E+00 0.28876762E+04</pdfrwt>
<totfact> 0.15500416E+00</totfact>
</mgrwt>
</event>
<event>
12    6  0.1395358E-007  0.1896349E+04  0.7818608E-02  0.8656676E-01
          2   -1    0    0  501    0  0.00000000000E+00  0.00000000000E+00  0.69602419974E+03  0.69602419974E+03  0.00000000000E+00 0. -1.
         -1   -1    0    0    0  501 -0.00000000000E+00 -0.00000000000E+00 -0.12916712004E+04  0.12916712004E+04  0.00000000000E+00 0.  1.
         24    2    1    2    0    0 -0.32991792021E+03  0.54316550797E+03 -0.61076075001E+03  0.88496313130E+03  0.79097704676E+02 0.  0.
        254    2    1    2    0    0  0.32991792021E+03 -0.54316550797E+03  0.15113749402E+02  0.11027322688E+04  0.90106349838E+03 0.  0.
         23    2    4    4    0    0  0.33326776525E+03  0.15518701807E+03 -0.93424625665E+02  0.39029370471E+03  0.91927152283E+02 0.  0.
         23    2    4    4    0    0 -0.33498450354E+01 -0.69835252603E+03  0.10853837507E+03  0.71243856409E+03  0.89892472785E+02 0.  0.
          4    1    3    3  502    0 -0.16758249415E+03  0.20287763067E+03 -0.23898765075E+03  0.35546915841E+03  0.00000000000E+00 0. -1.
         -3    1    3    3    0  502 -0.16233542606E+03  0.34028787729E+03 -0.37177309926E+03  0.52949397288E+03  0.00000000000E+00 0.  1.
         11    1    5    5    0    0  0.50243725946E+02 -0.32055045984E+01 -0.33500337240E+02  0.60472967943E+02  0.00000000000E+00 0. -1.
        -11    1    5    5    0    0  0.28302403930E+03  0.15839252267E+03 -0.59924288425E+02  0.32982073677E+03  0.00000000000E+00 0.  1.
          4    1    6    6  503    0 -0.20715403682E+02 -0.27001327048E+03  0.81901246113E+02  0.28292067492E+03  0.00000000000E+00 0. -1.
         -4    1    6    6    0  503  0.17365558647E+02 -0.42833925555E+03  0.26637128954E+02  0.42951788917E+03  0.00000000000E+00 0.  1.
<mgrwt>
<rscale>  0 0.18963485E+04</rscale>
<asrwt>0</asrwt>
<pdfrwt beam="1">  1        2 0.10708065E+00 0.18963485E+04</pdfrwt>
<pdfrwt beam="2">  1       -1 0.19871864E+00 0.18963485E+04</pdfrwt>
<totfact> 0.67796554E+00</totfact>
</mgrwt>
</event>
<event>
12    6  0.1395358E-007  0.1721655E+04  0.7818608E-02  0.8749109E-01
          2   -1    0    0  501    0  0.00000000000E+00  0.00000000000E+00  0.27091402807E+04  0.27091402807E+04  0.00000000000E+00 0. -1.
         -1   -1    0    0    0  501 -0.00000000000E+00 -0.00000000000E+00 -0.27352738566E+03  0.27352738566E+03  0.00000000000E+00 0.  1.
         24    2    1    2    0    0 -0.19528399014E+03 -0.13321527095E+03  0.18899141140E+04  0.19062469009E+04  0.78228789924E+02 0.  0.
        254    2    1    2    0    0  0.19528399014E+03  0.13321527095E+03  0.54569878106E+03  0.10764207655E+04  0.89722480992E+03 0.  0.
         23    2    4    4    0    0 -0.95562249225E+02 -0.27518981510E+03  0.47104821014E+03  0.56129497903E+03  0.91126611912E+02 0.  0.
         23    2    4    4    0    0  0.29084623936E+03  0.40840508605E+03  0.74650570920E+02  0.51512578647E+03  0.91627609855E+02 0.  0.
          2    1    3    3  502    0 -0.17015997152E+03 -0.77139996349E+02  0.13565271968E+04  0.13693323303E+04  0.00000000000E+00 0. -1.
         -1    1    3    3    0  502 -0.25124018618E+02 -0.56075274597E+02  0.53338691714E+03  0.53691457059E+03  0.00000000000E+00 0.  1.
         11    1    5    5    0    0 -0.17729853919E+02 -0.35965569175E+02  0.13926202849E+03  0.14491991742E+03  0.00000000000E+00 0.  1.
        -11    1    5    5    0    0 -0.77832395306E+02 -0.23922424593E+03  0.33178618165E+03  0.41637506161E+03  0.00000000000E+00 0. -1.
          3    1    6    6  503    0  0.14672472286E+03  0.16879238137E+03  0.73790896967E+02  0.23550819260E+03  0.00000000000E+00 0. -1.
         -3    1    6    6    0  503  0.14412151650E+03  0.23961270468E+03  0.85967395336E+00  0.27961759387E+03  0.00000000000E+00 0.  1.
<mgrwt>
<rscale>  0 0.17216551E+04</rscale>
<asrwt>0</asrwt>
<pdfrwt beam="1">  1        2 0.41679079E+00 0.17216551E+04</pdfrwt>
<pdfrwt beam="2">  1       -1 0.42081138E-01 0.17216551E+04</pdfrwt>
<totfact> 0.15777401E+01</totfact>
</mgrwt>
</event>
<event>
12    6  0.1395358E-007  0.3235034E+04  0.7818608E-02  0.8179626E-01
         -1   -1    0    0    0  501 -0.00000000000E+00  0.00000000000E+00  0.17482151467E+04  0.17482151467E+04  0.00000000000E+00 0.  1.
          2   -1    0    0  501    0  0.00000000000E+00 -0.00000000000E+00 -0.14965900259E+04  0.14965900259E+04  0.00000000000E+00 0. -1.
         24    2    1    2    0    0  0.16015665935E+03  0.13678343905E+04  0.68985477823E+03  0.15423796678E+04  0.80089634162E+02 0.  0.
        254    2    1    2    0    0 -0.16015665935E+03 -0.13678343905E+04 -0.43822965743E+03  0.17024255047E+04  0.89977013245E+03 0.  0.
         23    2    4    4    0    0  0.31090340859E+03 -0.50161451454E+03  0.47559401303E+02  0.59925586395E+03  0.92561564122E+02 0.  0.
         23    2    4    4    0    0 -0.47106006794E+03 -0.86621987591E+03 -0.48578905873E+03  0.11031696408E+04  0.93583041872E+02 0.  0.
          2    1    3    3  502    0  0.78684592761E+02  0.97439441415E+03  0.49929322699E+03  0.10976927922E+04  0.00000000000E+00 0. -1.
         -1    1    3    3    0  502  0.81472066593E+02  0.39343997631E+03  0.19056155124E+03  0.44468687568E+03  0.00000000000E+00 0.  1.
         11    1    5    5    0    0  0.19229706237E+03 -0.31730369297E+03  0.74499059301E+02  0.37843084389E+03  0.00000000000E+00 0.  1.
        -11    1    5    5    0    0  0.11860634621E+03 -0.18431082157E+03 -0.26939657998E+02  0.22082502005E+03  0.00000000000E+00 0. -1.
          1    1    6    6  503    0 -0.91948675071E+02 -0.10717167698E+03 -0.54236352233E+02  0.15126767367E+03  0.00000000000E+00 0. -1.
         -1    1    6    6    0  503 -0.37911139287E+03 -0.75904819893E+03 -0.43155270650E+03  0.95190196711E+03  0.00000000000E+00 0.  1.
<mgrwt>
<rscale>  0 0.32350341E+04</rscale>
<asrwt>0</asrwt>
<pdfrwt beam="1">  1        2 0.23024462E+00 0.32350341E+04</pdfrwt>
<pdfrwt beam="2">  1       -1 0.26895618E+00 0.32350341E+04</pdfrwt>
<totfact> 0.63964949E-01</totfact>
</mgrwt>
</event>
<event>
12    6  0.1395358E-007  0.2062759E+04  0.7818608E-02  0.8577828E-01
         -1   -1    0    0    0  501 -0.00000000000E+00  0.00000000000E+00  0.42768838297E+03  0.42768838297E+03  0.00000000000E+00 0.  1.
          2   -1    0    0  501    0  0.00000000000E+00 -0.00000000000E+00 -0.24871941687E+04  0.24871941687E+04  0.00000000000E+00 0. -1.
         24    2    1    2    0    0  0.55334995965E+03 -0.44158245605E+03 -0.14557340775E+04  0.16206351904E+04  0.78137523934E+02 0.  0.
        254    2    1    2    0    0 -0.55334995965E+03  0.44158245605E+03 -0.60377170823E+03  0.12942473613E+04  0.89963587809E+03 0.  0.
         23    2    4    4    0    0 -0.21668710380E+03  0.20762760963E+03  0.21087404926E+03  0.37758667962E+03  0.89673355811E+02 0.  0.
         23    2    4    4    0    0 -0.33666285585E+03  0.23395484642E+03 -0.81464575748E+03  0.91666068165E+03  0.92424814962E+02 0.  0.
          2    1    3    3  502    0  0.43801669095E+02 -0.64622220999E+02 -0.14428643400E+03  0.16405240839E+03  0.00000000000E+00 0. -1.
         -1    1    3    3    0  502  0.50954829056E+03 -0.37696023505E+03 -0.13114476435E+04  0.14565827820E+04  0.00000000000E+00 0.  1.
         11    1    5    5    0    0 -0.10898319434E+03  0.11743840996E+03  0.16455675626E+03  0.22966942072E+03  0.00000000000E+00 0. -1.
        -11    1    5    5    0    0 -0.10770390946E+03  0.90189199667E+02  0.46317292995E+02  0.14791725890E+03  0.00000000000E+00 0.  1.
          1    1    6    6  503    0 -0.23466637873E+03  0.18810398518E+03 -0.66499935957E+03  0.72984626242E+03  0.00000000000E+00 0. -1.
         -1    1    6    6    0  503 -0.10199647712E+03  0.45850861246E+02 -0.14964639792E+03  0.18681441923E+03  0.00000000000E+00 0.  1.
<mgrwt>
<rscale>  0 0.20627594E+04</rscale>
<asrwt>0</asrwt>
<pdfrwt beam="1">  1        2 0.38264526E+00 0.20627594E+04</pdfrwt>
<pdfrwt beam="2">  1       -1 0.65798213E-01 0.20627594E+04</pdfrwt>
<totfact> 0.87256357E+00</totfact>
</mgrwt>
</event>
<event>
12    6  0.1395358E-007  0.2030388E+04  0.7818608E-02  0.8592544E-01
         -1   -1    0    0    0  501 -0.00000000000E+00  0.00000000000E+00  0.33919008013E+03  0.33919008013E+03  0.00000000000E+00 0.  1.
          2   -1    0    0  501    0  0.00000000000E+00 -0.00000000000E+00 -0.30384700597E+04  0.30384700597E+04  0.00000000000E+00 0. -1.
         24    2    1    2    0    0  0.72702938310E+03  0.78783414066E+02 -0.16800951674E+04  0.18340664546E+04  0.79381599337E+02 0.  0.
        254    2    1    2    0    0 -0.72702938310E+03 -0.78783414066E+02 -0.10191848122E+04  0.15435936852E+04  0.89953612121E+03 0.  0.
         23    2    4    4    0    0 -0.64922602300E+03 -0.35840574473E+03 -0.38722236000E+03  0.84154476665E+03  0.91144563156E+02 0.  0.
         23    2    4    4    0    0 -0.77803360097E+02  0.27962233067E+03 -0.63196245220E+03  0.70204891856E+03  0.96198401269E+02 0.  0.
          4    1    3    3  502    0  0.36910199442E+03  0.51036761416E+01 -0.89235631252E+03  0.96569255889E+03  0.00000000000E+00 0. -1.
         -3    1    3    3    0  502  0.35792738867E+03  0.73679737924E+02 -0.78773885486E+03  0.86837389574E+03  0.00000000000E+00 0.  1.
         11    1    5    5    0    0 -0.14499108254E+03 -0.10827598195E+03 -0.60928158854E+02  0.19094067882E+03  0.00000000000E+00 0. -1.
        -11    1    5    5    0    0 -0.50423494046E+03 -0.25012976278E+03 -0.32629420114E+03  0.65060408783E+03  0.00000000000E+00 0.  1.
          4    1    6    6  503    0 -0.10038198435E+03  0.23285564332E+03 -0.53522563068E+03  0.59225397352E+03  0.00000000000E+00 0. -1.
         -4    1    6    6    0  503  0.22578624258E+02  0.46766687346E+02 -0.96736821518E+02  0.10979494504E+03  0.00000000000E+00 0.  1.
<mgrwt>
<rscale>  0 0.20303880E+04</rscale>
<asrwt>0</asrwt>
<pdfrwt beam="1">  1        2 0.46745694E+00 0.20303880E+04</pdfrwt>
<pdfrwt beam="2">  1       -1 0.52183088E-01 0.20303880E+04</pdfrwt>
<totfact> 0.64396153E+00</totfact>
</mgrwt>
</event>
<event>
12    6  0.1395358E-007  0.2389595E+04  0.7818608E-02  0.8443409E-01
         -1   -1    0    0    0  501 -0.00000000000E+00  0.00000000000E+00  0.29684433227E+03  0.29684433227E+03  0.00000000000E+00 0.  1.
          2   -1    0    0  501    0  0.00000000000E+00 -0.00000000000E+00 -0.48090567063E+04  0.48090567063E+04  0.00000000000E+00 0. -1.
         24    2    1    2    0    0 -0.51899841885E+03  0.72470190133E+03 -0.86056828674E+03  0.12417129037E+04  0.81981427662E+02 0.  0.
        254    2    1    2    0    0  0.51899841885E+03 -0.72470190133E+03 -0.36516440873E+04  0.38641881349E+04  0.89604307764E+03 0.  0.
         23    2    4    4    0    0 -0.22295935196E+03 -0.31149791611E+03 -0.14573945833E+04  0.15097323154E+04  0.92470905461E+02 0.  0.
         23    2    4    4    0    0  0.74195777081E+03 -0.41320398522E+03 -0.21942495041E+04  0.23544558196E+04  0.86558957408E+02 0.  0.
          2    1    3    3  502    0 -0.18582794027E+02  0.24576127866E+02 -0.54396106083E+02  0.62515939181E+02  0.00000000000E+00 0. -1.
         -1    1    3    3    0  502 -0.50041562482E+03  0.70012577346E+03 -0.80617218065E+03  0.11791969645E+04  0.00000000000E+00 0.  1.
         11    1    5    5    0    0 -0.59238888404E+02 -0.28709221971E+02 -0.29698842531E+03  0.30419663064E+03  0.00000000000E+00 0. -1.
        -11    1    5    5    0    0 -0.16372046356E+03 -0.28278869414E+03 -0.11604061579E+04  0.12055356847E+04  0.00000000000E+00 0.  1.
          2    1    6    6  503    0  0.98896764861E+02 -0.29094121583E+02 -0.22243095502E+03  0.24515825045E+03  0.00000000000E+00 0. -1.
         -2    1    6    6    0  503  0.64306100594E+03 -0.38410986364E+03 -0.19718185490E+04  0.21092975691E+04  0.00000000000E+00 0.  1.
<mgrwt>
<rscale>  0 0.23895951E+04</rscale>
<asrwt>0</asrwt>
<pdfrwt beam="1">  1        2 0.73985486E+00 0.23895951E+04</pdfrwt>
<pdfrwt beam="2">  1       -1 0.45668360E-01 0.23895951E+04</pdfrwt>
<totfact> 0.28657230E-01</totfact>
</mgrwt>
</event>
<event>
12    6  0.1395358E-007  0.1376415E+04  0.7818608E-02  0.8971070E-01
          2   -1    0    0  501    0  0.00000000000E+00  0.00000000000E+00  0.12390343269E+04  0.12390343269E+04  0.00000000000E+00 0. -1.
         -1   -1    0    0    0  501 -0.00000000000E+00 -0.00000000000E+00 -0.38225702090E+03  0.38225702090E+03  0.00000000000E+00 0.  1.
         24    2    1    2    0    0  0.37731963723E+03  0.75581727222E+02  0.30215252130E+03  0.49551110147E+03  0.78437232342E+02 0.  0.
        254    2    1    2    0    0 -0.37731963723E+03 -0.75581727222E+02  0.55462478473E+03  0.11257802464E+04  0.90093829153E+03 0.  0.
         23    2    4    4    0    0 -0.59632043586E+03 -0.21649091681E+03  0.55769418972E+03  0.84992140449E+03  0.94218922065E+02 0.  0.
         23    2    4    4    0    0  0.21900079863E+03  0.14090918959E+03 -0.30694049891E+01  0.27585884188E+03  0.90950150551E+02 0.  0.
          4    1    3    3  502    0  0.22653855675E+03  0.52013130034E+02  0.22892979935E+03  0.32624214384E+03  0.00000000000E+00 0. -1.
         -3    1    3    3    0  502  0.15078108048E+03  0.23568597188E+02  0.73222721956E+02  0.16926895763E+03  0.00000000000E+00 0.  1.
         11    1    5    5    0    0 -0.42928622935E+03 -0.16489980650E+03  0.34671934128E+03  0.57592787266E+03  0.00000000000E+00 0. -1.
        -11    1    5    5    0    0 -0.16703420652E+03 -0.51591110307E+02  0.21097484845E+03  0.27399353183E+03  0.00000000000E+00 0.  1.
          3    1    6    6  503    0  0.84692019034E+02  0.87394836642E+02  0.34472070974E+02  0.12648683424E+03  0.00000000000E+00 0. -1.
         -3    1    6    6    0  503  0.13430877959E+03  0.53514352944E+02 -0.37541475963E+02  0.14937200763E+03  0.00000000000E+00 0.  1.
<mgrwt>
<rscale>  0 0.13764150E+04</rscale>
<asrwt>0</asrwt>
<pdfrwt beam="1">  1        2 0.19062066E+00 0.13764150E+04</pdfrwt>
<pdfrwt beam="2">  1       -1 0.58808773E-01 0.13764150E+04</pdfrwt>
<totfact> 0.58478010E+01</totfact>
</mgrwt>
</event>
<event>
12    6  0.1395358E-007  0.2134959E+04  0.7818608E-02  0.8545998E-01
         -1   -1    0    0    0  501 -0.00000000000E+00  0.00000000000E+00  0.46049218964E+03  0.46049218964E+03  0.00000000000E+00 0.  1.
          2   -1    0    0  501    0  0.00000000000E+00 -0.00000000000E+00 -0.24745522418E+04  0.24745522418E+04  0.00000000000E+00 0. -1.
         24    2    1    2    0    0 -0.79382570790E+03 -0.10628621231E+03 -0.33941017811E+03  0.87324800602E+03  0.76855693089E+02 0.  0.
        254    2    1    2    0    0  0.79382570790E+03  0.10628621231E+03 -0.16746498741E+04  0.20617964255E+04  0.89727157864E+03 0.  0.
         23    2    4    4    0    0  0.16923897348E+03 -0.36288484665E+03 -0.47984375280E+03  0.63152919128E+03  0.90839695460E+02 0.  0.
         23    2    4    4    0    0  0.62458673441E+03  0.46917105895E+03 -0.11948061213E+04  0.14302672342E+04  0.88727799138E+02 0.  0.
          4    1    3    3  502    0 -0.35564024447E+03 -0.84077486700E+02 -0.16791056197E+03  0.40217280375E+03  0.00000000000E+00 0. -1.
         -3    1    3    3    0  502 -0.43818546342E+03 -0.22208725608E+02 -0.17149961615E+03  0.47107520226E+03  0.00000000000E+00 0.  1.
         11    1    5    5    0    0  0.88321913829E+02 -0.28056745218E+03 -0.36406562316E+03  0.46804127345E+03  0.00000000000E+00 0. -1.
        -11    1    5    5    0    0  0.80917059653E+02 -0.82317394466E+02 -0.11577812963E+03  0.16348791783E+03  0.00000000000E+00 0.  1.
          1    1    6    6  503    0  0.46425122778E+03  0.39323141708E+03 -0.90622169664E+03  0.10915117559E+04  0.00000000000E+00 0. -1.
         -1    1    6    6    0  503  0.16033550663E+03  0.75939641874E+02 -0.28858442466E+03  0.33875547826E+03  0.00000000000E+00 0.  1.
<mgrwt>
<rscale>  0 0.21349585E+04</rscale>
<asrwt>0</asrwt>
<pdfrwt beam="1">  1        2 0.38070035E+00 0.21349585E+04</pdfrwt>
<pdfrwt beam="2">  1       -1 0.70844951E-01 0.21349585E+04</pdfrwt>
<totfact> 0.75825104E+00</totfact>
</mgrwt>
</event>
<event>
12    6  0.1395358E-007  0.1869325E+04  0.7818608E-02  0.8670278E-01
          2   -1    0    0  501    0  0.00000000000E+00  0.00000000000E+00  0.13095337986E+04  0.13095337986E+04  0.00000000000E+00 0. -1.
         -1   -1    0    0    0  501 -0.00000000000E+00 -0.00000000000E+00 -0.66710281565E+03  0.66710281565E+03  0.00000000000E+00 0.  1.
         24    2    1    2    0    0  0.69763720651E+03  0.53970956699E+02  0.85253312080E+02  0.70929547093E+03  0.78875863130E+02 0.  0.
        254    2    1    2    0    0 -0.69763720651E+03 -0.53970956699E+02  0.55717767085E+03  0.12673411433E+04  0.89782853625E+03 0.  0.
         23    2    4    4    0    0  0.12721468897E+03  0.17220046042E+01 -0.11745230368E+03  0.19630914169E+03  0.92496989580E+02 0.  0.
         23    2    4    4    0    0 -0.82485189548E+03 -0.55692961304E+02  0.67462997453E+03  0.10710320016E+04  0.92204069895E+02 0.  0.
          4    1    3    3  502    0  0.34968970663E+03  0.34213444525E+02  0.81867487692E+02  0.36077103022E+03  0.00000000000E+00 0. -1.
         -3    1    3    3    0  502  0.34794749989E+03  0.19757512175E+02  0.33858243887E+01  0.34852444071E+03  0.00000000000E+00 0.  1.
         11    1    5    5    0    0  0.10316562155E+02 -0.25319162450E+02 -0.54123485213E+02  0.60636977938E+02  0.00000000000E+00 0. -1.
        -11    1    5    5    0    0  0.11689812681E+03  0.27041167055E+02 -0.63328818467E+02  0.13567216375E+03  0.00000000000E+00 0.  1.
          2    1    6    6  503    0 -0.31146821965E+03  0.20454755569E+02  0.23198480874E+03  0.38890590168E+03  0.00000000000E+00 0. -1.
         -2    1    6    6    0  503 -0.51338367583E+03 -0.76147716873E+02  0.44264516580E+03  0.68212609992E+03  0.00000000000E+00 0.  1.
<mgrwt>
<rscale>  0 0.18693247E+04</rscale>
<asrwt>0</asrwt>
<pdfrwt beam="1">  1        2 0.20146674E+00 0.18693247E+04</pdfrwt>
<pdfrwt beam="2">  1       -1 0.10263120E+00 0.18693247E+04</pdfrwt>
<totfact> 0.15681990E+01</totfact>
</mgrwt>
</event>
<event>
12    6  0.1395358E-007  0.1890117E+04  0.7818608E-02  0.8659792E-01
         -1   -1    0    0    0  501 -0.00000000000E+00  0.00000000000E+00  0.77526131030E+03  0.77526131030E+03  0.00000000000E+00 0.  1.
          2   -1    0    0  501    0  0.00000000000E+00 -0.00000000000E+00 -0.11520443778E+04  0.11520443778E+04  0.00000000000E+00 0. -1.
         24    2    1    2    0    0  0.35987571240E+03 -0.51646915715E+03  0.22929931723E+03  0.67455811909E+03  0.78737287734E+02 0.  0.
        254    2    1    2    0    0 -0.35987571240E+03  0.51646915715E+03 -0.60608238473E+03  0.12527475690E+04  0.89765789470E+03 0.  0.
         23    2    4    4    0    0 -0.22804302636E+02 -0.14294267517E+02 -0.61043198458E+03  0.61761060381E+03  0.89951586038E+02 0.  0.
         23    2    4    4    0    0 -0.33707140977E+03  0.53076342467E+03  0.43495998505E+01  0.63513696521E+03  0.89739051144E+02 0.  0.
          4    1    3    3  502    0  0.20425470522E+03 -0.29352376371E+03  0.17149678774E+03  0.39659467050E+03  0.00000000000E+00 0. -1.
         -3    1    3    3    0  502  0.15562100719E+03 -0.22294539344E+03  0.57802529488E+02  0.27796344859E+03  0.00000000000E+00 0.  1.
         11    1    5    5    0    0  0.56594572069E+01  0.35507414765E+02 -0.20285550877E+03  0.20601738615E+03  0.00000000000E+00 0. -1.
        -11    1    5    5    0    0 -0.28463759842E+02 -0.49801682282E+02 -0.40757647581E+03  0.41159321765E+03  0.00000000000E+00 0.  1.
          1    1    6    6  503    0 -0.16548698055E+03  0.21923328583E+03  0.40488454648E+02  0.27764813939E+03  0.00000000000E+00 0. -1.
         -1    1    6    6    0  503 -0.17158442922E+03  0.31153013884E+03 -0.36138854797E+02  0.35748882581E+03  0.00000000000E+00 0.  1.
<mgrwt>
<rscale>  0 0.18901169E+04</rscale>
<asrwt>0</asrwt>
<pdfrwt beam="1">  1        2 0.17723760E+00 0.18901169E+04</pdfrwt>
<pdfrwt beam="2">  1       -1 0.11927097E+00 0.18901169E+04</pdfrwt>
<totfact> 0.13599072E+01</totfact>
</mgrwt>
</event>
<event>
12    6  0.1395358E-007  0.3175081E+04  0.7818608E-02  0.8195429E-01
          2   -1    0    0  501    0  0.00000000000E+00  0.00000000000E+00  0.38175005271E+04  0.38175005271E+04  0.00000000000E+00 0. -1.
         -1   -1    0    0    0  501 -0.00000000000E+00 -0.00000000000E+00 -0.66019253068E+03  0.66019253068E+03  0.00000000000E+00 0.  1.
         24    2    1    2    0    0  0.11435775975E+04 -0.48363472165E+03  0.37274958445E+03  0.12987253677E+04  0.77929857401E+02 0.  0.
        254    2    1    2    0    0 -0.11435775975E+04  0.48363472165E+03  0.27845584120E+04  0.31789676901E+04  0.90022095031E+03 0.  0.
         23    2    4    4    0    0  0.32679640955E+02 -0.28054993579E+02 -0.12060002401E+02  0.10086953207E+03  0.90411156639E+02 0.  0.
         23    2    4    4    0    0 -0.11762572384E+04  0.51168971523E+03  0.27966184144E+04  0.30780981580E+04  0.90588404435E+02 0.  0.
          2    1    3    3  502    0  0.22029799015E+03 -0.73039856467E+02  0.95039994863E+02  0.25079598425E+03  0.00000000000E+00 0. -1.
         -1    1    3    3    0  502  0.92327960731E+03 -0.41059486518E+03  0.27770958958E+03  0.10479293835E+04  0.00000000000E+00 0.  1.
         11    1    5    5    0    0  0.26622062587E+02 -0.43615656705E+02  0.27429194761E+02  0.57995003677E+02  0.00000000000E+00 0.  1.
        -11    1    5    5    0    0  0.60575783679E+01  0.15560663125E+02 -0.39489197163E+02  0.42874528395E+02  0.00000000000E+00 0. -1.
          1    1    6    6  503    0 -0.10651092272E+04  0.48276153185E+03  0.25884052557E+04  0.28403095131E+04  0.00000000000E+00 0. -1.
         -1    1    6    6    0  503 -0.11114801122E+03  0.28928183378E+02  0.20821315864E+03  0.23778864486E+03  0.00000000000E+00 0.  1.
<mgrwt>
<rscale>  0 0.31750813E+04</rscale>
<asrwt>0</asrwt>
<pdfrwt beam="1">  1        2 0.58730776E+00 0.31750813E+04</pdfrwt>
<pdfrwt beam="2">  1       -1 0.10156808E+00 0.31750813E+04</pdfrwt>
<totfact> 0.41905608E-01</totfact>
</mgrwt>
</event>
<event>
12    6  0.1395358E-007  0.4955020E+04  0.7818608E-02  0.7835484E-01
          2   -1    0    0  501    0  0.00000000000E+00  0.00000000000E+00  0.30287766776E+04  0.30287766776E+04  0.00000000000E+00 0. -1.
         -1   -1    0    0    0  501 -0.00000000000E+00 -0.00000000000E+00 -0.20265789803E+04  0.20265789803E+04  0.00000000000E+00 0.  1.
         24    2    1    2    0    0  0.12144766491E+04 -0.99308117515E+02  0.25889228627E+04  0.28618998218E+04  0.55976492943E+02 0.  0.
        254    2    1    2    0    0 -0.12144766491E+04  0.99308117515E+02 -0.15867251653E+04  0.21934558361E+04  0.89929757091E+03 0.  0.
         23    2    4    4    0    0 -0.19907477311E+03 -0.32545870789E+03 -0.57026634084E+03  0.69205367553E+03  0.90445865000E+02 0.  0.
         23    2    4    4    0    0 -0.10154018760E+04  0.42476682540E+03 -0.10164588245E+04  0.15014021606E+04  0.97734743099E+02 0.  0.
          2    1    3    3  502    0  0.93982563683E+03 -0.79312583752E+02  0.20570250162E+04  0.22629437975E+04  0.00000000000E+00 0. -1.
         -1    1    3    3    0  502  0.27465101231E+03 -0.19995533762E+02  0.53189784650E+03  0.59895602430E+03  0.00000000000E+00 0.  1.
         11    1    5    5    0    0 -0.66764292469E+02 -0.18352043898E+03 -0.24504862054E+03  0.31334653133E+03  0.00000000000E+00 0. -1.
        -11    1    5    5    0    0 -0.13231048064E+03 -0.14193826891E+03 -0.32521772030E+03  0.37870714420E+03  0.00000000000E+00 0.  1.
          1    1    6    6  503    0 -0.81369357588E+03  0.31312850314E+03 -0.84435583646E+03  0.12137065022E+04  0.00000000000E+00 0. -1.
         -1    1    6    6    0  503 -0.20170830014E+03  0.11163832226E+03 -0.17210298804E+03  0.28769565836E+03  0.00000000000E+00 0.  1.
<mgrwt>
<rscale>  0 0.49550197E+04</rscale>
<asrwt>0</asrwt>
<pdfrwt beam="1">  1        2 0.46596564E+00 0.49550197E+04</pdfrwt>
<pdfrwt beam="2">  1       -1 0.31178138E+00 0.49550197E+04</pdfrwt>
<totfact> 0.38377237E-02</totfact>
</mgrwt>
</event>
<event>
12    6  0.1395358E-007  0.2842843E+04  0.7818608E-02  0.8290089E-01
          2   -1    0    0  501    0  0.00000000000E+00  0.00000000000E+00  0.19174284044E+04  0.19174284044E+04  0.00000000000E+00 0. -1.
         -1   -1    0    0    0  501 -0.00000000000E+00 -0.00000000000E+00 -0.10537234091E+04  0.10537234091E+04  0.00000000000E+00 0.  1.
         24    2    1    2    0    0  0.89170126146E+03  0.90318167516E+03  0.53182085333E+03  0.13783151262E+04  0.77787460848E+02 0.  0.
        254    2    1    2    0    0 -0.89170126146E+03 -0.90318167516E+03  0.33188414194E+03  0.15928366873E+04  0.90338992181E+03 0.  0.
         23    2    4    4    0    0 -0.84842177157E+03 -0.58754809836E+03  0.57240584165E+03  0.11836226928E+04  0.91005279363E+02 0.  0.
         23    2    4    4    0    0 -0.43279489885E+02 -0.31563357680E+03 -0.24052169972E+03  0.40921399459E+03  0.90042969084E+02 0.  0.
          4    1    3    3  502    0  0.15810877018E+03  0.19583827927E+03  0.12528132385E+03  0.28115196058E+03  0.00000000000E+00 0. -1.
         -3    1    3    3    0  502  0.73359249128E+03  0.70734339588E+03  0.40653952949E+03  0.10971631656E+04  0.00000000000E+00 0.  1.
         11    1    5    5    0    0 -0.49191164445E+03 -0.37835637130E+03  0.30672900738E+03  0.69225233377E+03  0.00000000000E+00 0. -1.
        -11    1    5    5    0    0 -0.35651012713E+03 -0.20919172706E+03  0.26567683427E+03  0.49137035898E+03  0.00000000000E+00 0.  1.
          2    1    6    6  503    0 -0.34647109201E+02 -0.21606414072E+03 -0.21340800248E+03  0.30565848688E+03  0.00000000000E+00 0. -1.
         -2    1    6    6    0  503 -0.86323806840E+01 -0.99569436080E+02 -0.27113697236E+02  0.10355550770E+03  0.00000000000E+00 0.  1.
<mgrwt>
<rscale>  0 0.28428431E+04</rscale>
<asrwt>0</asrwt>
<pdfrwt beam="1">  1        2 0.29498898E+00 0.28428431E+04</pdfrwt>
<pdfrwt beam="2">  1       -1 0.16211129E+00 0.28428431E+04</pdfrwt>
<totfact> 0.20638716E+00</totfact>
</mgrwt>
</event>
<event>
12    6  0.1395358E-007  0.3554393E+04  0.7818608E-02  0.8101019E-01
          2   -1    0    0  501    0  0.00000000000E+00  0.00000000000E+00  0.12964011245E+04  0.12964011245E+04  0.00000000000E+00 0. -1.
         -1   -1    0    0    0  501 -0.00000000000E+00 -0.00000000000E+00 -0.24363034698E+04  0.24363034698E+04  0.00000000000E+00 0.  1.
         24    2    1    2    0    0  0.11151089224E+04  0.73246275039E+03  0.50868112872E+03  0.14301122965E+04  0.80592184211E+02 0.  0.
        254    2    1    2    0    0 -0.11151089224E+04 -0.73246275039E+03 -0.16485834740E+04  0.23025922978E+04  0.89673531742E+03 0.  0.
         23    2    4    4    0    0 -0.10368429626E+04 -0.91658233547E+03 -0.14812086119E+04  0.20291093214E+04  0.90217400980E+02 0.  0.
         23    2    4    4    0    0 -0.78265959863E+02  0.18411958509E+03 -0.16737486215E+03  0.27348297644E+03  0.82176711045E+02 0.  0.
          4    1    3    3  502    0  0.67948202386E+03  0.43352722518E+03  0.34768364567E+03  0.87779587216E+03  0.00000000000E+00 0. -1.
         -3    1    3    3    0  502  0.43562689858E+03  0.29893552521E+03  0.16099748305E+03  0.55231642429E+03  0.00000000000E+00 0.  1.
         11    1    5    5    0    0 -0.51888984932E+03 -0.39860902137E+03 -0.70032772446E+03  0.95843348715E+03  0.00000000000E+00 0. -1.
        -11    1    5    5    0    0 -0.51795311325E+03 -0.51797331410E+03 -0.78088088741E+03  0.10706758342E+04  0.00000000000E+00 0.  1.
          3    1    6    6  503    0  0.14136073285E+02  0.68238724809E+01 -0.18196729083E+02  0.24031536631E+02  0.00000000000E+00 0. -1.
         -3    1    6    6    0  503 -0.92402033148E+02  0.17729571261E+03 -0.14917813307E+03  0.24945143981E+03  0.00000000000E+00 0.  1.
<mgrwt>
<rscale>  0 0.35543925E+04</rscale>
<asrwt>0</asrwt>
<pdfrwt beam="1">  1        2 0.19944633E+00 0.35543925E+04</pdfrwt>
<pdfrwt beam="2">  1       -1 0.37481591E+00 0.35543925E+04</pdfrwt>
<totfact> 0.16404517E-01</totfact>
</mgrwt>
</event>
<event>
12    6  0.1395358E-007  0.2863675E+04  0.7818608E-02  0.8283768E-01
         -1   -1    0    0    0  501 -0.00000000000E+00  0.00000000000E+00  0.15962790142E+04  0.15962790142E+04  0.00000000000E+00 0.  1.
          2   -1    0    0  501    0  0.00000000000E+00 -0.00000000000E+00 -0.12843358571E+04  0.12843358571E+04  0.00000000000E+00 0. -1.
         24    2    1    2    0    0 -0.11037496657E+04 -0.42311933873E+03 -0.37614939703E+03  0.12430042348E+04  0.79232943713E+02 0.  0.
        254    2    1    2    0    0  0.11037496657E+04  0.42311933873E+03  0.68809255418E+03  0.16376106365E+04  0.90055756850E+03 0.  0.
         23    2    4    4    0    0  0.13576994850E+03  0.42823290782E+03  0.43620910007E+03  0.63260393255E+03  0.89958069292E+02 0.  0.
         23    2    4    4    0    0  0.96797971724E+03 -0.51135690970E+01  0.25188345411E+03  0.10050067039E+04  0.97889319740E+02 0.  0.
          4    1    3    3  502    0 -0.34953128782E+03 -0.13696893319E+03 -0.15836701803E+03  0.40744658818E+03  0.00000000000E+00 0. -1.
         -3    1    3    3    0  502 -0.75421837791E+03 -0.28615040554E+03 -0.21778237901E+03  0.83555764659E+03  0.00000000000E+00 0.  1.
         11    1    5    5    0    0  0.11392160323E+03  0.37264174029E+03  0.32945145293E+03  0.51027272916E+03  0.00000000000E+00 0.  1.
        -11    1    5    5    0    0  0.21848345266E+02  0.55591167537E+02  0.10675764714E+03  0.12233120339E+03  0.00000000000E+00 0. -1.
          2    1    6    6  503    0  0.62608644495E+03  0.15942187693E+02  0.11843774498E+03  0.63738990370E+03  0.00000000000E+00 0. -1.
         -2    1    6    6    0  503  0.34189327228E+03 -0.21055756790E+02  0.13344570912E+03  0.36761680023E+03  0.00000000000E+00 0.  1.
<mgrwt>
<rscale>  0 0.28636748E+04</rscale>
<asrwt>0</asrwt>
<pdfrwt beam="1">  1        2 0.19759013E+00 0.28636748E+04</pdfrwt>
<pdfrwt beam="2">  1       -1 0.24558139E+00 0.28636748E+04</pdfrwt>
<totfact> 0.12406729E+00</totfact>
</mgrwt>
</event>
<event>
12    6  0.1395358E-007  0.3508609E+04  0.7818608E-02  0.8111753E-01
         -1   -1    0    0    0  501 -0.00000000000E+00  0.00000000000E+00  0.82689502191E+03  0.82689502191E+03  0.00000000000E+00 0.  1.
          2   -1    0    0  501    0  0.00000000000E+00 -0.00000000000E+00 -0.37218552025E+04  0.37218552025E+04  0.00000000000E+00 0. -1.
         24    2    1    2    0    0  0.12509755424E+03  0.63290536936E+03 -0.33035029072E+04  0.33668590273E+04  0.79935267784E+02 0.  0.
        254    2    1    2    0    0 -0.12509755424E+03 -0.63290536936E+03  0.40854272668E+03  0.11818911971E+04  0.90207595996E+03 0.  0.
         23    2    4    4    0    0  0.24775536383E+03 -0.15726235650E+02 -0.11146613617E+03  0.28816529032E+03  0.94786603692E+02 0.  0.
         23    2    4    4    0    0 -0.37285291806E+03 -0.61717913371E+03  0.52000886285E+03  0.89372590675E+03  0.91691860843E+02 0.  0.
          2    1    3    3  502    0  0.10772743785E+03  0.49720614406E+03 -0.27529709778E+04  0.27995836039E+04  0.00000000000E+00 0. -1.
         -1    1    3    3    0  502  0.17370116385E+02  0.13569922530E+03 -0.55053192940E+03  0.56727542339E+03  0.00000000000E+00 0.  1.
         11    1    5    5    0    0  0.19409689128E+03 -0.51933595877E+02 -0.81300055803E+02  0.21674962666E+03  0.00000000000E+00 0. -1.
        -11    1    5    5    0    0  0.53658472548E+02  0.36207360227E+02 -0.30166080371E+02  0.71415663658E+02  0.00000000000E+00 0.  1.
          3    1    6    6  503    0 -0.30894318548E+03 -0.45319537547E+03  0.36172162162E+03  0.65701938460E+03  0.00000000000E+00 0. -1.
         -3    1    6    6    0  503 -0.63909732587E+02 -0.16398375825E+03  0.15828724123E+03  0.23670652214E+03  0.00000000000E+00 0.  1.
<mgrwt>
<rscale>  0 0.35086086E+04</rscale>
<asrwt>0</asrwt>
<pdfrwt beam="1">  1        2 0.57259311E+00 0.35086086E+04</pdfrwt>
<pdfrwt beam="2">  1       -1 0.12721462E+00 0.35086086E+04</pdfrwt>
<totfact> 0.28011085E-01</totfact>
</mgrwt>
</event>
<event>
12    6  0.1395358E-007  0.4074606E+04  0.7818608E-02  0.7989663E-01
         -1   -1    0    0    0  501 -0.00000000000E+00  0.00000000000E+00  0.18951687678E+04  0.18951687678E+04  0.00000000000E+00 0.  1.
          2   -1    0    0  501    0  0.00000000000E+00 -0.00000000000E+00 -0.21900972057E+04  0.21900972057E+04  0.00000000000E+00 0. -1.
         24    2    1    2    0    0  0.12215790211E+04  0.14649549958E+04  0.19882554939E+03  0.19188540471E+04  0.64193539116E+02 0.  0.
        254    2    1    2    0    0 -0.12215790211E+04 -0.14649549958E+04 -0.49375398735E+03  0.21664119264E+04  0.90066597044E+03 0.  0.
         23    2    4    4    0    0 -0.51668888426E+03 -0.54064555330E+03  0.23715887459E+03  0.79024201449E+03  0.94726407334E+02 0.  0.
         23    2    4    4    0    0 -0.70489013685E+03 -0.92430944247E+03 -0.73091286194E+03  0.13761699119E+04  0.91607664456E+02 0.  0.
          2    1    3    3  502    0  0.44913159900E+03  0.58735723124E+03  0.78877707617E+02  0.74359222903E+03  0.00000000000E+00 0. -1.
         -1    1    3    3    0  502  0.77244742211E+03  0.87759776454E+03  0.11994784177E+03  0.11752618181E+04  0.00000000000E+00 0.  1.
         11    1    5    5    0    0 -0.35223016354E+03 -0.37249840828E+03  0.20795842045E+03  0.55323399833E+03  0.00000000000E+00 0. -1.
        -11    1    5    5    0    0 -0.16445872073E+03 -0.16814714502E+03  0.29200454143E+02  0.23700801616E+03  0.00000000000E+00 0.  1.
          1    1    6    6  503    0 -0.60824331498E+03 -0.84190854170E+03 -0.64015551624E+03  0.12200692635E+04  0.00000000000E+00 0. -1.
         -1    1    6    6    0  503 -0.96646821874E+02 -0.82400900770E+02 -0.90757345704E+02  0.15610064838E+03  0.00000000000E+00 0.  1.
<mgrwt>
<rscale>  0 0.40746062E+04</rscale>
<asrwt>0</asrwt>
<pdfrwt beam="1">  1        2 0.33693803E+00 0.40746062E+04</pdfrwt>
<pdfrwt beam="2">  1       -1 0.29156443E+00 0.40746062E+04</pdfrwt>
<totfact> 0.17473136E-01</totfact>
</mgrwt>
</event>
<event>
12    6  0.1395358E-007  0.1478044E+04  0.7818608E-02  0.8899186E-01
         -1   -1    0    0    0  501 -0.00000000000E+00  0.00000000000E+00  0.41224711585E+03  0.41224711585E+03  0.00000000000E+00 0.  1.
          2   -1    0    0  501    0  0.00000000000E+00 -0.00000000000E+00 -0.13248208919E+04  0.13248208919E+04  0.00000000000E+00 0. -1.
         24    2    1    2    0    0 -0.17988360203E+03 -0.36304901811E+03 -0.54626957192E+03  0.68479359173E+03  0.79806755544E+02 0.  0.
        254    2    1    2    0    0  0.17988360203E+03  0.36304901811E+03 -0.36630420408E+03  0.10522744160E+04  0.89941090541E+03 0.  0.
         23    2    4    4    0    0 -0.10766826843E+03  0.47338538291E+03  0.82173888354E+02  0.50093604337E+03  0.92185654187E+02 0.  0.
         23    2    4    4    0    0  0.28755187046E+03 -0.11033636480E+03 -0.44847809244E+03  0.55133837261E+03  0.89337618713E+02 0.  0.
          2    1    3    3  502    0 -0.17862921373E+03 -0.36692597332E+03 -0.54421488401E+03  0.68023003893E+03  0.00000000000E+00 0. -1.
         -1    1    3    3    0  502 -0.12543882995E+01  0.38769552045E+01 -0.20546879130E+01  0.45635527918E+01  0.00000000000E+00 0.  1.
         11    1    5    5    0    0 -0.76419310193E+02  0.44070677027E+03  0.62509797536E+02  0.45163020616E+03  0.00000000000E+00 0.  1.
        -11    1    5    5    0    0 -0.31248958233E+02  0.32678612648E+02  0.19664090819E+02  0.49305837209E+02  0.00000000000E+00 0. -1.
          3    1    6    6  503    0  0.49013420868E+02  0.14894065018E+02 -0.68140568577E+02  0.85248376430E+02  0.00000000000E+00 0. -1.
         -3    1    6    6    0  503  0.23853844959E+03 -0.12523042982E+03 -0.38033752386E+03  0.46608999618E+03  0.00000000000E+00 0.  1.
<mgrwt>
<rscale>  0 0.14780441E+04</rscale>
<asrwt>0</asrwt>
<pdfrwt beam="1">  1        2 0.20381860E+00 0.14780441E+04</pdfrwt>
<pdfrwt beam="2">  1       -1 0.63422633E-01 0.14780441E+04</pdfrwt>
<totfact> 0.44476229E+01</totfact>
</mgrwt>
</event>
<event>
12    6  0.1395358E-007  0.1099052E+04  0.7818608E-02  0.9206116E-01
          2   -1    0    0  501    0  0.00000000000E+00  0.00000000000E+00  0.18197467709E+04  0.18197467709E+04  0.00000000000E+00 0. -1.
         -1   -1    0    0    0  501 -0.00000000000E+00 -0.00000000000E+00 -0.16594551293E+03  0.16594551293E+03  0.00000000000E+00 0.  1.
         24    2    1    2    0    0  0.37218843122E+02  0.10017691466E+03  0.51602772199E+03  0.53334176286E+03  0.82147243580E+02 0.  0.
        254    2    1    2    0    0 -0.37218843122E+02 -0.10017691466E+03  0.11377735360E+04  0.14523505210E+04  0.89631063817E+03 0.  0.
         23    2    4    4    0    0 -0.13801929533E+03  0.50419384404E+01 -0.10581199424E+03  0.19711592115E+03  0.92648589944E+02 0.  0.
         23    2    4    4    0    0  0.10080045221E+03 -0.10521885310E+03  0.12435855303E+04  0.12552345999E+04  0.88753542998E+02 0.  0.
          4    1    3    3  502    0  0.11886117604E+02  0.98154936018E+02  0.47420899168E+03  0.48440668766E+03  0.00000000000E+00 0. -1.
         -3    1    3    3    0  502  0.25332725518E+02  0.20219786403E+01  0.41818730309E+02  0.48935075196E+02  0.00000000000E+00 0.  1.
         11    1    5    5    0    0 -0.49414940037E+02 -0.31781367460E+02 -0.77151445904E+02  0.96975446488E+02  0.00000000000E+00 0.  1.
        -11    1    5    5    0    0 -0.88604355296E+02  0.36823305900E+02 -0.28660548337E+02  0.10014047466E+03  0.00000000000E+00 0. -1.
          4    1    6    6  503    0  0.92667898304E+02 -0.59305866906E+02  0.60303184896E+03  0.61298608148E+03  0.00000000000E+00 0. -1.
         -4    1    6    6    0  503  0.81325539074E+01 -0.45912986193E+02  0.64055368130E+03  0.64224851838E+03  0.00000000000E+00 0.  1.
<mgrwt>
<rscale>  0 0.10990520E+04</rscale>
<asrwt>0</asrwt>
<pdfrwt beam="1">  1        2 0.27996103E+00 0.10990520E+04</pdfrwt>
<pdfrwt beam="2">  1       -1 0.25530080E-01 0.10990520E+04</pdfrwt>
<totfact> 0.12867524E+02</totfact>
</mgrwt>
</event>
<event>
12    6  0.1395358E-007  0.1907862E+04  0.7818608E-02  0.8650953E-01
          2   -1    0    0  501    0  0.00000000000E+00  0.00000000000E+00  0.91435381206E+03  0.91435381206E+03  0.00000000000E+00 0. -1.
         -1   -1    0    0    0  501 -0.00000000000E+00 -0.00000000000E+00 -0.99522097495E+03  0.99522097495E+03  0.00000000000E+00 0.  1.
         24    2    1    2    0    0 -0.53143250913E+03  0.51128309264E+03  0.22632499745E+01  0.74169948748E+03  0.79259667184E+02 0.  0.
        254    2    1    2    0    0  0.53143250913E+03 -0.51128309264E+03 -0.83130412866E+02  0.11678752995E+04  0.90177111126E+03 0.  0.
         23    2    4    4    0    0  0.75786240299E+03 -0.33926606796E+03  0.55858243541E+02  0.83701573509E+03  0.89545020456E+02 0.  0.
         23    2    4    4    0    0 -0.22642989385E+03 -0.17201702468E+03 -0.13898865641E+03  0.33085956443E+03  0.96383873955E+02 0.  0.
          4    1    3    3  502    0 -0.42045701074E+03  0.36252585917E+03  0.17864771977E+02  0.55545319022E+03  0.00000000000E+00 0. -1.
         -3    1    3    3    0  502 -0.11097549839E+03  0.14875723348E+03 -0.15601522002E+02  0.18624629726E+03  0.00000000000E+00 0.  1.
         11    1    5    5    0    0  0.34599179746E+03 -0.19548461782E+03  0.15320914261E+01  0.39740018498E+03  0.00000000000E+00 0.  1.
        -11    1    5    5    0    0  0.41187060552E+03 -0.14378145015E+03  0.54326152115E+02  0.43961555011E+03  0.00000000000E+00 0. -1.
          2    1    6    6  503    0 -0.14105592706E+03 -0.65979108347E+02 -0.35148001838E+02  0.15964147121E+03  0.00000000000E+00 0. -1.
         -2    1    6    6    0  503 -0.85373966791E+02 -0.10603791633E+03 -0.10384065457E+03  0.17121809322E+03  0.00000000000E+00 0.  1.
<mgrwt>
<rscale>  0 0.19078617E+04</rscale>
<asrwt>0</asrwt>
<pdfrwt beam="1">  1        2 0.14066982E+00 0.19078617E+04</pdfrwt>
<pdfrwt beam="2">  1       -1 0.15311092E+00 0.19078617E+04</pdfrwt>
<totfact> 0.10106482E+01</totfact>
</mgrwt>
</event>
<event>
12    6  0.1395358E-007  0.2264111E+04  0.7818608E-02  0.8492207E-01
          2   -1    0    0  501    0  0.00000000000E+00  0.00000000000E+00  0.97622014773E+03  0.97622014773E+03  0.00000000000E+00 0. -1.
         -1   -1    0    0    0  501 -0.00000000000E+00 -0.00000000000E+00 -0.13127673635E+04  0.13127673635E+04  0.00000000000E+00 0.  1.
         24    2    1    2    0    0 -0.90256261642E+03  0.16838234763E+03 -0.39354329087E+03  0.10020781041E+04  0.79450068447E+02 0.  0.
        254    2    1    2    0    0  0.90256261642E+03 -0.16838234763E+03  0.56996075064E+02  0.12869094072E+04  0.89995298662E+03 0.  0.
         23    2    4    4    0    0  0.95867790203E+02 -0.38718792888E+03 -0.12585965965E+03  0.42670051026E+03  0.84424795320E+02 0.  0.
         23    2    4    4    0    0  0.80669482622E+03  0.21880558125E+03  0.18285573472E+03  0.86020889690E+03  0.88829620949E+02 0.  0.
          4    1    3    3  502    0 -0.69590479213E+03  0.10905358167E+03 -0.27195035768E+03  0.75507162602E+03  0.00000000000E+00 0. -1.
         -3    1    3    3    0  502 -0.20665782430E+03  0.59328765957E+02 -0.12159293318E+03  0.24700647808E+03  0.00000000000E+00 0.  1.
         11    1    5    5    0    0 -0.63390729791E+01 -0.11076134476E+02  0.74543730524E+01  0.14779454617E+02  0.00000000000E+00 0.  1.
        -11    1    5    5    0    0  0.10220686318E+03 -0.37611179440E+03 -0.13331403270E+03  0.41192105565E+03  0.00000000000E+00 0. -1.
          4    1    6    6  503    0  0.53773597280E+03  0.18749074757E+03  0.11336711499E+03  0.58065898738E+03  0.00000000000E+00 0. -1.
         -4    1    6    6    0  503  0.26895885343E+03  0.31314833678E+02  0.69488619728E+02  0.27954990953E+03  0.00000000000E+00 0.  1.
<mgrwt>
<rscale>  0 0.22641113E+04</rscale>
<asrwt>0</asrwt>
<pdfrwt beam="1">  1        2 0.15018772E+00 0.22641113E+04</pdfrwt>
<pdfrwt beam="2">  1       -1 0.20196421E+00 0.22641113E+04</pdfrwt>
<totfact> 0.39477389E+00</totfact>
</mgrwt>
</event>
<event>
12    6  0.1395358E-007  0.2560046E+04  0.7818608E-02  0.8381901E-01
          2   -1    0    0  501    0  0.00000000000E+00  0.00000000000E+00  0.11405096090E+04  0.11405096090E+04  0.00000000000E+00 0. -1.
         -1   -1    0    0    0  501 -0.00000000000E+00 -0.00000000000E+00 -0.14366024485E+04  0.14366024485E+04  0.00000000000E+00 0.  1.
         24    2    1    2    0    0  0.69696292436E+03 -0.53745427534E+03  0.56739402730E+03  0.10503340357E+04  0.81554817749E+02 0.  0.
        254    2    1    2    0    0 -0.69696292436E+03  0.53745427534E+03 -0.86348686682E+03  0.15267780218E+04  0.90045940653E+03 0.  0.
         23    2    4    4    0    0  0.11616272749E+03 -0.12349288746E+03 -0.55214272194E+02  0.20015604244E+03  0.90937082423E+02 0.  0.
         23    2    4    4    0    0 -0.81312565185E+03  0.66094716280E+03 -0.80827259463E+03  0.13266219794E+04  0.92718991113E+02 0.  0.
          4    1    3    3  502    0  0.30585375097E+03 -0.24569257949E+03  0.30040286522E+03  0.49411865177E+03  0.00000000000E+00 0. -1.
         -3    1    3    3    0  502  0.39110917339E+03 -0.29176169585E+03  0.26699116208E+03  0.55621538392E+03  0.00000000000E+00 0.  1.
         11    1    5    5    0    0  0.83711603276E+02 -0.43966778135E+02  0.59020266323E+01  0.94739347797E+02  0.00000000000E+00 0.  1.
        -11    1    5    5    0    0  0.32451124215E+02 -0.79526109323E+02 -0.61116298826E+02  0.10541669464E+03  0.00000000000E+00 0. -1.
          3    1    6    6  503    0 -0.43963068241E+03  0.30347340868E+03 -0.38550016637E+03  0.65877281741E+03  0.00000000000E+00 0. -1.
         -3    1    6    6    0  503 -0.37349496944E+03  0.35747375412E+03 -0.42277242826E+03  0.66784916200E+03  0.00000000000E+00 0.  1.
<mgrwt>
<rscale>  0 0.25600460E+04</rscale>
<asrwt>0</asrwt>
<pdfrwt beam="1">  1        2 0.17546302E+00 0.25600460E+04</pdfrwt>
<pdfrwt beam="2">  1       -1 0.22101576E+00 0.25600460E+04</pdfrwt>
<totfact> 0.22545948E+00</totfact>
</mgrwt>
</event>
<event>
12    6  0.1395358E-007  0.1399073E+04  0.7818608E-02  0.8954490E-01
          2   -1    0    0  501    0  0.00000000000E+00  0.00000000000E+00  0.20944308072E+04  0.20944308072E+04  0.00000000000E+00 0. -1.
         -1   -1    0    0    0  501 -0.00000000000E+00 -0.00000000000E+00 -0.23364389536E+03  0.23364389536E+03  0.00000000000E+00 0.  1.
         24    2    1    2    0    0  0.19858766349E+03  0.40366358762E+02  0.11310474265E+04  0.11518500198E+04  0.80147888000E+02 0.  0.
        254    2    1    2    0    0 -0.19858766349E+03 -0.40366358762E+02  0.72973948533E+03  0.11762246828E+04  0.89995460164E+03 0.  0.
         23    2    4    4    0    0  0.10626595635E+03 -0.37834888102E+03  0.54198535914E+03  0.67545425676E+03  0.89721759936E+02 0.  0.
         23    2    4    4    0    0 -0.30485361983E+03  0.33798252226E+03  0.18775412619E+03  0.50077042606E+03  0.91386502496E+02 0.  0.
          2    1    3    3  502    0  0.47238535929E+02 -0.23229296859E+01  0.46918320655E+03  0.47156097865E+03  0.00000000000E+00 0. -1.
         -1    1    3    3    0  502  0.15134912756E+03  0.42689288448E+02  0.66186422000E+03  0.68028904112E+03  0.00000000000E+00 0.  1.
         11    1    5    5    0    0  0.10718718120E+03 -0.36246009724E+03  0.54038836316E+03  0.65945886676E+03  0.00000000000E+00 0.  1.
        -11    1    5    5    0    0 -0.92122485684E+00 -0.15888783783E+02  0.15969959841E+01  0.15995390008E+02  0.00000000000E+00 0. -1.
          3    1    6    6  503    0 -0.20178506144E+03  0.22678027839E+03  0.17052235024E+03  0.34817291339E+03  0.00000000000E+00 0. -1.
         -3    1    6    6    0  503 -0.10306855840E+03  0.11120224386E+03  0.17231775946E+02  0.15259751267E+03  0.00000000000E+00 0.  1.
<mgrwt>
<rscale>  0 0.13990725E+04</rscale>
<asrwt>0</asrwt>
<pdfrwt beam="1">  1        2 0.32222011E+00 0.13990725E+04</pdfrwt>
<pdfrwt beam="2">  1       -1 0.35945216E-01 0.13990725E+04</pdfrwt>
<totfact> 0.48582985E+01</totfact>
</mgrwt>
</event>
<event>
12    6  0.1395358E-007  0.1668877E+04  0.7818608E-02  0.8779316E-01
         -1   -1    0    0    0  501 -0.00000000000E+00  0.00000000000E+00  0.46105975197E+03  0.46105975197E+03  0.00000000000E+00 0.  1.
          2   -1    0    0  501    0  0.00000000000E+00 -0.00000000000E+00 -0.15101902748E+04  0.15101902748E+04  0.00000000000E+00 0. -1.
         24    2    1    2    0    0  0.49066243300E+03 -0.25721625301E+02 -0.74660804977E+03  0.89809351146E+03  0.87961071975E+02 0.  0.
        254    2    1    2    0    0 -0.49066243300E+03  0.25721625301E+02 -0.30252247304E+03  0.10731565153E+04  0.90483912076E+03 0.  0.
         23    2    4    4    0    0 -0.68626393388E+03 -0.19293161489E+03 -0.25443723542E+03  0.76230647770E+03  0.90510022665E+02 0.  0.
         23    2    4    4    0    0  0.19560150088E+03  0.21865324019E+03 -0.48085237620E+02  0.31085003759E+03  0.90809521527E+02 0.  0.
          4    1    3    3  502    0  0.18488492163E+03 -0.28908572124E+02 -0.35431958596E+03  0.40070002343E+03  0.00000000000E+00 0. -1.
         -3    1    3    3    0  502  0.30577751137E+03  0.31869468231E+01 -0.39228846381E+03  0.49739348803E+03  0.00000000000E+00 0.  1.
         11    1    5    5    0    0 -0.65792943107E+03 -0.20152000265E+03 -0.23608975478E+03  0.72747496180E+03  0.00000000000E+00 0. -1.
        -11    1    5    5    0    0 -0.28334502816E+02  0.85883877588E+01 -0.18347480643E+02  0.34831515902E+02  0.00000000000E+00 0.  1.
          1    1    6    6  503    0  0.13274588046E+03  0.19929772781E+03 -0.51719070557E+02  0.24498145919E+03  0.00000000000E+00 0. -1.
         -1    1    6    6    0  503  0.62855620424E+02  0.19355512381E+02  0.36338329363E+01  0.65868578398E+02  0.00000000000E+00 0.  1.
<mgrwt>
<rscale>  0 0.16688774E+04</rscale>
<asrwt>0</asrwt>
<pdfrwt beam="1">  1        2 0.23233697E+00 0.16688774E+04</pdfrwt>
<pdfrwt beam="2">  1       -1 0.70932269E-01 0.16688774E+04</pdfrwt>
<totfact> 0.27335587E+01</totfact>
</mgrwt>
</event>
<event>
12    6  0.1395358E-007  0.2517808E+04  0.7818608E-02  0.8396669E-01
         -1   -1    0    0    0  501 -0.00000000000E+00  0.00000000000E+00  0.65767045320E+03  0.65767045320E+03  0.00000000000E+00 0.  1.
          2   -1    0    0  501    0  0.00000000000E+00 -0.00000000000E+00 -0.24097771412E+04  0.24097771412E+04  0.00000000000E+00 0. -1.
         24    2    1    2    0    0 -0.94929340833E+03 -0.54598190904E+03 -0.82614614713E+03  0.13741774075E+04  0.81190336504E+02 0.  0.
        254    2    1    2    0    0  0.94929340833E+03  0.54598190904E+03 -0.92596054084E+03  0.16932701869E+04  0.90028150181E+03 0.  0.
         23    2    4    4    0    0  0.36859887682E+03  0.22717551567E+03  0.11420967834E+03  0.45680764450E+03  0.90307953896E+02 0.  0.
         23    2    4    4    0    0  0.58069453150E+03  0.31880639338E+03 -0.10401702192E+04  0.12364625424E+04  0.89676521247E+02 0.  0.
          4    1    3    3  502    0 -0.49432170633E+03 -0.28836595775E+03 -0.38106246554E+03  0.68754452771E+03  0.00000000000E+00 0. -1.
         -3    1    3    3    0  502 -0.45497170199E+03 -0.25761595129E+03 -0.44508368159E+03  0.68663287978E+03  0.00000000000E+00 0.  1.
         11    1    5    5    0    0  0.32089121146E+03  0.21620068484E+03  0.12511442928E+03  0.40665406199E+03  0.00000000000E+00 0. -1.
        -11    1    5    5    0    0  0.47707665362E+02  0.10974830830E+02 -0.10904750942E+02  0.50153582516E+02  0.00000000000E+00 0.  1.
          1    1    6    6  503    0  0.25046503011E+03  0.91271663182E+02 -0.44685993466E+03  0.52033359396E+03  0.00000000000E+00 0. -1.
         -1    1    6    6    0  503  0.33022950140E+03  0.22753473019E+03 -0.59331028453E+03  0.71612894842E+03  0.00000000000E+00 0.  1.
<mgrwt>
<rscale>  0 0.25178080E+04</rscale>
<asrwt>0</asrwt>
<pdfrwt beam="1">  1        2 0.37073494E+00 0.25178080E+04</pdfrwt>
<pdfrwt beam="2">  1       -1 0.10118007E+00 0.25178080E+04</pdfrwt>
<totfact> 0.36873436E+00</totfact>
</mgrwt>
</event>
<event>
12    6  0.1395358E-007  0.2282298E+04  0.7818608E-02  0.8484934E-01
         -1   -1    0    0    0  501 -0.00000000000E+00  0.00000000000E+00  0.34328904681E+03  0.34328904681E+03  0.00000000000E+00 0.  1.
          2   -1    0    0  501    0  0.00000000000E+00 -0.00000000000E+00 -0.37933666374E+04  0.37933666374E+04  0.00000000000E+00 0. -1.
         24    2    1    2    0    0  0.16968373141E+03  0.92028252818E+03 -0.10597653305E+04  0.14161677894E+04  0.81952130081E+02 0.  0.
        254    2    1    2    0    0 -0.16968373141E+03 -0.92028252818E+03 -0.23903122601E+04  0.27204878948E+04  0.90097124521E+03 0.  0.
         23    2    4    4    0    0  0.13034355121E+03 -0.39866283643E+03 -0.18739614642E+04  0.19224974003E+04  0.91341045987E+02 0.  0.
         23    2    4    4    0    0 -0.30002728262E+03 -0.52161969176E+03 -0.51635079594E+03  0.79799049448E+03  0.89817657882E+02 0.  0.
          2    1    3    3  502    0  0.11574997131E+03  0.40687974250E+03 -0.46582315201E+03  0.62923794360E+03  0.00000000000E+00 0. -1.
         -1    1    3    3    0  502  0.53933760092E+02  0.51340278568E+03 -0.59394217851E+03  0.78692984581E+03  0.00000000000E+00 0.  1.
         11    1    5    5    0    0  0.80471553412E+02 -0.12171551592E+03 -0.55581150721E+03  0.57464490711E+03  0.00000000000E+00 0. -1.
        -11    1    5    5    0    0  0.49871997797E+02 -0.27694732051E+03 -0.13181499569E+04  0.13478524932E+04  0.00000000000E+00 0.  1.
          1    1    6    6  503    0 -0.68610034450E+02 -0.13251607311E+03 -0.18106583812E+03  0.23463308418E+03  0.00000000000E+00 0. -1.
         -1    1    6    6    0  503 -0.23141724817E+03 -0.38910361865E+03 -0.33528495782E+03  0.56335741029E+03  0.00000000000E+00 0.  1.
<mgrwt>
<rscale>  0 0.22822982E+04</rscale>
<asrwt>0</asrwt>
<pdfrwt beam="1">  1        2 0.58359484E+00 0.22822982E+04</pdfrwt>
<pdfrwt beam="2">  1       -1 0.52813702E-01 0.22822982E+04</pdfrwt>
<totfact> 0.18632573E+00</totfact>
</mgrwt>
</event>
<event>
12    6  0.1395358E-007  0.2382419E+04  0.7818608E-02  0.8446115E-01
         -1   -1    0    0    0  501 -0.00000000000E+00  0.00000000000E+00  0.14177951262E+04  0.14177951262E+04  0.00000000000E+00 0.  1.
          2   -1    0    0  501    0  0.00000000000E+00 -0.00000000000E+00 -0.10008360026E+04  0.10008360026E+04  0.00000000000E+00 0. -1.
         24    2    1    2    0    0 -0.54394820021E+03 -0.86222645722E+03  0.16510550077E+03  0.10357209820E+04  0.78383787875E+02 0.  0.
        254    2    1    2    0    0  0.54394820021E+03  0.86222645722E+03  0.25185362286E+03  0.13829101468E+04  0.89983116125E+03 0.  0.
         23    2    4    4    0    0  0.10526247837E+03  0.48046250832E+03  0.53265349286E+03  0.73095228274E+03  0.92989703346E+02 0.  0.
         23    2    4    4    0    0  0.43868572183E+03  0.38176394890E+03 -0.28079987000E+03  0.65195786407E+03  0.89507621570E+02 0.  0.
          2    1    3    3  502    0 -0.40406560064E+03 -0.69430818406E+03  0.11517221613E+03  0.81154020445E+03  0.00000000000E+00 0. -1.
         -1    1    3    3    0  502 -0.13988259956E+03 -0.16791827316E+03  0.49933284641E+02  0.22418077758E+03  0.00000000000E+00 0.  1.
         11    1    5    5    0    0  0.10332631160E+03  0.28954156950E+03  0.29463574377E+03  0.42581788201E+03  0.00000000000E+00 0.  1.
        -11    1    5    5    0    0  0.19361667705E+01  0.19092093883E+03  0.23801774909E+03  0.30513440072E+03  0.00000000000E+00 0. -1.
          4    1    6    6  503    0  0.23699104859E+03  0.17155257573E+03 -0.10046450010E+03  0.30933502732E+03  0.00000000000E+00 0. -1.
         -4    1    6    6    0  503  0.20169467324E+03  0.21021137317E+03 -0.18033536990E+03  0.34262283675E+03  0.00000000000E+00 0.  1.
<mgrwt>
<rscale>  0 0.23824193E+04</rscale>
<asrwt>0</asrwt>
<pdfrwt beam="1">  1        2 0.15397477E+00 0.23824193E+04</pdfrwt>
<pdfrwt beam="2">  1       -1 0.21812233E+00 0.23824193E+04</pdfrwt>
<totfact> 0.29264087E+00</totfact>
</mgrwt>
</event>
<event>
12    6  0.1395358E-007  0.1016208E+04  0.7818608E-02  0.9290945E-01
         -1   -1    0    0    0  501 -0.00000000000E+00  0.00000000000E+00  0.86184813443E+02  0.86184813443E+02  0.00000000000E+00 0.  1.
          2   -1    0    0  501    0  0.00000000000E+00 -0.00000000000E+00 -0.29955344109E+04  0.29955344109E+04  0.00000000000E+00 0. -1.
         24    2    1    2    0    0  0.27213462722E+02 -0.55155286396E+02 -0.15236720145E+03  0.18089557165E+03  0.75662180730E+02 0.  0.
        254    2    1    2    0    0 -0.27213462722E+02  0.55155286396E+02 -0.27569823960E+04  0.29008236527E+04  0.90002402967E+03 0.  0.
         23    2    4    4    0    0  0.37770531151E+03  0.17366166933E+03 -0.92583112178E+03  0.10194327358E+04  0.96229720069E+02 0.  0.
         23    2    4    4    0    0 -0.40491877423E+03 -0.11850638293E+03 -0.18311512742E+04  0.18813909169E+04  0.92270344945E+02 0.  0.
          2    1    3    3  502    0  0.13120985566E+02 -0.41675633952E+02 -0.15516083442E+03  0.16119523339E+03  0.00000000000E+00 0. -1.
         -1    1    3    3    0  502  0.14092477156E+02 -0.13479652444E+02  0.27936329724E+01  0.19700338261E+02  0.00000000000E+00 0.  1.
         11    1    5    5    0    0  0.25703059825E+03  0.93824122425E+02 -0.69593319914E+03  0.74779055360E+03  0.00000000000E+00 0.  1.
        -11    1    5    5    0    0  0.12067471327E+03  0.79837546903E+02 -0.22989792264E+03  0.27164218220E+03  0.00000000000E+00 0. -1.
          2    1    6    6  503    0 -0.92228478024E+02 -0.68054261637E+02 -0.44671993720E+03  0.46118995759E+03  0.00000000000E+00 0. -1.
         -2    1    6    6    0  503 -0.31269029621E+03 -0.50452121295E+02 -0.13844313370E+04  0.14202009593E+04  0.00000000000E+00 0.  1.
<mgrwt>
<rscale>  0 0.10162078E+04</rscale>
<asrwt>0</asrwt>
<pdfrwt beam="1">  1        2 0.46085136E+00 0.10162078E+04</pdfrwt>
<pdfrwt beam="2">  1       -1 0.13259205E-01 0.10162078E+04</pdfrwt>
<totfact> 0.81908369E+01</totfact>
</mgrwt>
</event>
<event>
12    6  0.1395358E-007  0.1450506E+04  0.7818608E-02  0.8918050E-01
         -1   -1    0    0    0  501 -0.00000000000E+00  0.00000000000E+00  0.30923110180E+03  0.30923110180E+03  0.00000000000E+00 0.  1.
          2   -1    0    0  501    0  0.00000000000E+00 -0.00000000000E+00 -0.17009664576E+04  0.17009664576E+04  0.00000000000E+00 0. -1.
         24    2    1    2    0    0 -0.72633603049E+02 -0.18421162443E+03 -0.97532725826E+03  0.99850563268E+03  0.80874439300E+02 0.  0.
        254    2    1    2    0    0  0.72633603049E+02  0.18421162443E+03 -0.41640809754E+03  0.10116919267E+04  0.90050834977E+03 0.  0.
         23    2    4    4    0    0  0.36449095869E+03 -0.37722396140E+02 -0.49868867490E+03  0.62555689915E+03  0.91402414952E+02 0.  0.
         23    2    4    4    0    0 -0.29185735564E+03  0.22193402057E+03  0.82280577368E+02  0.38613502755E+03  0.88852352606E+02 0.  0.
          4    1    3    3  502    0 -0.70002237991E+02 -0.19229567716E+03 -0.91661270321E+03  0.93917878408E+03  0.00000000000E+00 0. -1.
         -3    1    3    3    0  502 -0.26313650579E+01  0.80840527355E+01 -0.58714555049E+02  0.59326848604E+02  0.00000000000E+00 0.  1.
         11    1    5    5    0    0  0.25956214556E+03  0.89318084620E+01 -0.38123971848E+03  0.46129817641E+03  0.00000000000E+00 0.  1.
        -11    1    5    5    0    0  0.10492881313E+03 -0.46654204602E+02 -0.11744895643E+03  0.16425872275E+03  0.00000000000E+00 0. -1.
          1    1    6    6  503    0 -0.79578355663E+01  0.37338304021E+02  0.26916597249E+01  0.38271675246E+02  0.00000000000E+00 0. -1.
         -1    1    6    6    0  503 -0.28389952008E+03  0.18459571655E+03  0.79588917643E+02  0.34786335231E+03  0.00000000000E+00 0.  1.
<mgrwt>
<rscale>  0 0.14505057E+04</rscale>
<asrwt>0</asrwt>
<pdfrwt beam="1">  1        2 0.26168715E+00 0.14505057E+04</pdfrwt>
<pdfrwt beam="2">  1       -1 0.47574015E-01 0.14505057E+04</pdfrwt>
<totfact> 0.47732640E+01</totfact>
</mgrwt>
</event>
<event>
12    6  0.1395358E-007  0.1448752E+04  0.7818608E-02  0.8919266E-01
          2   -1    0    0  501    0  0.00000000000E+00  0.00000000000E+00  0.13555877787E+04  0.13555877787E+04  0.00000000000E+00 0. -1.
         -1   -1    0    0    0  501 -0.00000000000E+00 -0.00000000000E+00 -0.38707999565E+03  0.38707999565E+03  0.00000000000E+00 0.  1.
         24    2    1    2    0    0 -0.14460340377E+03 -0.38072096586E+03  0.45705529978E+03  0.61735225806E+03  0.79785119170E+02 0.  0.
        254    2    1    2    0    0  0.14460340377E+03  0.38072096586E+03  0.51145248330E+03  0.11253155163E+04  0.91591089653E+03 0.  0.
         23    2    4    4    0    0 -0.15454987648E+03 -0.20786867362E+03 -0.16213715625E+02  0.27534884885E+03  0.91973116686E+02 0.  0.
         23    2    4    4    0    0  0.29915328025E+03  0.58858963948E+03  0.52766619892E+03  0.84996666748E+03  0.89895881703E+02 0.  0.
          4    1    3    3  502    0 -0.10011519300E+03 -0.29833996649E+03  0.39499444961E+03  0.50502515056E+03  0.00000000000E+00 0. -1.
         -3    1    3    3    0  502 -0.44488210766E+02 -0.82380999371E+02  0.62060850173E+02  0.11232710750E+03  0.00000000000E+00 0.  1.
         11    1    5    5    0    0 -0.14377245230E+03 -0.20340150462E+03 -0.36700632606E+02  0.25177296629E+03  0.00000000000E+00 0. -1.
        -11    1    5    5    0    0 -0.10777424185E+02 -0.44671690031E+01  0.20486916981E+02  0.23575882557E+02  0.00000000000E+00 0.  1.
          4    1    6    6  503    0  0.27166621569E+03  0.49303998406E+03  0.41290830093E+03  0.69812908807E+03  0.00000000000E+00 0. -1.
         -4    1    6    6    0  503  0.27487064562E+02  0.95549655425E+02  0.11475789799E+03  0.15183757941E+03  0.00000000000E+00 0.  1.
<mgrwt>
<rscale>  0 0.14487524E+04</rscale>
<asrwt>0</asrwt>
<pdfrwt beam="1">  1        2 0.20855196E+00 0.14487524E+04</pdfrwt>
<pdfrwt beam="2">  1       -1 0.59550769E-01 0.14487524E+04</pdfrwt>
<totfact> 0.48499110E+01</totfact>
</mgrwt>
</event>
<event>
12    6  0.1395358E-007  0.1781961E+04  0.7818608E-02  0.8715951E-01
          2   -1    0    0  501    0  0.00000000000E+00  0.00000000000E+00  0.81410902757E+03  0.81410902757E+03  0.00000000000E+00 0. -1.
         -1   -1    0    0    0  501 -0.00000000000E+00 -0.00000000000E+00 -0.97511100479E+03  0.97511100479E+03  0.00000000000E+00 0.  1.
         24    2    1    2    0    0  0.33599789756E+03  0.56715011962E+03 -0.30359770817E+02  0.66469411743E+03  0.79641124526E+02 0.  0.
        254    2    1    2    0    0 -0.33599789756E+03 -0.56715011962E+03 -0.13064220640E+03  0.11245259149E+04  0.90163035770E+03 0.  0.
         23    2    4    4    0    0 -0.37573869295E+03  0.56306534506E+02 -0.27371907375E+03  0.47716376497E+03  0.91723148996E+02 0.  0.
         23    2    4    4    0    0  0.39740795391E+02 -0.62345665412E+03  0.14307686734E+03  0.64736214997E+03  0.91264630893E+02 0.  0.
          2    1    3    3  502    0  0.70959241330E+02  0.18729104148E+03  0.30722365055E+01  0.20030623251E+03  0.00000000000E+00 0. -1.
         -1    1    3    3    0  502  0.26503865623E+03  0.37985907814E+03 -0.33432007322E+02  0.46438788491E+03  0.00000000000E+00 0.  1.
         11    1    5    5    0    0 -0.15533321837E+03  0.54499008742E+02 -0.15821172564E+03  0.22831885776E+03  0.00000000000E+00 0. -1.
        -11    1    5    5    0    0 -0.22040547458E+03  0.18075257640E+01 -0.11550734811E+03  0.24884490720E+03  0.00000000000E+00 0.  1.
          1    1    6    6  503    0 -0.13422185037E+02 -0.79981806990E+02  0.44368824288E+02  0.92443696752E+02  0.00000000000E+00 0. -1.
         -1    1    6    6    0  503  0.53162980428E+02 -0.54347484713E+03  0.98708043057E+02  0.55491845321E+03  0.00000000000E+00 0.  1.
<mgrwt>
<rscale>  0 0.17819615E+04</rscale>
<asrwt>0</asrwt>
<pdfrwt beam="1">  1        2 0.12524754E+00 0.17819615E+04</pdfrwt>
<pdfrwt beam="2">  1       -1 0.15001708E+00 0.17819615E+04</pdfrwt>
<totfact> 0.12666827E+01</totfact>
</mgrwt>
</event>
<event>
12    6  0.1395358E-007  0.1819393E+04  0.7818608E-02  0.8696054E-01
         -1   -1    0    0    0  501 -0.00000000000E+00  0.00000000000E+00  0.49224725446E+03  0.49224725446E+03  0.00000000000E+00 0.  1.
          2   -1    0    0  501    0  0.00000000000E+00 -0.00000000000E+00 -0.16811634238E+04  0.16811634238E+04  0.00000000000E+00 0. -1.
         24    2    1    2    0    0  0.56599661911E+03  0.34881017782E+03 -0.64325183510E+03  0.92897018441E+03  0.84805466632E+02 0.  0.
        254    2    1    2    0    0 -0.56599661911E+03 -0.34881017782E+03 -0.54566433427E+03  0.12444404939E+04  0.89936748002E+03 0.  0.
         23    2    4    4    0    0 -0.41943511777E+02 -0.54284062711E+03 -0.27197394726E+03  0.61545376370E+03  0.91533068594E+02 0.  0.
         23    2    4    4    0    0 -0.52405310733E+03  0.19403044928E+03 -0.27369038701E+03  0.62898673017E+03  0.91860787298E+02 0.  0.
          4    1    3    3  502    0  0.35688324140E+03  0.20135416857E+03 -0.44779599399E+03  0.60698467973E+03  0.00000000000E+00 0. -1.
         -3    1    3    3    0  502  0.20911337771E+03  0.14745600925E+03 -0.19545584111E+03  0.32198550468E+03  0.00000000000E+00 0.  1.
         11    1    5    5    0    0  0.23928012840E+02 -0.23150214856E+03 -0.95504071413E+02  0.25156872271E+03  0.00000000000E+00 0. -1.
        -11    1    5    5    0    0 -0.65871524617E+02 -0.31133847855E+03 -0.17646987585E+03  0.36388504100E+03  0.00000000000E+00 0.  1.
          3    1    6    6  503    0 -0.49153596873E+03  0.16198554183E+03 -0.26848882115E+03  0.58303788162E+03  0.00000000000E+00 0. -1.
         -3    1    6    6    0  503 -0.32517138597E+02  0.32044907452E+02 -0.52015658582E+01  0.45948848555E+02  0.00000000000E+00 0.  1.
<mgrwt>
<rscale>  0 0.18193934E+04</rscale>
<asrwt>0</asrwt>
<pdfrwt beam="1">  1        2 0.25864053E+00 0.18193934E+04</pdfrwt>
<pdfrwt beam="2">  1       -1 0.75730346E-01 0.18193934E+04</pdfrwt>
<totfact> 0.18898069E+01</totfact>
</mgrwt>
</event>
<event>
12    6  0.1395358E-007  0.1847265E+04  0.7818608E-02  0.8681561E-01
          2   -1    0    0  501    0  0.00000000000E+00  0.00000000000E+00  0.20804950150E+04  0.20804950150E+04  0.00000000000E+00 0. -1.
         -1   -1    0    0    0  501 -0.00000000000E+00 -0.00000000000E+00 -0.41004507233E+03  0.41004507233E+03  0.00000000000E+00 0.  1.
         24    2    1    2    0    0 -0.57604932331E+03  0.31707701924E+03  0.96365244876E+03  0.11690061317E+04  0.74690259732E+02 0.  0.
        254    2    1    2    0    0  0.57604932331E+03 -0.31707701924E+03  0.70679749394E+03  0.13215339557E+04  0.90250686400E+03 0.  0.
         23    2    4    4    0    0  0.64741207274E+03  0.55677589846E+01  0.72729733193E+03  0.97787676593E+03  0.90045368855E+02 0.  0.
         23    2    4    4    0    0 -0.71362749430E+02 -0.32264477823E+03 -0.20499837990E+02  0.34365718975E+03  0.92128854252E+02 0.  0.
          4    1    3    3  502    0 -0.32401770000E+03  0.13872534494E+03  0.53755171146E+03  0.64280170639E+03  0.00000000000E+00 0. -1.
         -3    1    3    3    0  502 -0.25203162331E+03  0.17835167430E+03  0.42610073730E+03  0.52620442530E+03  0.00000000000E+00 0.  1.
         11    1    5    5    0    0  0.15344141354E+03 -0.34754758532E+02  0.15595120937E+03  0.22152413036E+03  0.00000000000E+00 0. -1.
        -11    1    5    5    0    0  0.49397065920E+03  0.40322517516E+02  0.57134612256E+03  0.75635263557E+03  0.00000000000E+00 0.  1.
          3    1    6    6  503    0 -0.59518903239E+01 -0.45408273812E+02  0.29469430687E+02  0.54459009117E+02  0.00000000000E+00 0. -1.
         -3    1    6    6    0  503 -0.65410859107E+02 -0.27723650441E+03 -0.49969268677E+02  0.28919818063E+03  0.00000000000E+00 0.  1.
<mgrwt>
<rscale>  0 0.18472647E+04</rscale>
<asrwt>0</asrwt>
<pdfrwt beam="1">  1        2 0.32007615E+00 0.18472647E+04</pdfrwt>
<pdfrwt beam="2">  1       -1 0.63083859E-01 0.18472647E+04</pdfrwt>
<totfact> 0.16447023E+01</totfact>
</mgrwt>
</event>
<event>
12    6  0.1395358E-007  0.1797671E+04  0.7818608E-02  0.8707539E-01
         -3   -1    0    0    0  501 -0.00000000000E+00  0.00000000000E+00  0.95426453466E+03  0.95426453466E+03  0.00000000000E+00 0.  1.
          4   -1    0    0  501    0  0.00000000000E+00 -0.00000000000E+00 -0.84662581190E+03  0.84662581190E+03  0.00000000000E+00 0. -1.
         24    2    1    2    0    0  0.39119248660E+03  0.21959211427E+03 -0.45990369138E+03  0.64719886640E+03  0.78119838064E+02 0.  0.
        254    2    1    2    0    0 -0.39119248660E+03 -0.21959211427E+03  0.56754241414E+03  0.11536914802E+04  0.89869203920E+03 0.  0.
         23    2    4    4    0    0  0.24041827103E+03 -0.96662112855E+02  0.39550736675E+03  0.48138603463E+03  0.90343389831E+02 0.  0.
         23    2    4    4    0    0 -0.63161075762E+03 -0.12293000142E+03  0.17203504740E+03  0.67230544553E+03  0.91403611311E+02 0.  0.
          4    1    3    3  502    0  0.46571531674E+02  0.44576873727E+02 -0.10054215208E+03  0.11943504334E+03  0.00000000000E+00 0. -1.
         -3    1    3    3    0  502  0.34462095492E+03  0.17501524055E+03 -0.35936153930E+03  0.52776382306E+03  0.00000000000E+00 0.  1.
         11    1    5    5    0    0  0.22101757888E+03 -0.77081696593E+02  0.29182287191E+03  0.37410018269E+03  0.00000000000E+00 0.  1.
        -11    1    5    5    0    0  0.19400692147E+02 -0.19580416262E+02  0.10368449484E+03  0.10728585194E+03  0.00000000000E+00 0. -1.
          2    1    6    6  503    0 -0.32737098296E+03 -0.10676948684E+03  0.73500252318E+02  0.35209909244E+03  0.00000000000E+00 0. -1.
         -2    1    6    6    0  503 -0.30423977467E+03 -0.16160514576E+02  0.98534795080E+02  0.32020635309E+03  0.00000000000E+00 0.  1.
<mgrwt>
<rscale>  0 0.17976707E+04</rscale>
<asrwt>0</asrwt>
<pdfrwt beam="1">  1        4 0.13025012E+00 0.17976707E+04</pdfrwt>
<pdfrwt beam="2">  1       -3 0.14680993E+00 0.17976707E+04</pdfrwt>
<totfact> 0.31698355E-01</totfact>
</mgrwt>
</event>
<event>
12    6  0.1395358E-007  0.1616259E+04  0.7818608E-02  0.8810621E-01
          2   -1    0    0  501    0  0.00000000000E+00  0.00000000000E+00  0.32475186840E+04  0.32475186840E+04  0.00000000000E+00 0. -1.
         -1   -1    0    0    0  501 -0.00000000000E+00 -0.00000000000E+00 -0.20109919007E+03  0.20109919007E+03  0.00000000000E+00 0.  1.
         24    2    1    2    0    0  0.17184780111E+03  0.31266724786E+03  0.19581581436E+04  0.19920543429E+04  0.81269398696E+02 0.  0.
        254    2    1    2    0    0 -0.17184780111E+03 -0.31266724786E+03  0.10882613503E+04  0.14565635311E+04  0.89998448820E+03 0.  0.
         23    2    4    4    0    0 -0.25603500291E+03 -0.51783080858E+03  0.10630447809E+04  0.12132515427E+04  0.90622462187E+02 0.  0.
         23    2    4    4    0    0  0.84187201799E+02  0.20516356072E+03  0.25216569373E+02  0.24331198839E+03  0.96877637923E+02 0.  0.
          4    1    3    3  502    0  0.16896606818E+03  0.24440582767E+03  0.16299441964E+04  0.16568047030E+04  0.00000000000E+00 0. -1.
         -3    1    3    3    0  502  0.28817329353E+01  0.68261420186E+02  0.32821394726E+03  0.33524963989E+03  0.00000000000E+00 0.  1.
         11    1    5    5    0    0 -0.57423577986E+02 -0.19764370163E+03  0.32716092456E+03  0.38651619716E+03  0.00000000000E+00 0.  1.
        -11    1    5    5    0    0 -0.19861142492E+03 -0.32018710695E+03  0.73588385635E+03  0.82673534556E+03  0.00000000000E+00 0. -1.
          4    1    6    6  503    0  0.83780421724E+02  0.13304099162E+03 -0.19535802322E+02  0.15843204249E+03  0.00000000000E+00 0. -1.
         -4    1    6    6    0  503  0.40678007469E+00  0.72122569096E+02  0.44752371695E+02  0.84879945896E+02  0.00000000000E+00 0.  1.
<mgrwt>
<rscale>  0 0.16162591E+04</rscale>
<asrwt>0</asrwt>
<pdfrwt beam="1">  1        2 0.49961822E+00 0.16162591E+04</pdfrwt>
<pdfrwt beam="2">  1       -1 0.30938339E-01 0.16162591E+04</pdfrwt>
<totfact> 0.12827236E+01</totfact>
</mgrwt>
</event>
<event>
12    6  0.1395358E-007  0.2118386E+04  0.7818608E-02  0.8553187E-01
         -1   -1    0    0    0  501 -0.00000000000E+00  0.00000000000E+00  0.83877189155E+03  0.83877189155E+03  0.00000000000E+00 0.  1.
          2   -1    0    0  501    0  0.00000000000E+00 -0.00000000000E+00 -0.13375381812E+04  0.13375381812E+04  0.00000000000E+00 0. -1.
         24    2    1    2    0    0 -0.70711893133E+03 -0.47916125360E+03 -0.35117971450E+03  0.92698781973E+03  0.79790576169E+02 0.  0.
        254    2    1    2    0    0  0.70711893133E+03  0.47916125360E+03 -0.14758657518E+03  0.12493222530E+04  0.89967305437E+03 0.  0.
         23    2    4    4    0    0 -0.13156381453E+03  0.24062700525E+03 -0.22967914889E+03  0.36874083410E+03  0.89481273744E+02 0.  0.
         23    2    4    4    0    0  0.83868274586E+03  0.23853424835E+03  0.82092573706E+02  0.88058141894E+03  0.91635740175E+02 0.  0.
          2    1    3    3  502    0 -0.91512847478E+02 -0.83583542537E+02 -0.74955728208E+02  0.14484188285E+03  0.00000000000E+00 0. -1.
         -1    1    3    3    0  502 -0.61560608386E+03 -0.39557771107E+03 -0.27622398629E+03  0.78214593688E+03  0.00000000000E+00 0.  1.
         11    1    5    5    0    0 -0.22857792026E+02  0.56880207065E+02 -0.10478227665E+03  0.12139671376E+03  0.00000000000E+00 0. -1.
        -11    1    5    5    0    0 -0.10870602250E+03  0.18374679819E+03 -0.12489687224E+03  0.24734412034E+03  0.00000000000E+00 0.  1.
          4    1    6    6  503    0  0.58553231237E+03  0.19803794902E+03  0.86727490694E+02  0.62417047008E+03  0.00000000000E+00 0. -1.
         -4    1    6    6    0  503  0.25315043350E+03  0.40496299326E+02 -0.46349169881E+01  0.25641094886E+03  0.00000000000E+00 0.  1.
<mgrwt>
<rscale>  0 0.21183856E+04</rscale>
<asrwt>0</asrwt>
<pdfrwt beam="1">  1        2 0.20577510E+00 0.21183856E+04</pdfrwt>
<pdfrwt beam="2">  1       -1 0.12904183E+00 0.21183856E+04</pdfrwt>
<totfact> 0.85194033E+00</totfact>
</mgrwt>
</event>
<event>
12    6  0.1395358E-007  0.1421985E+04  0.7818608E-02  0.8938057E-01
          2   -1    0    0  501    0  0.00000000000E+00  0.00000000000E+00  0.11457998489E+04  0.11457998489E+04  0.00000000000E+00 0. -1.
         -1   -1    0    0    0  501 -0.00000000000E+00 -0.00000000000E+00 -0.44118549448E+03  0.44118549448E+03  0.00000000000E+00 0.  1.
         24    2    1    2    0    0  0.37322200179E+02 -0.77696035587E+02 -0.24799992003E+03  0.27414639307E+03  0.78883863541E+02 0.  0.
        254    2    1    2    0    0 -0.37322200179E+02  0.77696035587E+02  0.95261427441E+03  0.13128389503E+04  0.89924553543E+03 0.  0.
         23    2    4    4    0    0  0.24169342996E+02 -0.36938230449E+03  0.19973830058E+03  0.43039086943E+03  0.91178219763E+02 0.  0.
         23    2    4    4    0    0 -0.61491543175E+02  0.44707834008E+03  0.75287597384E+03  0.88244808085E+03  0.90731093696E+02 0.  0.
          4    1    3    3  502    0  0.38232020333E+02 -0.25126228495E+02 -0.43980528150E+02  0.63461024207E+02  0.00000000000E+00 0. -1.
         -3    1    3    3    0  502 -0.90982015342E+00 -0.52569807092E+02 -0.20401939188E+03  0.21068536886E+03  0.00000000000E+00 0.  1.
         11    1    5    5    0    0  0.11564094708E+02 -0.31228565219E+03  0.20160781846E+03  0.37188945846E+03  0.00000000000E+00 0.  1.
        -11    1    5    5    0    0  0.12605248288E+02 -0.57096652302E+02 -0.18695178804E+01  0.58501410971E+02  0.00000000000E+00 0. -1.
          3    1    6    6  503    0 -0.21993605306E+02  0.15572400951E+03  0.34983438784E+03  0.38355936272E+03  0.00000000000E+00 0. -1.
         -3    1    6    6    0  503 -0.39497937869E+02  0.29135433057E+03  0.40304158600E+03  0.49888871813E+03  0.00000000000E+00 0.  1.
<mgrwt>
<rscale>  0 0.14219849E+04</rscale>
<asrwt>0</asrwt>
<pdfrwt beam="1">  1        2 0.17627690E+00 0.14219849E+04</pdfrwt>
<pdfrwt beam="2">  1       -1 0.67874692E-01 0.14219849E+04</pdfrwt>
<totfact> 0.49743839E+01</totfact>
</mgrwt>
</event>
<event>
12    6  0.1395358E-007  0.2790400E+04  0.7818608E-02  0.8306255E-01
         -1   -1    0    0    0  501 -0.00000000000E+00  0.00000000000E+00  0.21944659274E+04  0.21944659274E+04  0.00000000000E+00 0.  1.
          2   -1    0    0  501    0  0.00000000000E+00 -0.00000000000E+00 -0.88704163224E+03  0.88704163224E+03  0.00000000000E+00 0. -1.
         24    2    1    2    0    0  0.35953891582E+03 -0.10722303585E+04  0.11703522584E+04  0.16297250640E+04  0.85634116231E+02 0.  0.
        254    2    1    2    0    0 -0.35953891582E+03  0.10722303585E+04  0.13707203672E+03  0.14517824956E+04  0.89996527569E+03 0.  0.
         23    2    4    4    0    0  0.24119045712E+03  0.62004419200E+03 -0.44167370008E+02  0.67299247444E+03  0.91326214479E+02 0.  0.
         23    2    4    4    0    0 -0.60072937294E+03  0.45218616653E+03  0.18123940673E+03  0.77879002112E+03  0.91203430443E+02 0.  0.
          2    1    3    3  502    0  0.23207235075E+03 -0.58739036802E+03  0.69035456233E+03  0.93566791232E+03  0.00000000000E+00 0. -1.
         -1    1    3    3    0  502  0.12746656507E+03 -0.48483999051E+03  0.47999769606E+03  0.69405715170E+03  0.00000000000E+00 0.  1.
         11    1    5    5    0    0  0.20378302882E+03  0.45734168342E+03 -0.64442070092E+02  0.50481850068E+03  0.00000000000E+00 0. -1.
        -11    1    5    5    0    0  0.37407428301E+02  0.16270250858E+03  0.20274700084E+02  0.16817397377E+03  0.00000000000E+00 0.  1.
          4    1    6    6  503    0 -0.22380450936E+03  0.17262548943E+03  0.23136675288E+02  0.28359006286E+03  0.00000000000E+00 0.  1.
         -4    1    6    6    0  503 -0.37692486359E+03  0.27956067710E+03  0.15810273144E+03  0.49519995826E+03  0.00000000000E+00 0. -1.
<mgrwt>
<rscale>  0 0.27903997E+04</rscale>
<asrwt>0</asrwt>
<pdfrwt beam="1">  1        2 0.13646794E+00 0.27903997E+04</pdfrwt>
<pdfrwt beam="2">  1       -1 0.33761014E+00 0.27903997E+04</pdfrwt>
<totfact> 0.55731792E-01</totfact>
</mgrwt>
</event>
<event>
12    6  0.1395358E-007  0.3898771E+04  0.7818608E-02  0.8025285E-01
          2   -1    0    0  501    0  0.00000000000E+00  0.00000000000E+00  0.15585639990E+04  0.15585639990E+04  0.00000000000E+00 0. -1.
         -1   -1    0    0    0  501 -0.00000000000E+00 -0.00000000000E+00 -0.24382079508E+04  0.24382079508E+04  0.00000000000E+00 0.  1.
         24    2    1    2    0    0  0.73910189879E+03  0.16386082554E+04  0.87456905911E+01  0.17994068816E+04  0.80498491430E+02 0.  0.
        254    2    1    2    0    0 -0.73910189879E+03 -0.16386082554E+04 -0.88838964242E+03  0.21973650683E+04  0.89881502832E+03 0.  0.
         23    2    4    4    0    0  0.15426599576E+03 -0.67501390083E+02 -0.28655157081E+02  0.19393646555E+03  0.91846608711E+02 0.  0.
         23    2    4    4    0    0 -0.89336789455E+03 -0.15711068653E+04 -0.85973448534E+03  0.20034286027E+04  0.89998909699E+02 0.  0.
          4    1    3    3  502    0  0.68752222961E+02  0.20465655062E+03  0.15969869526E+02  0.21648604714E+03  0.00000000000E+00 0. -1.
         -3    1    3    3    0  502  0.67034967582E+03  0.14339517047E+04 -0.72241789352E+01  0.15829208345E+04  0.00000000000E+00 0.  1.
         11    1    5    5    0    0  0.86158998754E+02  0.94552069291E+01 -0.28268721076E+02  0.91169592495E+02  0.00000000000E+00 0. -1.
        -11    1    5    5    0    0  0.68106997007E+02 -0.76956597012E+02 -0.38643600500E+00  0.10276687306E+03  0.00000000000E+00 0.  1.
          3    1    6    6  503    0 -0.14080479271E+03 -0.23711236205E+03 -0.96492548727E+02  0.29216275232E+03  0.00000000000E+00 0. -1.
         -3    1    6    6    0  503 -0.75256310184E+03 -0.13339945032E+04 -0.76324193661E+03  0.17112658504E+04  0.00000000000E+00 0.  1.
<mgrwt>
<rscale>  0 0.38987706E+04</rscale>
<asrwt>0</asrwt>
<pdfrwt beam="1">  1        2 0.23977908E+00 0.38987706E+04</pdfrwt>
<pdfrwt beam="2">  1       -1 0.37510892E+00 0.38987706E+04</pdfrwt>
<totfact> 0.11242021E-01</totfact>
</mgrwt>
</event>
<event>
12    6  0.1395358E-007  0.1620682E+04  0.7818608E-02  0.8807942E-01
         -1   -1    0    0    0  501 -0.00000000000E+00  0.00000000000E+00  0.24980583515E+03  0.24980583515E+03  0.00000000000E+00 0.  1.
          2   -1    0    0  501    0  0.00000000000E+00 -0.00000000000E+00 -0.26286516162E+04  0.26286516162E+04  0.00000000000E+00 0. -1.
         24    2    1    2    0    0  0.42733911363E+03  0.34726355223E+03 -0.68629500985E+03  0.88347193647E+03  0.79442616006E+02 0.  0.
        254    2    1    2    0    0 -0.42733911363E+03 -0.34726355223E+03 -0.16925507712E+04  0.19949855149E+04  0.90112618360E+03 0.  0.
         23    2    4    4    0    0  0.21562561420E+03  0.10041319202E+03 -0.55389384756E+03  0.60975866514E+03  0.91815144282E+02 0.  0.
         23    2    4    4    0    0 -0.64296472783E+03 -0.44767674426E+03 -0.11386569237E+04  0.13852268498E+04  0.92172267617E+02 0.  0.
          4    1    3    3  502    0  0.32352103124E+03  0.25658823434E+03 -0.56537867594E+03  0.70011172456E+03  0.00000000000E+00 0. -1.
         -3    1    3    3    0  502  0.10381808239E+03  0.90675317897E+02 -0.12091633392E+03  0.18336021192E+03  0.00000000000E+00 0.  1.
         11    1    5    5    0    0  0.21283313425E+03  0.73227938509E+02 -0.46239551207E+03  0.51426635472E+03  0.00000000000E+00 0.  1.
        -11    1    5    5    0    0  0.27924799543E+01  0.27185253514E+02 -0.91498335487E+02  0.95492310422E+02  0.00000000000E+00 0. -1.
          4    1    6    6  503    0 -0.30967850775E+03 -0.24886675880E+03 -0.51073126694E+03  0.64705631040E+03  0.00000000000E+00 0. -1.
         -4    1    6    6    0  503 -0.33328622008E+03 -0.19880998545E+03 -0.62792565673E+03  0.73817053936E+03  0.00000000000E+00 0.  1.
<mgrwt>
<rscale>  0 0.16206820E+04</rscale>
<asrwt>0</asrwt>
<pdfrwt beam="1">  1        2 0.40440795E+00 0.16206820E+04</pdfrwt>
<pdfrwt beam="2">  1       -1 0.38431666E-01 0.16206820E+04</pdfrwt>
<totfact> 0.20971239E+01</totfact>
</mgrwt>
</event>
<event>
12    6  0.1395358E-007  0.1394141E+04  0.7818608E-02  0.8958071E-01
          2   -1    0    0  501    0  0.00000000000E+00  0.00000000000E+00  0.17897627939E+04  0.17897627939E+04  0.00000000000E+00 0. -1.
         -1   -1    0    0    0  501 -0.00000000000E+00 -0.00000000000E+00 -0.27149250816E+03  0.27149250816E+03  0.00000000000E+00 0.  1.
         24    2    1    2    0    0 -0.29686284224E+03 -0.22381523078E+03  0.66783333284E+03  0.76866314011E+03  0.81368654169E+02 0.  0.
        254    2    1    2    0    0  0.29686284224E+03  0.22381523078E+03  0.85043695288E+03  0.12925921619E+04  0.89962807961E+03 0.  0.
         23    2    4    4    0    0 -0.46735410783E+02 -0.22738827616E+03 -0.19642862809E+02  0.25004233678E+03  0.90805844357E+02 0.  0.
         23    2    4    4    0    0  0.34359825302E+03  0.45120350694E+03  0.87007981568E+03  0.10425498251E+04  0.90702194535E+02 0.  0.
          4    1    3    3  502    0 -0.10782365264E+03 -0.13192268230E+03  0.29627227570E+03  0.34177009161E+03  0.00000000000E+00 0. -1.
         -3    1    3    3    0  502 -0.18903918960E+03 -0.91892548474E+02  0.37156105714E+03  0.42689304849E+03  0.00000000000E+00 0.  1.
         11    1    5    5    0    0 -0.33833496045E+02 -0.54847370852E+02  0.28474258465E+02  0.70453693581E+02  0.00000000000E+00 0.  1.
        -11    1    5    5    0    0 -0.12901914738E+02 -0.17254090531E+03 -0.48117121273E+02  0.17958864320E+03  0.00000000000E+00 0. -1.
          2    1    6    6  503    0  0.33745408169E+03  0.45066475911E+03  0.83591830262E+03  0.10078359941E+04  0.00000000000E+00 0. -1.
         -2    1    6    6    0  503  0.61441713275E+01  0.53874782416E+00  0.34161513065E+02  0.34713831039E+02  0.00000000000E+00 0.  1.
<mgrwt>
<rscale>  0 0.13941409E+04</rscale>
<asrwt>0</asrwt>
<pdfrwt beam="1">  1        2 0.27534811E+00 0.13941409E+04</pdfrwt>
<pdfrwt beam="2">  1       -1 0.41768079E-01 0.13941409E+04</pdfrwt>
<totfact> 0.54553402E+01</totfact>
</mgrwt>
</event>
<event>
12    6  0.1395358E-007  0.1487699E+04  0.7818608E-02  0.8892674E-01
          2   -1    0    0  501    0  0.00000000000E+00  0.00000000000E+00  0.82679278597E+03  0.82679278597E+03  0.00000000000E+00 0. -1.
         -1   -1    0    0    0  501 -0.00000000000E+00 -0.00000000000E+00 -0.66922737143E+03  0.66922737143E+03  0.00000000000E+00 0.  1.
         24    2    1    2    0    0 -0.89569440044E+02  0.45770950776E+03  0.11872610912E+03  0.48780340606E+03  0.79596456574E+02 0.  0.
        254    2    1    2    0    0  0.89569440044E+02 -0.45770950776E+03  0.38839305425E+02  0.10082167513E+04  0.89301279270E+03 0.  0.
         23    2    4    4    0    0 -0.32494335690E+03  0.38770874631E+02  0.94497675517E+02  0.35270508390E+03  0.91540699254E+02 0.  0.
         23    2    4    4    0    0  0.41451279694E+03 -0.49648038239E+03 -0.55658370092E+02  0.65551166743E+03  0.91016828366E+02 0.  0.
          2    1    3    3  502    0 -0.35144033749E+02  0.30680720115E+03  0.10751819163E+03  0.32699529556E+03  0.00000000000E+00 0. -1.
         -1    1    3    3    0  502 -0.54425406296E+02  0.15090230661E+03  0.11207917488E+02  0.16080811051E+03  0.00000000000E+00 0.  1.
         11    1    5    5    0    0 -0.73204198878E+02 -0.10462413899E+02 -0.12095343728E+02  0.74930729196E+02  0.00000000000E+00 0. -1.
        -11    1    5    5    0    0 -0.25173915802E+03  0.49233288530E+02  0.10659301924E+03  0.27777435471E+03  0.00000000000E+00 0.  1.
          1    1    6    6  503    0  0.26420794729E+03 -0.27543373051E+03  0.37369046043E+01  0.38168513695E+03  0.00000000000E+00 0. -1.
         -1    1    6    6    0  503  0.15030484965E+03 -0.22104665188E+03 -0.59395274696E+02  0.27382653048E+03  0.00000000000E+00 0.  1.
<mgrwt>
<rscale>  0 0.14876994E+04</rscale>
<asrwt>0</asrwt>
<pdfrwt beam="1">  1        2 0.12719889E+00 0.14876994E+04</pdfrwt>
<pdfrwt beam="2">  1       -1 0.10295806E+00 0.14876994E+04</pdfrwt>
<totfact> 0.32434786E+01</totfact>
</mgrwt>
</event>
<event>
12    6  0.1395358E-007  0.1949615E+04  0.7818608E-02  0.8630546E-01
          2   -1    0    0  501    0  0.00000000000E+00  0.00000000000E+00  0.10906553286E+04  0.10906553286E+04  0.00000000000E+00 0. -1.
         -1   -1    0    0    0  501 -0.00000000000E+00 -0.00000000000E+00 -0.87126515260E+03  0.87126515260E+03  0.00000000000E+00 0.  1.
         24    2    1    2    0    0 -0.61107437486E+03  0.16237649724E+03  0.51947862210E+03  0.82235021469E+03  0.81386843689E+02 0.  0.
        254    2    1    2    0    0  0.61107437486E+03 -0.16237649724E+03 -0.30008844609E+03  0.11395702665E+04  0.89932713647E+03 0.  0.
         23    2    4    4    0    0 -0.23707445326E+02  0.20177418988E+03 -0.33378552459E+03  0.40125236078E+03  0.91191084738E+02 0.  0.
         23    2    4    4    0    0  0.63478182019E+03 -0.36415068712E+03  0.33697078505E+02  0.73831790574E+03  0.91783193836E+02 0.  0.
          2    1    3    3  502    0 -0.25782615134E+03  0.30903511404E+02  0.23355011988E+03  0.34924920877E+03  0.00000000000E+00 0. -1.
         -1    1    3    3    0  502 -0.35324822352E+03  0.13147298583E+03  0.28592850221E+03  0.47310100592E+03  0.00000000000E+00 0.  1.
         11    1    5    5    0    0 -0.34300957020E+02  0.13302242675E+03 -0.14352139450E+03  0.19867036102E+03  0.00000000000E+00 0.  1.
        -11    1    5    5    0    0  0.10593511694E+02  0.68751763137E+02 -0.19026413010E+03  0.20258199976E+03  0.00000000000E+00 0. -1.
          3    1    6    6  503    0  0.54319475385E+03 -0.33753466882E+03  0.50336001253E+02  0.64150129095E+03  0.00000000000E+00 0. -1.
         -3    1    6    6    0  503  0.91587066334E+02 -0.26616018303E+02 -0.16638922748E+02  0.96816614794E+02  0.00000000000E+00 0.  1.
<mgrwt>
<rscale>  0 0.19496153E+04</rscale>
<asrwt>0</asrwt>
<pdfrwt beam="1">  1        2 0.16779313E+00 0.19496153E+04</pdfrwt>
<pdfrwt beam="2">  1       -1 0.13404079E+00 0.19496153E+04</pdfrwt>
<totfact> 0.11020721E+01</totfact>
</mgrwt>
</event>
<event>
12    6  0.1395358E-007  0.1288392E+04  0.7818608E-02  0.9038822E-01
          2   -1    0    0  501    0  0.00000000000E+00  0.00000000000E+00  0.11045795308E+04  0.11045795308E+04  0.00000000000E+00 0. -1.
         -1   -1    0    0    0  501 -0.00000000000E+00 -0.00000000000E+00 -0.37569795537E+03  0.37569795537E+03  0.00000000000E+00 0.  1.
         24    2    1    2    0    0  0.88813261930E+02  0.17633185980E+02  0.54390198156E+03  0.55750724582E+03  0.82378631070E+02 0.  0.
        254    2    1    2    0    0 -0.88813261930E+02 -0.17633185980E+02  0.18497959392E+03  0.92277024039E+03  0.89949360289E+03 0.  0.
         23    2    4    4    0    0 -0.21876009734E+03  0.10681666675E+02 -0.31663401600E+03  0.39551426815E+03  0.90577911368E+02 0.  0.
         23    2    4    4    0    0  0.12994683541E+03 -0.28314852656E+02  0.50161360992E+03  0.52725597224E+03  0.93245566617E+02 0.  0.
          4    1    3    3  502    0  0.11697397188E+02  0.32682434036E+00  0.31734205963E+03  0.31755774077E+03  0.00000000000E+00 0. -1.
         -3    1    3    3    0  502  0.77115864742E+02  0.17306361640E+02  0.22655992193E+03  0.23994950505E+03  0.00000000000E+00 0.  1.
         11    1    5    5    0    0 -0.11854707055E+03 -0.39377792017E+02 -0.17189167068E+03  0.21248709347E+03  0.00000000000E+00 0. -1.
        -11    1    5    5    0    0 -0.10021302679E+03  0.50059458692E+02 -0.14474234532E+03  0.18302717468E+03  0.00000000000E+00 0.  1.
          2    1    6    6  503    0  0.14353743319E+03 -0.24478731505E+02  0.42238765033E+03  0.44678130016E+03  0.00000000000E+00 0. -1.
         -2    1    6    6    0  503 -0.13590597780E+02 -0.38361211509E+01  0.79225959589E+02  0.80474672079E+02  0.00000000000E+00 0.  1.
<mgrwt>
<rscale>  0 0.12883917E+04</rscale>
<asrwt>0</asrwt>
<pdfrwt beam="1">  1        2 0.16993531E+00 0.12883917E+04</pdfrwt>
<pdfrwt beam="2">  1       -1 0.57799686E-01 0.12883917E+04</pdfrwt>
<totfact> 0.73415164E+01</totfact>
</mgrwt>
</event>
<event>
12    6  0.1395358E-007  0.2293610E+04  0.7818608E-02  0.8480445E-01
          2   -1    0    0  501    0  0.00000000000E+00  0.00000000000E+00  0.88234422346E+03  0.88234422346E+03  0.00000000000E+00 0. -1.
         -1   -1    0    0    0  501 -0.00000000000E+00 -0.00000000000E+00 -0.14905307680E+04  0.14905307680E+04  0.00000000000E+00 0.  1.
         24    2    1    2    0    0  0.33954635074E+03  0.89918580475E+03 -0.13530494354E+03  0.97388398159E+03  0.79471668502E+02 0.  0.
        254    2    1    2    0    0 -0.33954635074E+03 -0.89918580475E+03 -0.47288160101E+03  0.13989910099E+04  0.89985109959E+03 0.  0.
         23    2    4    4    0    0  0.11169441999E+02 -0.35393472290E+03 -0.62721849142E+03  0.72642003184E+03  0.94278747205E+02 0.  0.
         23    2    4    4    0    0 -0.35071579274E+03 -0.54525108185E+03  0.15433689040E+03  0.67257097805E+03  0.90727808593E+02 0.  0.
          4    1    3    3  502    0  0.18246101971E+03  0.39102775404E+03 -0.83236039937E+02  0.43945758213E+03  0.00000000000E+00 0. -1.
         -3    1    3    3    0  502  0.15708533102E+03  0.50815805071E+03 -0.52068903603E+02  0.53442639946E+03  0.00000000000E+00 0.  1.
         11    1    5    5    0    0 -0.49012120932E+01 -0.13476060109E+03 -0.33235417373E+03  0.35866939970E+03  0.00000000000E+00 0.  1.
        -11    1    5    5    0    0  0.16070654092E+02 -0.21917412181E+03 -0.29486431769E+03  0.36775063214E+03  0.00000000000E+00 0. -1.
          1    1    6    6  503    0 -0.28041245005E+03 -0.45112625107E+03  0.90381474134E+02  0.53880872990E+03  0.00000000000E+00 0.  1.
         -1    1    6    6    0  503 -0.70303342683E+02 -0.94124830774E+02  0.63955416269E+02  0.13376224815E+03  0.00000000000E+00 0. -1.
<mgrwt>
<rscale>  0 0.22936096E+04</rscale>
<asrwt>0</asrwt>
<pdfrwt beam="1">  1        2 0.13574527E+00 0.22936096E+04</pdfrwt>
<pdfrwt beam="2">  1       -1 0.22931242E+00 0.22936096E+04</pdfrwt>
<totfact> 0.29749411E+00</totfact>
</mgrwt>
</event>
<event>
12    6  0.1395358E-007  0.2882999E+04  0.7818608E-02  0.8277954E-01
          2   -1    0    0  501    0  0.00000000000E+00  0.00000000000E+00  0.29880307074E+04  0.29880307074E+04  0.00000000000E+00 0. -1.
         -1   -1    0    0    0  501 -0.00000000000E+00 -0.00000000000E+00 -0.69541462190E+03  0.69541462190E+03  0.00000000000E+00 0.  1.
         24    2    1    2    0    0 -0.11377256559E+04 -0.62930275231E+03  0.10320249909E+04  0.16617474209E+04  0.76728656090E+02 0.  0.
        254    2    1    2    0    0  0.11377256559E+04  0.62930275231E+03  0.12605910946E+04  0.20216979085E+04  0.89873850647E+03 0.  0.
         23    2    4    4    0    0  0.25767857911E+03  0.56956594893E+03  0.80867820734E+03  0.10264885755E+04  0.94417859854E+02 0.  0.
         23    2    4    4    0    0  0.88004707682E+03  0.59736803383E+02  0.45191288729E+03  0.99520933299E+03  0.90360476204E+02 0.  0.
          4    1    3    3  502    0 -0.80992999508E+03 -0.44126774766E+03  0.77517806779E+03  0.12048256550E+04  0.00000000000E+00 0. -1.
         -3    1    3    3    0  502 -0.32779566085E+03 -0.18803500465E+03  0.25684692310E+03  0.45692176589E+03  0.00000000000E+00 0.  1.
         11    1    5    5    0    0  0.21146697231E+03  0.50597941158E+03  0.74641258302E+03  0.92621012163E+03  0.00000000000E+00 0.  1.
        -11    1    5    5    0    0  0.46211606794E+02  0.63586537351E+02  0.62265624315E+02  0.10027845385E+03  0.00000000000E+00 0. -1.
          2    1    6    6  503    0  0.55817522758E+03  0.52440935561E+02  0.24046136908E+03  0.61002566046E+03  0.00000000000E+00 0.  1.
         -2    1    6    6    0  503  0.32187184925E+03  0.72958678225E+01  0.21145151822E+03  0.38518367253E+03  0.00000000000E+00 0. -1.
<mgrwt>
<rscale>  0 0.28829986E+04</rscale>
<asrwt>0</asrwt>
<pdfrwt beam="1">  1        2 0.45969702E+00 0.28829986E+04</pdfrwt>
<pdfrwt beam="2">  1       -1 0.10698687E+00 0.28829986E+04</pdfrwt>
<totfact> 0.14169655E+00</totfact>
</mgrwt>
</event>
<event>
12    6  0.1395358E-007  0.2256176E+04  0.7818608E-02  0.8495403E-01
          4   -1    0    0  501    0  0.00000000000E+00  0.00000000000E+00  0.53932094621E+03  0.53932094621E+03  0.00000000000E+00 0. -1.
         -3   -1    0    0    0  501 -0.00000000000E+00 -0.00000000000E+00 -0.23596018097E+04  0.23596018097E+04  0.00000000000E+00 0.  1.
         24    2    1    2    0    0 -0.47857273939E+03  0.81637823417E+03 -0.82268374490E+03  0.12563966932E+04  0.78859485309E+02 0.  0.
        254    2    1    2    0    0  0.47857273939E+03 -0.81637823417E+03 -0.99759711857E+03  0.16425260627E+04  0.89843562239E+03 0.  0.
         23    2    4    4    0    0  0.25484889343E+03  0.92770461277E+02 -0.21479537148E+02  0.28651253086E+03  0.89854008583E+02 0.  0.
         23    2    4    4    0    0  0.22372384597E+03 -0.90914869545E+03 -0.97611758142E+03  0.13560135318E+04  0.96764952875E+02 0.  0.
          4    1    3    3  502    0 -0.13200933194E+03  0.16080305987E+03 -0.17950923199E+03  0.27478655744E+03  0.00000000000E+00 0. -1.
         -3    1    3    3    0  502 -0.34656340746E+03  0.65557517430E+03 -0.64317451291E+03  0.98161013575E+03  0.00000000000E+00 0.  1.
         11    1    5    5    0    0  0.64692066963E+02  0.34557562065E+02  0.32839388050E+02  0.80359903131E+02  0.00000000000E+00 0. -1.
        -11    1    5    5    0    0  0.19015682646E+03  0.58212899212E+02 -0.54318925198E+02  0.20615262773E+03  0.00000000000E+00 0.  1.
          2    1    6    6  503    0  0.79734184219E+02 -0.17876429777E+03 -0.23020303685E+03  0.30217156131E+03  0.00000000000E+00 0. -1.
         -2    1    6    6    0  503  0.14398966175E+03 -0.73038439767E+03 -0.74591454457E+03  0.10538419705E+04  0.00000000000E+00 0.  1.
<mgrwt>
<rscale>  0 0.22561761E+04</rscale>
<asrwt>0</asrwt>
<pdfrwt beam="1">  1        4 0.82972454E-01 0.22561761E+04</pdfrwt>
<pdfrwt beam="2">  1       -3 0.36301566E+00 0.22561761E+04</pdfrwt>
<totfact> 0.45107649E-02</totfact>
</mgrwt>
</event>
<event>
12    6  0.1395358E-007  0.1624310E+04  0.7818608E-02  0.8805751E-01
          2   -1    0    0  501    0  0.00000000000E+00  0.00000000000E+00  0.89827388487E+03  0.89827388487E+03  0.00000000000E+00 0. -1.
         -1   -1    0    0    0  501 -0.00000000000E+00 -0.00000000000E+00 -0.73429273679E+03  0.73429273679E+03  0.00000000000E+00 0.  1.
         24    2    1    2    0    0  0.55419201007E+03  0.63920439199E+02  0.96008887601E+02  0.57146539465E+03  0.78360603683E+02 0.  0.
        254    2    1    2    0    0 -0.55419201007E+03 -0.63920439199E+02  0.67972260485E+02  0.10611012270E+04  0.90005609781E+03 0.  0.
         23    2    4    4    0    0 -0.53302902630E+03 -0.25000296329E+03 -0.27790935783E+03  0.65749947381E+03  0.91926722792E+02 0.  0.
         23    2    4    4    0    0 -0.21162983768E+02  0.18608252409E+03  0.34588161831E+03  0.40360175320E+03  0.90474878528E+02 0.  0.
          4    1    3    3  502    0  0.32533612306E+03 -0.11938792662E+01  0.59756862868E+02  0.33078074457E+03  0.00000000000E+00 0. -1.
         -3    1    3    3    0  502  0.22885588701E+03  0.65114318465E+02  0.36252024733E+02  0.24068465008E+03  0.00000000000E+00 0.  1.
         11    1    5    5    0    0 -0.30325286591E+03 -0.16915630499E+03 -0.12084601907E+03  0.36766821528E+03  0.00000000000E+00 0. -1.
        -11    1    5    5    0    0 -0.22977616039E+03 -0.80846658297E+02 -0.15706333875E+03  0.28983125853E+03  0.00000000000E+00 0.  1.
          4    1    6    6  503    0 -0.28434300670E+01  0.18525206396E+03  0.28425217346E+03  0.33930179842E+03  0.00000000000E+00 0. -1.
         -4    1    6    6    0  503 -0.18319553701E+02  0.83046013779E+00  0.61629444854E+02  0.64299954781E+02  0.00000000000E+00 0.  1.
<mgrwt>
<rscale>  0 0.16243103E+04</rscale>
<asrwt>0</asrwt>
<pdfrwt beam="1">  1        2 0.13819598E+00 0.16243103E+04</pdfrwt>
<pdfrwt beam="2">  1       -1 0.11296811E+00 0.16243103E+04</pdfrwt>
<totfact> 0.23012331E+01</totfact>
</mgrwt>
</event>
<event>
12    6  0.1395358E-007  0.1163803E+04  0.7818608E-02  0.9145144E-01
          2   -1    0    0  501    0  0.00000000000E+00  0.00000000000E+00  0.16215158132E+04  0.16215158132E+04  0.00000000000E+00 0. -1.
         -1   -1    0    0    0  501 -0.00000000000E+00 -0.00000000000E+00 -0.20882257472E+03  0.20882257472E+03  0.00000000000E+00 0.  1.
         24    2    1    2    0    0  0.21572507059E+03  0.22474897270E+02  0.29212718248E+03  0.37717134408E+03  0.99385637591E+02 0.  0.
        254    2    1    2    0    0 -0.21572507059E+03 -0.22474897270E+02  0.11205660560E+04  0.14531670439E+04  0.89943523635E+03 0.  0.
         23    2    4    4    0    0  0.24470560456E+03 -0.27372709520E+03  0.34222855384E+03  0.51002383001E+03  0.90534902462E+02 0.  0.
         23    2    4    4    0    0 -0.46043067515E+03  0.25125219793E+03  0.77833750216E+03  0.94314321384E+03  0.92659489344E+02 0.  0.
          4    1    3    3  502    0  0.20823670327E+03  0.46541133422E+02  0.26145230902E+03  0.33746986766E+03  0.00000000000E+00 0. -1.
         -3    1    3    3    0  502  0.74883673251E+01 -0.24066236152E+02  0.30674873467E+02  0.39701476420E+02  0.00000000000E+00 0.  1.
         11    1    5    5    0    0  0.74907777185E+02 -0.83160961002E+02  0.51655672926E+02  0.12326892984E+03  0.00000000000E+00 0. -1.
        -11    1    5    5    0    0  0.16979782738E+03 -0.19056613419E+03  0.29057288092E+03  0.38675490017E+03  0.00000000000E+00 0.  1.
          3    1    6    6  503    0 -0.36570694972E+03  0.23957860673E+03  0.63677611739E+03  0.77241394702E+03  0.00000000000E+00 0. -1.
         -3    1    6    6    0  503 -0.94723725433E+02  0.11673591197E+02  0.14156138477E+03  0.17072926682E+03  0.00000000000E+00 0.  1.
<mgrwt>
<rscale>  0 0.11638026E+04</rscale>
<asrwt>0</asrwt>
<pdfrwt beam="1">  1        2 0.24946396E+00 0.11638026E+04</pdfrwt>
<pdfrwt beam="2">  1       -1 0.32126551E-01 0.11638026E+04</pdfrwt>
<totfact> 0.11047265E+02</totfact>
</mgrwt>
</event>
<event>
12    6  0.1395358E-007  0.2013138E+04  0.7818608E-02  0.8600503E-01
         -1   -1    0    0    0  501 -0.00000000000E+00  0.00000000000E+00  0.14147513567E+04  0.14147513567E+04  0.00000000000E+00 0.  1.
          2   -1    0    0  501    0  0.00000000000E+00 -0.00000000000E+00 -0.71615503772E+03  0.71615503772E+03  0.00000000000E+00 0. -1.
         24    2    1    2    0    0 -0.77431180185E+03 -0.10955301035E+03  0.42718199628E+03  0.89490886266E+03  0.82563829600E+02 0.  0.
        254    2    1    2    0    0  0.77431180185E+03  0.10955301035E+03  0.27141432272E+03  0.12359975318E+04  0.91785812381E+03 0.  0.
         23    2    4    4    0    0  0.74740616985E+03 -0.94402983669E+02  0.50513081331E+03  0.91134530396E+03  0.88686066797E+02 0.  0.
         23    2    4    4    0    0  0.26905632000E+02  0.20395599402E+03 -0.23371649060E+03  0.32465222782E+03  0.91944061929E+02 0.  0.
          2    1    3    3  502    0 -0.51819172605E+03 -0.39861688960E+02  0.25902848370E+03  0.58069559544E+03  0.00000000000E+00 0. -1.
         -1    1    3    3    0  502 -0.25612007580E+03 -0.69691321387E+02  0.16815351258E+03  0.31421326722E+03  0.00000000000E+00 0.  1.
         11    1    5    5    0    0  0.52501550590E+03 -0.61767309121E+02  0.30454306387E+03  0.61008438733E+03  0.00000000000E+00 0. -1.
        -11    1    5    5    0    0  0.22239066395E+03 -0.32635674548E+02  0.20058774944E+03  0.30126091664E+03  0.00000000000E+00 0.  1.
          3    1    6    6  503    0  0.12792661554E+02  0.12837820061E+03 -0.77398553903E+02  0.15044982794E+03  0.00000000000E+00 0. -1.
         -3    1    6    6    0  503  0.14112970446E+02  0.75577793403E+02 -0.15631793669E+03  0.17420239988E+03  0.00000000000E+00 0.  1.
<mgrwt>
<rscale>  0 0.20131382E+04</rscale>
<asrwt>0</asrwt>
<pdfrwt beam="1">  1        2 0.11017770E+00 0.20131382E+04</pdfrwt>
<pdfrwt beam="2">  1       -1 0.21765405E+00 0.20131382E+04</pdfrwt>
<totfact> 0.48109297E+00</totfact>
</mgrwt>
</event>
<event>
12    6  0.1395358E-007  0.2801445E+04  0.7818608E-02  0.8302820E-01
          2   -1    0    0  501    0  0.00000000000E+00  0.00000000000E+00  0.28723300098E+04  0.28723300098E+04  0.00000000000E+00 0. -1.
         -1   -1    0    0    0  501 -0.00000000000E+00 -0.00000000000E+00 -0.68307720549E+03  0.68307720549E+03  0.00000000000E+00 0.  1.
         24    2    1    2    0    0 -0.51493285692E+03 -0.10683229404E+04  0.46329195113E+03  0.12757548521E+04  0.80257451002E+02 0.  0.
        254    2    1    2    0    0  0.51493285692E+03  0.10683229404E+04  0.17259608532E+04  0.22796523632E+04  0.90077981663E+03 0.  0.
         23    2    4    4    0    0  0.76089347162E+03  0.70747531864E+03  0.11783089531E+04  0.15733431787E+04  0.86698140151E+02 0.  0.
         23    2    4    4    0    0 -0.24596061470E+03  0.36084762181E+03  0.54765190011E+03  0.70630918447E+03  0.90787830774E+02 0.  0.
          2    1    3    3  502    0 -0.53763941887E+02 -0.17862044335E+03  0.71956956671E+02  0.19993405874E+03  0.00000000000E+00 0. -1.
         -1    1    3    3    0  502 -0.46116891504E+03 -0.88970249710E+03  0.39133499446E+03  0.10758207934E+04  0.00000000000E+00 0.  1.
         11    1    5    5    0    0  0.44430330738E+03  0.46739842850E+03  0.70808538019E+03  0.95773254385E+03  0.00000000000E+00 0.  1.
        -11    1    5    5    0    0  0.31659016424E+03  0.24007689014E+03  0.47022357289E+03  0.61561063488E+03  0.00000000000E+00 0. -1.
          1    1    6    6  503    0 -0.20779957465E+03  0.34301362572E+03  0.51649402768E+03  0.65391520191E+03  0.00000000000E+00 0. -1.
         -1    1    6    6    0  503 -0.38161040046E+02  0.17833996086E+02  0.31157872432E+02  0.52393982558E+02  0.00000000000E+00 0.  1.
<mgrwt>
<rscale>  0 0.28014447E+04</rscale>
<asrwt>0</asrwt>
<pdfrwt beam="1">  1        2 0.44189692E+00 0.28014447E+04</pdfrwt>
<pdfrwt beam="2">  1       -1 0.10508880E+00 0.28014447E+04</pdfrwt>
<totfact> 0.17548225E+00</totfact>
</mgrwt>
</event>
<event>
12    6  0.1395358E-007  0.3221596E+04  0.7818608E-02  0.8183137E-01
         -1   -1    0    0    0  501 -0.00000000000E+00  0.00000000000E+00  0.19147115566E+04  0.19147115566E+04  0.00000000000E+00 0.  1.
          2   -1    0    0  501    0  0.00000000000E+00 -0.00000000000E+00 -0.13551231485E+04  0.13551231485E+04  0.00000000000E+00 0. -1.
         24    2    1    2    0    0  0.97737666815E+03 -0.10648383630E+04  0.61100612349E+03  0.15710573598E+04  0.75808006955E+02 0.  0.
        254    2    1    2    0    0 -0.97737666815E+03  0.10648383630E+04 -0.51417715362E+02  0.16987773453E+04  0.89109752360E+03 0.  0.
         23    2    4    4    0    0  0.23093822264E+02  0.13105032470E+02 -0.21514296760E+03  0.23502345997E+03  0.90799029326E+02 0.  0.
         23    2    4    4    0    0 -0.10004704904E+04  0.10517333305E+04  0.16372525223E+03  0.14637538853E+04  0.93194837585E+02 0.  0.
          2    1    3    3  502    0  0.63117378775E+03 -0.72117928506E+03  0.37460951569E+03  0.10289860061E+04  0.00000000000E+00 0. -1.
         -1    1    3    3    0  502  0.34620288040E+03 -0.34365907796E+03  0.23639660780E+03  0.54207135364E+03  0.00000000000E+00 0.  1.
         11    1    5    5    0    0 -0.11740939117E+02 -0.14978611177E+02 -0.17138416871E+03  0.17243764591E+03  0.00000000000E+00 0.  1.
        -11    1    5    5    0    0  0.34834761381E+02  0.28083643646E+02 -0.43758798889E+02  0.62585814057E+02  0.00000000000E+00 0. -1.
          1    1    6    6  503    0 -0.32472271082E+03  0.29348471684E+03  0.76714344064E+02  0.44436832530E+03  0.00000000000E+00 0. -1.
         -1    1    6    6    0  503 -0.67574777960E+03  0.75824861370E+03  0.87010908169E+02  0.10193855600E+04  0.00000000000E+00 0.  1.
<mgrwt>
<rscale>  0 0.32215958E+04</rscale>
<asrwt>0</asrwt>
<pdfrwt beam="1">  1        2 0.20848048E+00 0.32215958E+04</pdfrwt>
<pdfrwt beam="2">  1       -1 0.29457101E+00 0.32215958E+04</pdfrwt>
<totfact> 0.52640831E-01</totfact>
</mgrwt>
</event>
<event>
12    6  0.1395358E-007  0.2126855E+04  0.7818608E-02  0.8549505E-01
         -3   -1    0    0    0  501 -0.00000000000E+00  0.00000000000E+00  0.60774840502E+03  0.60774840502E+03  0.00000000000E+00 0.  1.
          2   -1    0    0  501    0  0.00000000000E+00 -0.00000000000E+00 -0.18607668043E+04  0.18607668043E+04  0.00000000000E+00 0. -1.
         24    2    1    2    0    0  0.59415694323E+03  0.40115210114E+03 -0.10904058738E+04  0.13074045372E+04  0.79850941212E+02 0.  0.
        254    2    1    2    0    0 -0.59415694323E+03 -0.40115210114E+03 -0.16261252544E+03  0.11611106721E+04  0.89877120446E+03 0.  0.
         23    2    4    4    0    0 -0.29186260678E+03  0.16821085689E+03  0.21413504441E+03  0.40934995262E+03  0.90746310395E+02 0.  0.
         23    2    4    4    0    0 -0.30229433645E+03 -0.56936295803E+03 -0.37674756986E+03  0.75176071947E+03  0.87460871955E+02 0.  0.
          4    1    3    3  502    0  0.53332062054E+02  0.55530882672E+02 -0.15365810760E+03  0.17186855968E+03  0.00000000000E+00 0. -1.
         -3    1    3    3    0  502  0.54082488118E+03  0.34562121847E+03 -0.93674776623E+03  0.11355359775E+04  0.00000000000E+00 0.  1.
         11    1    5    5    0    0 -0.26767387372E+03  0.11987681411E+03  0.16620920640E+03  0.33711311681E+03  0.00000000000E+00 0.  1.
        -11    1    5    5    0    0 -0.24188733061E+02  0.48334042776E+02  0.47925838010E+02  0.72236835805E+02  0.00000000000E+00 0. -1.
          1    1    6    6  503    0 -0.31189749441E+02 -0.37294078331E+02 -0.62773407568E+01  0.49020952212E+02  0.00000000000E+00 0. -1.
         -1    1    6    6    0  503 -0.27110458701E+03 -0.53206887970E+03 -0.37047022910E+03  0.70273976726E+03  0.00000000000E+00 0.  1.
<mgrwt>
<rscale>  0 0.21268550E+04</rscale>
<asrwt>0</asrwt>
<pdfrwt beam="1">  1        2 0.28627182E+00 0.21268550E+04</pdfrwt>
<pdfrwt beam="2">  1       -3 0.93499755E-01 0.21268550E+04</pdfrwt>
<totfact> 0.47828086E+00</totfact>
</mgrwt>
</event>
<event>
12    6  0.1395358E-007  0.1953255E+04  0.7818608E-02  0.8628793E-01
         -1   -1    0    0    0  501 -0.00000000000E+00  0.00000000000E+00  0.13142910733E+04  0.13142910733E+04  0.00000000000E+00 0.  1.
          2   -1    0    0  501    0  0.00000000000E+00 -0.00000000000E+00 -0.72571516087E+03  0.72571516087E+03  0.00000000000E+00 0. -1.
         24    2    1    2    0    0 -0.59147421502E+03  0.20125411375E+02 -0.27747502844E+03  0.65806373846E+03  0.76214914857E+02 0.  0.
        254    2    1    2    0    0  0.59147421502E+03 -0.20125411375E+02  0.86605094087E+03  0.13819424957E+04  0.89970775815E+03 0.  0.
         23    2    4    4    0    0 -0.23547626341E+02  0.25754251701E+03  0.58189494858E+03  0.64354641836E+03  0.93100067805E+02 0.  0.
         23    2    4    4    0    0  0.61502184136E+03 -0.27766792839E+03  0.28415599229E+03  0.73839607736E+03  0.95565659642E+02 0.  0.
          4    1    3    3  502    0 -0.16454182165E+03  0.39391697958E+02 -0.85277471198E+02  0.18946758043E+03  0.00000000000E+00 0. -1.
         -3    1    3    3    0  502 -0.42693239337E+03 -0.19266286583E+02 -0.19219755724E+03  0.46859615803E+03  0.00000000000E+00 0.  1.
         11    1    5    5    0    0 -0.44241852129E+02  0.16113813814E+03  0.28125204638E+03  0.32714760374E+03  0.00000000000E+00 0. -1.
        -11    1    5    5    0    0  0.20694225788E+02  0.96404378874E+02  0.30064290220E+03  0.31639881461E+03  0.00000000000E+00 0.  1.
          3    1    6    6  503    0  0.10666368679E+03 -0.13406558770E+02  0.60423464413E+02  0.12332020495E+03  0.00000000000E+00 0. -1.
         -3    1    6    6    0  503  0.50835815457E+03 -0.26426136962E+03  0.22373252788E+03  0.61507587241E+03  0.00000000000E+00 0.  1.
<mgrwt>
<rscale>  0 0.19532547E+04</rscale>
<asrwt>0</asrwt>
<pdfrwt beam="1">  1        2 0.11164849E+00 0.19532547E+04</pdfrwt>
<pdfrwt beam="2">  1       -1 0.20219863E+00 0.19532547E+04</pdfrwt>
<totfact> 0.60536679E+00</totfact>
</mgrwt>
</event>
<event>
12    6  0.1395358E-007  0.1227437E+04  0.7818608E-02  0.9089175E-01
         -1   -1    0    0    0  501 -0.00000000000E+00  0.00000000000E+00  0.23152289948E+03  0.23152289948E+03  0.00000000000E+00 0.  1.
          2   -1    0    0  501    0  0.00000000000E+00 -0.00000000000E+00 -0.16268375032E+04  0.16268375032E+04  0.00000000000E+00 0. -1.
         24    2    1    2    0    0  0.18333423661E+03  0.10411844943E+03 -0.62136801863E+02  0.23377995840E+03  0.79624072867E+02 0.  0.
        254    2    1    2    0    0 -0.18333423661E+03 -0.10411844943E+03 -0.13331778019E+04  0.16245804443E+04  0.90412746598E+03 0.  0.
         23    2    4    4    0    0  0.31654713885E+03 -0.12542110834E+03 -0.86223920671E+03  0.93146891664E+03  0.90803896081E+02 0.  0.
         23    2    4    4    0    0 -0.49988137546E+03  0.21302658909E+02 -0.47093859517E+03  0.69311152766E+03  0.91023274769E+02 0.  0.
          2    1    3    3  502    0  0.86413628228E+02  0.84535299087E+02 -0.82430223012E+01  0.12116715459E+03  0.00000000000E+00 0. -1.
         -1    1    3    3    0  502  0.96920608385E+02  0.19583150341E+02 -0.53893779562E+02  0.11261280381E+03  0.00000000000E+00 0.  1.
         11    1    5    5    0    0  0.18562053398E+03 -0.12051748799E+03 -0.54969708785E+03  0.59257601701E+03  0.00000000000E+00 0.  1.
        -11    1    5    5    0    0  0.13092660487E+03 -0.49036203461E+01 -0.31254211886E+03  0.33889289963E+03  0.00000000000E+00 0. -1.
          3    1    6    6  503    0 -0.84652845656E+01  0.87198686209E+01 -0.31460049938E+02  0.33725834217E+02  0.00000000000E+00 0. -1.
         -3    1    6    6    0  503 -0.49141609089E+03  0.12582790288E+02 -0.43947854524E+03  0.65938569345E+03  0.00000000000E+00 0.  1.
<mgrwt>
<rscale>  0 0.12274366E+04</rscale>
<asrwt>0</asrwt>
<pdfrwt beam="1">  1        2 0.25028269E+00 0.12274366E+04</pdfrwt>
<pdfrwt beam="2">  1       -1 0.35618907E-01 0.12274366E+04</pdfrwt>
<totfact> 0.90876806E+01</totfact>
</mgrwt>
</event>
<event>
12    6  0.1395358E-007  0.2673523E+04  0.7818608E-02  0.8343647E-01
          2   -1    0    0  501    0  0.00000000000E+00  0.00000000000E+00  0.39063050336E+04  0.39063050336E+04  0.00000000000E+00 0. -1.
         -1   -1    0    0    0  501 -0.00000000000E+00 -0.00000000000E+00 -0.45744792812E+03  0.45744792812E+03  0.00000000000E+00 0.  1.
         24    2    1    2    0    0 -0.70303890344E+03  0.93215913831E+03  0.12100354573E+04  0.16830046170E+04  0.71654546062E+02 0.  0.
        254    2    1    2    0    0  0.70303890344E+03 -0.93215913831E+03  0.22388216481E+04  0.26807483447E+04  0.90050261333E+03 0.  0.
         23    2    4    4    0    0  0.36545546671E+03  0.92371061327E+02  0.50088872257E+03  0.63326716311E+03  0.89708842141E+02 0.  0.
         23    2    4    4    0    0  0.33758343673E+03 -0.10245301996E+04  0.17379329256E+04  0.20474811816E+04  0.90242055100E+02 0.  0.
          2    1    3    3  502    0 -0.48203038795E+03  0.67665325940E+03  0.89331446485E+03  0.12199277280E+04  0.00000000000E+00 0. -1.
         -1    1    3    3    0  502 -0.22100851549E+03  0.25550587890E+03  0.31672099247E+03  0.46307688902E+03  0.00000000000E+00 0.  1.
         11    1    5    5    0    0  0.24447747139E+03  0.37807372885E+02  0.26440460754E+03  0.36208897794E+03  0.00000000000E+00 0.  1.
        -11    1    5    5    0    0  0.12097799533E+03  0.54563688442E+02  0.23648411504E+03  0.27117818517E+03  0.00000000000E+00 0. -1.
          4    1    6    6  503    0  0.17982701706E+03 -0.42642008460E+03  0.69776065136E+03  0.83728237244E+03  0.00000000000E+00 0. -1.
         -4    1    6    6    0  503  0.15775641967E+03 -0.59811011503E+03  0.10401722742E+04  0.12101988092E+04  0.00000000000E+00 0.  1.
<mgrwt>
<rscale>  0 0.26735229E+04</rscale>
<asrwt>0</asrwt>
<pdfrwt beam="1">  1        2 0.60096998E+00 0.26735229E+04</pdfrwt>
<pdfrwt beam="2">  1       -1 0.70376607E-01 0.26735229E+04</pdfrwt>
<totfact> 0.83005834E-01</totfact>
</mgrwt>
</event>
<event>
12    6  0.1395358E-007  0.1964008E+04  0.7818608E-02  0.8623635E-01
          2   -1    0    0  501    0  0.00000000000E+00  0.00000000000E+00  0.25791625566E+04  0.25791625566E+04  0.00000000000E+00 0. -1.
         -1   -1    0    0    0  501 -0.00000000000E+00 -0.00000000000E+00 -0.37389346866E+03  0.37389346866E+03  0.00000000000E+00 0.  1.
         24    2    1    2    0    0  0.37770135523E+03  0.60748081184E+03  0.43508479355E+03  0.84091490908E+03  0.78408266419E+02 0.  0.
        254    2    1    2    0    0 -0.37770135523E+03 -0.60748081184E+03  0.17701842944E+04  0.21121411161E+04  0.90326984231E+03 0.  0.
         23    2    4    4    0    0  0.11102242851E+03 -0.57927423782E+03  0.12854328623E+04  0.14173992974E+04  0.93800334350E+02 0.  0.
         23    2    4    4    0    0 -0.48872378374E+03 -0.28206574024E+02  0.48475143208E+03  0.69474181871E+03  0.89642044511E+02 0.  0.
          2    1    3    3  502    0  0.87642099873E+02  0.20867601650E+03  0.14472854555E+03  0.26865064569E+03  0.00000000000E+00 0. -1.
         -1    1    3    3    0  502  0.29005925536E+03  0.39880479535E+03  0.29035624799E+03  0.57226426340E+03  0.00000000000E+00 0.  1.
         11    1    5    5    0    0  0.90062711440E+02 -0.43750588240E+03  0.10600032432E+04  0.11502736912E+04  0.00000000000E+00 0. -1.
        -11    1    5    5    0    0  0.20959717068E+02 -0.14176835542E+03  0.22542961906E+03  0.26712560620E+03  0.00000000000E+00 0.  1.
          1    1    6    6  503    0 -0.22854560126E+03 -0.16234380454E+02  0.16506459545E+03  0.28238797360E+03  0.00000000000E+00 0. -1.
         -1    1    6    6    0  503 -0.26017818248E+03 -0.11972193570E+02  0.31968683663E+03  0.41235384511E+03  0.00000000000E+00 0.  1.
<mgrwt>
<rscale>  0 0.19640082E+04</rscale>
<asrwt>0</asrwt>
<pdfrwt beam="1">  1        2 0.39679423E+00 0.19640082E+04</pdfrwt>
<pdfrwt beam="2">  1       -1 0.57522074E-01 0.19640082E+04</pdfrwt>
<totfact> 0.10171517E+01</totfact>
</mgrwt>
</event>
<event>
12    6  0.1395358E-007  0.1386000E+04  0.7818608E-02  0.8964016E-01
         -1   -1    0    0    0  501 -0.00000000000E+00  0.00000000000E+00  0.68328128083E+03  0.68328128083E+03  0.00000000000E+00 0.  1.
          2   -1    0    0  501    0  0.00000000000E+00 -0.00000000000E+00 -0.70285656988E+03  0.70285656988E+03  0.00000000000E+00 0. -1.
         24    2    1    2    0    0 -0.29344186111E+02 -0.29227077788E+03  0.25575941709E+03  0.39782287939E+03  0.81036257773E+02 0.  0.
        254    2    1    2    0    0  0.29344186111E+02  0.29227077788E+03 -0.27533470614E+03  0.98831497133E+03  0.90259292778E+03 0.  0.
         23    2    4    4    0    0 -0.35631623998E+02 -0.14160086105E+03 -0.46889293880E+03  0.50024443379E+03  0.95202358169E+02 0.  0.
         23    2    4    4    0    0  0.64975810109E+02  0.43387163893E+03  0.19355823266E+03  0.48807053754E+03  0.91003325306E+02 0.  0.
          2    1    3    3  502    0  0.42997484344E+01 -0.17605773679E+03  0.10696570024E+03  0.20604969194E+03  0.00000000000E+00 0. -1.
         -1    1    3    3    0  502 -0.33643934545E+02 -0.11621304109E+03  0.14879371684E+03  0.19177318745E+03  0.00000000000E+00 0.  1.
         11    1    5    5    0    0 -0.54920863684E+01  0.10244114391E+02 -0.92971525979E+02  0.93695301564E+02  0.00000000000E+00 0.  1.
        -11    1    5    5    0    0 -0.30139537630E+02 -0.15184497544E+03 -0.37592141282E+03  0.40654913222E+03  0.00000000000E+00 0. -1.
          3    1    6    6  503    0  0.50929789033E+02  0.41979943963E+03  0.16645989780E+03  0.45446046088E+03  0.00000000000E+00 0. -1.
         -3    1    6    6    0  503  0.14046021076E+02  0.14072199301E+02  0.27098334859E+02  0.33610076664E+02  0.00000000000E+00 0.  1.
<mgrwt>
<rscale>  0 0.13859996E+04</rscale>
<asrwt>0</asrwt>
<pdfrwt beam="1">  1        2 0.10813178E+00 0.13859996E+04</pdfrwt>
<pdfrwt beam="2">  1       -1 0.10512020E+00 0.13859996E+04</pdfrwt>
<totfact> 0.38532594E+01</totfact>
</mgrwt>
</event>
<event>
12    6  0.1395358E-007  0.1131805E+04  0.7818608E-02  0.9174735E-01
          2   -1    0    0  501    0  0.00000000000E+00  0.00000000000E+00  0.38265756224E+03  0.38265756224E+03  0.00000000000E+00 0. -1.
         -1   -1    0    0    0  501 -0.00000000000E+00 -0.00000000000E+00 -0.83689932859E+03  0.83689932859E+03  0.00000000000E+00 0.  1.
         24    2    1    2    0    0  0.21821764790E+02  0.17876863539E+03 -0.16133631569E+03  0.25513286075E+03  0.81418397529E+02 0.  0.
        254    2    1    2    0    0 -0.21821764790E+02 -0.17876863539E+03 -0.29290545065E+03  0.96442403008E+03  0.90104699786E+03 0.  0.
         23    2    4    4    0    0  0.14982841002E+03 -0.49937497004E+03 -0.25639673747E+03  0.58801734373E+03  0.90560457105E+02 0.  0.
         23    2    4    4    0    0 -0.17165017481E+03  0.32060633465E+03 -0.36508713181E+02  0.37640668635E+03  0.89982793127E+02 0.  0.
          4    1    3    3  502    0 -0.11673083785E+02  0.15831637857E+02  0.45725599604E+01  0.20194304813E+02  0.00000000000E+00 0. -1.
         -3    1    3    3    0  502  0.33494848575E+02  0.16293699753E+03 -0.16590887565E+03  0.23493855594E+03  0.00000000000E+00 0.  1.
         11    1    5    5    0    0  0.38060708100E+02 -0.21883085795E+03 -0.68900057624E+02  0.23255704641E+03  0.00000000000E+00 0. -1.
        -11    1    5    5    0    0  0.11176770192E+03 -0.28054411209E+03 -0.18749667985E+03  0.35546029732E+03  0.00000000000E+00 0.  1.
          3    1    6    6  503    0 -0.17082799652E+03  0.25926663535E+03 -0.47458598488E+02  0.31409188333E+03  0.00000000000E+00 0. -1.
         -3    1    6    6    0  503 -0.82217829016E+00  0.61339699302E+02  0.10949885307E+02  0.62314803023E+02  0.00000000000E+00 0.  1.
<mgrwt>
<rscale>  0 0.11318054E+04</rscale>
<asrwt>0</asrwt>
<pdfrwt beam="1">  1        2 0.58870394E-01 0.11318054E+04</pdfrwt>
<pdfrwt beam="2">  1       -1 0.12875374E+00 0.11318054E+04</pdfrwt>
<totfact> 0.49295452E+01</totfact>
</mgrwt>
</event>
<event>
12    6  0.1395358E-007  0.1525246E+04  0.7818608E-02  0.8867836E-01
         -1   -1    0    0    0  501 -0.00000000000E+00  0.00000000000E+00  0.64635328740E+03  0.64635328740E+03  0.00000000000E+00 0.  1.
          2   -1    0    0  501    0  0.00000000000E+00 -0.00000000000E+00 -0.89980798136E+03  0.89980798136E+03  0.00000000000E+00 0. -1.
         24    2    1    2    0    0 -0.48469513776E+03 -0.99742045933E+02 -0.68626696686E+02  0.50594733094E+03  0.79970156220E+02 0.  0.
        254    2    1    2    0    0  0.48469513776E+03  0.99742045933E+02 -0.18482799727E+03  0.10402139378E+04  0.89610590645E+03 0.  0.
         23    2    4    4    0    0 -0.68835651726E+02 -0.18970841361E+03 -0.32452812503E+03  0.39330024631E+03  0.92945955637E+02 0.  0.
         23    2    4    4    0    0  0.55353078949E+03  0.28945045954E+03  0.13970012776E+03  0.64691369151E+03  0.93825876655E+02 0.  0.
          2    1    3    3  502    0 -0.32593328001E+03 -0.96669607948E+02 -0.70241684055E+02  0.34714753391E+03  0.00000000000E+00 0. -1.
         -1    1    3    3    0  502 -0.15876185776E+03 -0.30724379852E+01  0.16149873689E+01  0.15879979703E+03  0.00000000000E+00 0.  1.
         11    1    5    5    0    0 -0.77261719504E+02 -0.77082091287E+02 -0.15338049454E+03  0.18824611073E+03  0.00000000000E+00 0. -1.
        -11    1    5    5    0    0  0.84260677778E+01 -0.11262632232E+03 -0.17114763049E+03  0.20505413558E+03  0.00000000000E+00 0.  1.
          3    1    6    6  503    0  0.22884747958E+03  0.10607229651E+03  0.11127745051E+02  0.25248035113E+03  0.00000000000E+00 0. -1.
         -3    1    6    6    0  503  0.32468330991E+03  0.18337816303E+03  0.12857238271E+03  0.39443334038E+03  0.00000000000E+00 0.  1.
<mgrwt>
<rscale>  0 0.15252460E+04</rscale>
<asrwt>0</asrwt>
<pdfrwt beam="1">  1        2 0.13843200E+00 0.15252460E+04</pdfrwt>
<pdfrwt beam="2">  1       -1 0.99438967E-01 0.15252460E+04</pdfrwt>
<totfact> 0.31176384E+01</totfact>
</mgrwt>
</event>
<event>
12    6  0.1395358E-007  0.1385810E+04  0.7818608E-02  0.8964155E-01
         -1   -1    0    0    0  501 -0.00000000000E+00  0.00000000000E+00  0.37078393722E+03  0.37078393722E+03  0.00000000000E+00 0.  1.
          2   -1    0    0  501    0  0.00000000000E+00 -0.00000000000E+00 -0.12948709134E+04  0.12948709134E+04  0.00000000000E+00 0. -1.
         24    2    1    2    0    0  0.15961447100E+03  0.29107806889E+03 -0.14100443882E+02  0.34210773759E+03  0.81459560887E+02 0.  0.
        254    2    1    2    0    0 -0.15961447100E+03 -0.29107806889E+03 -0.90998653231E+03  0.13235471131E+04  0.90194137833E+03 0.  0.
         23    2    4    4    0    0 -0.41297331810E+03  0.52699109487E+02 -0.16078644715E+03  0.45593630245E+03  0.93281684701E+02 0.  0.
         23    2    4    4    0    0  0.25335884710E+03 -0.34377717838E+03 -0.74920008517E+03  0.86761081060E+03  0.95259106048E+02 0.  0.
          4    1    3    3  502    0  0.56440649917E+02  0.58999462501E+02 -0.31544965313E+02  0.87530385439E+02  0.00000000000E+00 0. -1.
         -3    1    3    3    0  502  0.10317382108E+03  0.23207860639E+03  0.17444521431E+02  0.25457735215E+03  0.00000000000E+00 0.  1.
         11    1    5    5    0    0 -0.12041386982E+03  0.56899973657E+02 -0.63947479683E+02  0.14773756193E+03  0.00000000000E+00 0. -1.
        -11    1    5    5    0    0 -0.29255944828E+03 -0.42008641705E+01 -0.96838967464E+02  0.30819874052E+03  0.00000000000E+00 0.  1.
          1    1    6    6  503    0  0.21616968578E+02 -0.63580330800E+02 -0.68776556254E+02  0.96124744397E+02  0.00000000000E+00 0. -1.
         -1    1    6    6    0  503  0.23174187853E+03 -0.28019684758E+03 -0.68042352891E+03  0.77148606621E+03  0.00000000000E+00 0.  1.
<mgrwt>
<rscale>  0 0.13858100E+04</rscale>
<asrwt>0</asrwt>
<pdfrwt beam="1">  1        2 0.19921091E+00 0.13858100E+04</pdfrwt>
<pdfrwt beam="2">  1       -1 0.57043682E-01 0.13858100E+04</pdfrwt>
<totfact> 0.57519144E+01</totfact>
</mgrwt>
</event>
<event>
12    6  0.1395358E-007  0.1412420E+04  0.7818608E-02  0.8944877E-01
          2   -1    0    0  501    0  0.00000000000E+00  0.00000000000E+00  0.51887757121E+03  0.51887757121E+03  0.00000000000E+00 0. -1.
         -1   -1    0    0    0  501 -0.00000000000E+00 -0.00000000000E+00 -0.96117556523E+03  0.96117556523E+03  0.00000000000E+00 0.  1.
         24    2    1    2    0    0  0.35965504805E+03 -0.16223919646E+03 -0.26534875250E+03  0.48239581878E+03  0.81378468113E+02 0.  0.
        254    2    1    2    0    0 -0.35965504805E+03  0.16223919646E+03 -0.17694924152E+03  0.99765731765E+03  0.89907495735E+03 0.  0.
         23    2    4    4    0    0 -0.62636569113E+03  0.17014511205E+03 -0.25772999181E+03  0.70425441343E+03  0.90918600800E+02 0.  0.
         23    2    4    4    0    0  0.26671064308E+03 -0.79059155920E+01  0.80780750283E+02  0.29340290422E+03  0.91447602249E+02 0.  0.
          4    1    3    3  502    0  0.41197178218E+02 -0.10963776161E+02 -0.26280745163E+01  0.42712043460E+02  0.00000000000E+00 0. -1.
         -3    1    3    3    0  502  0.31845786983E+03 -0.15127542029E+03 -0.26272067798E+03  0.43968377532E+03  0.00000000000E+00 0.  1.
         11    1    5    5    0    0 -0.21754935664E+02  0.25763259734E+02 -0.15552219130E+02  0.37133466008E+02  0.00000000000E+00 0.  1.
        -11    1    5    5    0    0 -0.60461075547E+03  0.14438185231E+03 -0.24217777268E+03  0.66712094742E+03  0.00000000000E+00 0. -1.
          3    1    6    6  503    0  0.41111410520E+02  0.31514404958E+02  0.44128545780E+01  0.51988259062E+02  0.00000000000E+00 0.  1.
         -3    1    6    6    0  503  0.22559923256E+03 -0.39420320550E+02  0.76367895705E+02  0.24141464516E+03  0.00000000000E+00 0. -1.
<mgrwt>
<rscale>  0 0.14124198E+04</rscale>
<asrwt>0</asrwt>
<pdfrwt beam="1">  1        2 0.79827320E-01 0.14124198E+04</pdfrwt>
<pdfrwt beam="2">  1       -1 0.14787316E+00 0.14124198E+04</pdfrwt>
<totfact> 0.23772314E+01</totfact>
</mgrwt>
</event>
<event>
12    6  0.1395358E-007  0.2171180E+04  0.7818608E-02  0.8530520E-01
         -1   -1    0    0    0  501 -0.00000000000E+00  0.00000000000E+00  0.99904762803E+03  0.99904762803E+03  0.00000000000E+00 0.  1.
          2   -1    0    0  501    0  0.00000000000E+00 -0.00000000000E+00 -0.11796293892E+04  0.11796293892E+04  0.00000000000E+00 0. -1.
         24    2    1    2    0    0 -0.73707601628E+03  0.50518410969E+03  0.53256090834E+01  0.89722932249E+03  0.80622928267E+02 0.  0.
        254    2    1    2    0    0  0.73707601628E+03 -0.50518410969E+03 -0.18590737024E+03  0.12814476947E+04  0.89947462755E+03 0.  0.
         23    2    4    4    0    0  0.51711358652E+03 -0.42436651716E+03  0.29641561417E+03  0.73728942569E+03  0.90774878983E+02 0.  0.
         23    2    4    4    0    0  0.21996242975E+03 -0.80817592533E+02 -0.48232298442E+03  0.54415826906E+03  0.92508414332E+02 0.  0.
          2    1    3    3  502    0 -0.35065025280E+03  0.28913665297E+03  0.47296854402E+01  0.45450849695E+03  0.00000000000E+00 0. -1.
         -1    1    3    3    0  502 -0.38642576348E+03  0.21604745672E+03  0.59592364324E+00  0.44272082553E+03  0.00000000000E+00 0.  1.
         11    1    5    5    0    0  0.18749475231E+03 -0.11885721061E+03  0.13463932981E+03  0.25963256304E+03  0.00000000000E+00 0.  1.
        -11    1    5    5    0    0  0.32961883421E+03 -0.30550930654E+03  0.16177628436E+03  0.47765686265E+03  0.00000000000E+00 0. -1.
          4    1    6    6  503    0  0.10023940587E+03 -0.45147262392E-01 -0.26400132282E+03  0.28239093289E+03  0.00000000000E+00 0. -1.
         -4    1    6    6    0  503  0.11972302388E+03 -0.80772445271E+02 -0.21832166160E+03  0.26176733617E+03  0.00000000000E+00 0.  1.
<mgrwt>
<rscale>  0 0.21711803E+04</rscale>
<asrwt>0</asrwt>
<pdfrwt beam="1">  1        2 0.18148145E+00 0.21711803E+04</pdfrwt>
<pdfrwt beam="2">  1       -1 0.15369963E+00 0.21711803E+04</pdfrwt>
<totfact> 0.66458040E+00</totfact>
</mgrwt>
</event>
<event>
12    6  0.1395358E-007  0.1546520E+04  0.7818608E-02  0.8854094E-01
         -1   -1    0    0    0  501 -0.00000000000E+00  0.00000000000E+00  0.52804068234E+03  0.52804068234E+03  0.00000000000E+00 0.  1.
          2   -1    0    0  501    0  0.00000000000E+00 -0.00000000000E+00 -0.11323572486E+04  0.11323572486E+04  0.00000000000E+00 0. -1.
         24    2    1    2    0    0  0.31504810141E+03  0.38582280938E+03 -0.30864425701E+03  0.59174704252E+03  0.82393801390E+02 0.  0.
        254    2    1    2    0    0 -0.31504810141E+03 -0.38582280938E+03 -0.29567230928E+03  0.10686508884E+04  0.89804123539E+03 0.  0.
         23    2    4    4    0    0 -0.48878061065E+03 -0.53557713677E+03 -0.35773120264E+03  0.81365339683E+03  0.91164039205E+02 0.  0.
         23    2    4    4    0    0  0.17373250924E+03  0.14975432739E+03  0.62058893357E+02  0.25499749162E+03  0.92536863731E+02 0.  0.
          4    1    3    3  502    0  0.10902568562E+02  0.48482834637E+02 -0.41945856159E+02  0.65030040017E+02  0.00000000000E+00 0. -1.
         -3    1    3    3    0  502  0.30414553285E+03  0.33733997474E+03 -0.26669840085E+03  0.52671700250E+03  0.00000000000E+00 0.  1.
         11    1    5    5    0    0 -0.14863634746E+03 -0.18857392805E+03 -0.75380260074E+02  0.25166460564E+03  0.00000000000E+00 0. -1.
        -11    1    5    5    0    0 -0.34014426319E+03 -0.34700320873E+03 -0.28235094256E+03  0.56198879118E+03  0.00000000000E+00 0.  1.
          1    1    6    6  503    0  0.63754847624E+02  0.10314347761E+03  0.60564536108E+02  0.13554084478E+03  0.00000000000E+00 0.  1.
         -1    1    6    6    0  503  0.10997766161E+03  0.46610849784E+02  0.14943572491E+01  0.11945664684E+03  0.00000000000E+00 0. -1.
<mgrwt>
<rscale>  0 0.15465196E+04</rscale>
<asrwt>0</asrwt>
<pdfrwt beam="1">  1        2 0.17420881E+00 0.15465196E+04</pdfrwt>
<pdfrwt beam="2">  1       -1 0.81237028E-01 0.15465196E+04</pdfrwt>
<totfact> 0.34502235E+01</totfact>
</mgrwt>
</event>
<event>
12    6  0.1395358E-007  0.2075296E+04  0.7818608E-02  0.8572204E-01
         -1   -1    0    0    0  501 -0.00000000000E+00  0.00000000000E+00  0.62754361271E+03  0.62754361271E+03  0.00000000000E+00 0.  1.
          2   -1    0    0  501    0  0.00000000000E+00 -0.00000000000E+00 -0.17157584095E+04  0.17157584095E+04  0.00000000000E+00 0. -1.
         24    2    1    2    0    0 -0.17084629030E+03 -0.24091885094E+03 -0.13277904490E+04  0.13644352873E+04  0.10689166949E+03 0.  0.
        254    2    1    2    0    0  0.17084629030E+03  0.24091885094E+03  0.23957565226E+03  0.97886673491E+03  0.90197186426E+03 0.  0.
         23    2    4    4    0    0  0.40355926284E+03  0.25810386913E+03 -0.15446965372E+03  0.51159362217E+03  0.91594074244E+02 0.  0.
         23    2    4    4    0    0 -0.23271297254E+03 -0.17185018191E+02  0.39404530598E+03  0.46727311274E+03  0.92853682147E+02 0.  0.
          2    1    3    3  502    0 -0.17842085148E+03 -0.18412909150E+03 -0.11111250268E+04  0.11403229139E+04  0.00000000000E+00 0. -1.
         -3    1    3    3    0  502  0.75745611844E+01 -0.56789759431E+02 -0.21666542218E+03  0.22411237342E+03  0.00000000000E+00 0.  1.
         11    1    5    5    0    0  0.70550902371E+02  0.80468714978E+02 -0.59330759882E+02  0.12236332369E+03  0.00000000000E+00 0. -1.
        -11    1    5    5    0    0  0.33300836047E+03  0.17763515415E+03 -0.95138893836E+02  0.38923029848E+03  0.00000000000E+00 0.  1.
          1    1    6    6  503    0 -0.31365689580E+01 -0.50176937395E+01 -0.43219366558E+01  0.73276498107E+01  0.00000000000E+00 0. -1.
         -1    1    6    6    0  503 -0.22957640359E+03 -0.12167324452E+02  0.39836724264E+03  0.45994546293E+03  0.00000000000E+00 0.  1.
<mgrwt>
<rscale>  0 0.20752959E+04</rscale>
<asrwt>0</asrwt>
<pdfrwt beam="1">  1        2 0.26396283E+00 0.20752959E+04</pdfrwt>
<pdfrwt beam="2">  1       -1 0.96545172E-01 0.20752959E+04</pdfrwt>
<totfact> 0.10435120E+01</totfact>
</mgrwt>
</event>
<event>
12    6  0.1395358E-007  0.1216915E+04  0.7818608E-02  0.9098179E-01
          2   -1    0    0  501    0  0.00000000000E+00  0.00000000000E+00  0.12453028424E+04  0.12453028424E+04  0.00000000000E+00 0. -1.
         -1   -1    0    0    0  501 -0.00000000000E+00 -0.00000000000E+00 -0.29729339634E+03  0.29729339634E+03  0.00000000000E+00 0.  1.
         24    2    1    2    0    0  0.25733535987E+03 -0.23026322531E+02  0.28855194664E+03  0.39531738682E+03  0.79132240236E+02 0.  0.
        254    2    1    2    0    0 -0.25733535987E+03  0.23026322531E+02  0.65945749940E+03  0.11472788519E+04  0.90255906818E+03 0.  0.
         23    2    4    4    0    0  0.46309019544E+02  0.36902996144E+03  0.62297872233E+02  0.38768883108E+03  0.89966477796E+02 0.  0.
         23    2    4    4    0    0 -0.30364437941E+03 -0.34600363891E+03  0.59715962716E+03  0.75959002083E+03  0.91972561901E+02 0.  0.
          2    1    3    3  502    0  0.15053571624E+03 -0.27845741043E+02  0.22103740286E+03  0.26887528823E+03  0.00000000000E+00 0. -1.
         -1    1    3    3    0  502  0.10679964363E+03  0.48194185124E+01  0.67514543782E+02  0.12644209859E+03  0.00000000000E+00 0.  1.
         11    1    5    5    0    0  0.25800838371E+02  0.39243799597E+02 -0.13128778050E+02  0.48766011530E+02  0.00000000000E+00 0. -1.
        -11    1    5    5    0    0  0.20508181173E+02  0.32978616184E+03  0.75426650283E+02  0.33892281955E+03  0.00000000000E+00 0.  1.
          3    1    6    6  503    0 -0.14178271309E+03 -0.22981834219E+03  0.35353463746E+03  0.44486576405E+03  0.00000000000E+00 0. -1.
         -3    1    6    6    0  503 -0.16186166633E+03 -0.11618529672E+03  0.24362498970E+03  0.31472425678E+03  0.00000000000E+00 0.  1.
<mgrwt>
<rscale>  0 0.12169146E+04</rscale>
<asrwt>0</asrwt>
<pdfrwt beam="1">  1        2 0.19158505E+00 0.12169146E+04</pdfrwt>
<pdfrwt beam="2">  1       -1 0.45737446E-01 0.12169146E+04</pdfrwt>
<totfact> 0.94974085E+01</totfact>
</mgrwt>
</event>
<event>
12    6  0.1395358E-007  0.1853958E+04  0.7818608E-02  0.8678120E-01
         -1   -1    0    0    0  501 -0.00000000000E+00  0.00000000000E+00  0.67756540077E+03  0.67756540077E+03  0.00000000000E+00 0.  1.
          2   -1    0    0  501    0  0.00000000000E+00 -0.00000000000E+00 -0.12682028885E+04  0.12682028885E+04  0.00000000000E+00 0. -1.
         24    2    1    2    0    0  0.53271251073E+03  0.29926186977E+02 -0.71259458086E+03  0.89358372318E+03  0.77605656365E+02 0.  0.
        254    2    1    2    0    0 -0.53271251073E+03 -0.29926186977E+02  0.12195709316E+03  0.10521845661E+04  0.89863264615E+03 0.  0.
         23    2    4    4    0    0  0.48209226697E+02 -0.30374318969E+03 -0.14357380154E+03  0.35122187705E+03  0.90328930108E+02 0.  0.
         23    2    4    4    0    0 -0.58092173742E+03  0.27381700271E+03  0.26553089469E+03  0.70096268901E+03  0.91630886502E+02 0.  0.
          4    1    3    3  502    0  0.12508981153E+03 -0.18135878817E+02 -0.20461062172E+03  0.24050338370E+03  0.00000000000E+00 0. -1.
         -3    1    3    3    0  502  0.40762269920E+03  0.48062065794E+02 -0.50798395914E+03  0.65308033948E+03  0.00000000000E+00 0.  1.
         11    1    5    5    0    0  0.45330031591E+02 -0.11168013355E+03 -0.93980311724E+02  0.15283835574E+03  0.00000000000E+00 0. -1.
        -11    1    5    5    0    0  0.28791951058E+01 -0.19206305614E+03 -0.49593489811E+02  0.19838352131E+03  0.00000000000E+00 0.  1.
          2    1    6    6  503    0 -0.25747529380E+03  0.17172683643E+03  0.13139641036E+03  0.33622708089E+03  0.00000000000E+00 0.  1.
         -2    1    6    6    0  503 -0.32344644362E+03  0.10209016628E+03  0.13413448434E+03  0.36473560812E+03  0.00000000000E+00 0. -1.
<mgrwt>
<rscale>  0 0.18539584E+04</rscale>
<asrwt>0</asrwt>
<pdfrwt beam="1">  1        2 0.19510813E+00 0.18539584E+04</pdfrwt>
<pdfrwt beam="2">  1       -1 0.10424083E+00 0.18539584E+04</pdfrwt>
<totfact> 0.16013572E+01</totfact>
</mgrwt>
</event>
<event>
12    6  0.1395358E-007  0.1291109E+04  0.7818608E-02  0.9036646E-01
         -1   -1    0    0    0  501 -0.00000000000E+00  0.00000000000E+00  0.49804716329E+03  0.49804716329E+03  0.00000000000E+00 0.  1.
          2   -1    0    0  501    0  0.00000000000E+00 -0.00000000000E+00 -0.83674878195E+03  0.83674878195E+03  0.00000000000E+00 0. -1.
         24    2    1    2    0    0 -0.22745303043E+03  0.84709732283E+01  0.14710119691E+03  0.28678186110E+03  0.93799974863E+02 0.  0.
        254    2    1    2    0    0  0.22745303043E+03 -0.84709732283E+01 -0.48580281557E+03  0.10480140841E+04  0.90029023458E+03 0.  0.
         23    2    4    4    0    0 -0.19275137202E+03 -0.28019606254E+03 -0.39704463719E+03  0.53068358259E+03  0.91201403654E+02 0.  0.
         23    2    4    4    0    0  0.42020440246E+03  0.27172508932E+03 -0.88758178377E+02  0.51733050154E+03  0.96677658161E+02 0.  0.
          2    1    3    3  502    0 -0.58290972855E+02 -0.12529892667E+02 -0.29378158209E+01  0.59694777732E+02  0.00000000000E+00 0. -1.
         -1    1    3    3    0  502 -0.16916205758E+03  0.21000865895E+02  0.15003901273E+03  0.22708708337E+03  0.00000000000E+00 0.  1.
         11    1    5    5    0    0 -0.12120139772E+02 -0.74772069630E+02 -0.11560299328E+03  0.13820930591E+03  0.00000000000E+00 0. -1.
        -11    1    5    5    0    0 -0.18063123225E+03 -0.20542399291E+03 -0.28144164391E+03  0.39247427668E+03  0.00000000000E+00 0.  1.
          3    1    6    6  503    0  0.20891309996E+02  0.45860946740E+02 -0.15702203030E+02  0.52784774786E+02  0.00000000000E+00 0. -1.
         -3    1    6    6    0  503  0.39931309246E+03  0.22586414258E+03 -0.73055975348E+02  0.46454572675E+03  0.00000000000E+00 0.  1.
<mgrwt>
<rscale>  0 0.12911086E+04</rscale>
<asrwt>0</asrwt>
<pdfrwt beam="1">  1        2 0.12873058E+00 0.12911086E+04</pdfrwt>
<pdfrwt beam="2">  1       -1 0.76622641E-01 0.12911086E+04</pdfrwt>
<totfact> 0.62073805E+01</totfact>
</mgrwt>
</event>
<event>
12    6  0.1395358E-007  0.2704311E+04  0.7818608E-02  0.8333608E-01
         -1   -1    0    0    0  501 -0.00000000000E+00  0.00000000000E+00  0.67256782654E+03  0.67256782654E+03  0.00000000000E+00 0.  1.
          2   -1    0    0  501    0  0.00000000000E+00 -0.00000000000E+00 -0.27184240584E+04  0.27184240584E+04  0.00000000000E+00 0. -1.
         24    2    1    2    0    0 -0.86056318090E+01  0.10204752718E+04 -0.16981903413E+04  0.19828616327E+04  0.80286872210E+02 0.  0.
        254    2    1    2    0    0  0.86056318090E+01 -0.10204752718E+04 -0.34766589050E+03  0.14081302522E+04  0.90582305027E+03 0.  0.
         23    2    4    4    0    0 -0.28420366075E+03 -0.63813137281E+03 -0.53372006590E+03  0.88470344972E+03  0.99296099899E+02 0.  0.
         23    2    4    4    0    0  0.29280929256E+03 -0.38234389901E+03  0.18605417539E+03  0.52342680247E+03  0.86228315752E+02 0.  0.
          2    1    3    3  502    0  0.32293336060E+02  0.25016841703E+03 -0.41206777357E+03  0.48314278060E+03  0.00000000000E+00 0. -1.
         -1    1    3    3    0  502 -0.40898967869E+02  0.77030685480E+03 -0.12861225678E+04  0.14997188521E+04  0.00000000000E+00 0.  1.
         11    1    5    5    0    0  0.57755657241E+01 -0.72959047307E+01 -0.56878368849E+00  0.93226015767E+01  0.00000000000E+00 0.  1.
        -11    1    5    5    0    0 -0.28997922647E+03 -0.63083546808E+03 -0.53315128221E+03  0.87538084814E+03  0.00000000000E+00 0. -1.
          2    1    6    6  503    0  0.15228710175E+03 -0.13949562264E+03  0.10323452366E+03  0.23088472658E+03  0.00000000000E+00 0.  1.
         -2    1    6    6    0  503  0.14052219081E+03 -0.24284827638E+03  0.82819651731E+02  0.29254207588E+03  0.00000000000E+00 0. -1.
<mgrwt>
<rscale>  0 0.27043110E+04</rscale>
<asrwt>0</asrwt>
<pdfrwt beam="1">  1        2 0.41821909E+00 0.27043110E+04</pdfrwt>
<pdfrwt beam="2">  1       -1 0.10347197E+00 0.27043110E+04</pdfrwt>
<totfact> 0.22732206E+00</totfact>
</mgrwt>
</event>
<event>
12    6  0.1395358E-007  0.2009719E+04  0.7818608E-02  0.8602090E-01
         -1   -1    0    0    0  501 -0.00000000000E+00  0.00000000000E+00  0.83014876759E+03  0.83014876759E+03  0.00000000000E+00 0.  1.
          2   -1    0    0  501    0  0.00000000000E+00 -0.00000000000E+00 -0.12163396958E+04  0.12163396958E+04  0.00000000000E+00 0. -1.
         24    2    1    2    0    0  0.17194194573E+03 -0.59514332192E+03  0.36057051544E+03  0.72338522448E+03  0.97547322220E+02 0.  0.
        254    2    1    2    0    0 -0.17194194573E+03  0.59514332192E+03 -0.74676144361E+03  0.13231032389E+04  0.89954984339E+03 0.  0.
         23    2    4    4    0    0 -0.36380034703E+03  0.51784875814E+03 -0.86018647590E+03  0.10715854454E+04  0.88637264485E+02 0.  0.
         23    2    4    4    0    0  0.19185840130E+03  0.77294563778E+02  0.11342503230E+03  0.25151779347E+03  0.87246012757E+02 0.  0.
          4    1    3    3  502    0  0.72760434721E+02 -0.38586971113E+03  0.19303634648E+03  0.43755290639E+03  0.00000000000E+00 0. -1.
         -3    1    3    3    0  502  0.99181511008E+02 -0.20927361079E+03  0.16753416895E+03  0.28583231809E+03  0.00000000000E+00 0.  1.
         11    1    5    5    0    0 -0.24782577190E+03  0.27835106139E+03 -0.51666848628E+03  0.63705827937E+03  0.00000000000E+00 0. -1.
        -11    1    5    5    0    0 -0.11597457514E+03  0.23949769675E+03 -0.34351798962E+03  0.43452716603E+03  0.00000000000E+00 0.  1.
          4    1    6    6  503    0  0.91114774762E+02 -0.61329612441E+01  0.64771568747E+02  0.11195924040E+03  0.00000000000E+00 0.  1.
         -4    1    6    6    0  503  0.10074362654E+03  0.83427525022E+02  0.48653463550E+02  0.13955855307E+03  0.00000000000E+00 0. -1.
<mgrwt>
<rscale>  0 0.20097193E+04</rscale>
<asrwt>0</asrwt>
<pdfrwt beam="1">  1        2 0.18712918E+00 0.20097193E+04</pdfrwt>
<pdfrwt beam="2">  1       -1 0.12771520E+00 0.20097193E+04</pdfrwt>
<totfact> 0.10396121E+01</totfact>
</mgrwt>
</event>
<event>
12    6  0.1395358E-007  0.1984740E+04  0.7818608E-02  0.8613789E-01
         -1   -1    0    0    0  501 -0.00000000000E+00  0.00000000000E+00  0.49963204135E+03  0.49963204135E+03  0.00000000000E+00 0.  1.
          2   -1    0    0  501    0  0.00000000000E+00 -0.00000000000E+00 -0.19710460551E+04  0.19710460551E+04  0.00000000000E+00 0. -1.
         24    2    1    2    0    0 -0.66227488375E+03  0.42235215831E+03 -0.52369967256E+03  0.94743587140E+03  0.79900038202E+02 0.  0.
        254    2    1    2    0    0  0.66227488375E+03 -0.42235215831E+03 -0.94771434120E+03  0.15232422251E+04  0.89728202724E+03 0.  0.
         23    2    4    4    0    0  0.62089229002E+03 -0.63775003127E+03 -0.92258188275E+03  0.12853652773E+04  0.93670846248E+02 0.  0.
         23    2    4    4    0    0  0.41382593730E+02  0.21539787297E+03 -0.25132458449E+02  0.23787694779E+03  0.88572225212E+02 0.  0.
          2    1    3    3  502    0 -0.14152967913E+03  0.12271215863E+03 -0.14916305770E+03  0.23945467574E+03  0.00000000000E+00 0. -1.
         -1    1    3    3    0  502 -0.52074520462E+03  0.29963999968E+03 -0.37453661486E+03  0.70798119566E+03  0.00000000000E+00 0.  1.
         11    1    5    5    0    0  0.98922969540E+02 -0.69838288495E+02 -0.16041667289E+03  0.20098917728E+03  0.00000000000E+00 0. -1.
        -11    1    5    5    0    0  0.52196932048E+03 -0.56791174278E+03 -0.76216520985E+03  0.10843761000E+04  0.00000000000E+00 0.  1.
          3    1    6    6  503    0  0.29501224414E+02  0.18207790686E+02 -0.20499349716E+02  0.40274920513E+02  0.00000000000E+00 0. -1.
         -3    1    6    6    0  503  0.11881369316E+02  0.19719008228E+03 -0.46331087333E+01  0.19760202727E+03  0.00000000000E+00 0.  1.
<mgrwt>
<rscale>  0 0.19847395E+04</rscale>
<asrwt>0</asrwt>
<pdfrwt beam="1">  1        2 0.30323785E+00 0.19847395E+04</pdfrwt>
<pdfrwt beam="2">  1       -1 0.76866469E-01 0.19847395E+04</pdfrwt>
<totfact> 0.12468020E+01</totfact>
</mgrwt>
</event>
<event>
12    6  0.1395358E-007  0.3112343E+04  0.7818608E-02  0.8212359E-01
         -1   -1    0    0    0  501 -0.00000000000E+00  0.00000000000E+00  0.17376512797E+04  0.17376512797E+04  0.00000000000E+00 0.  1.
          2   -1    0    0  501    0  0.00000000000E+00 -0.00000000000E+00 -0.13936457111E+04  0.13936457111E+04  0.00000000000E+00 0. -1.
         24    2    1    2    0    0  0.68937704621E+03 -0.29017445383E+01  0.14121788742E+04  0.15735123966E+04  0.80268035542E+02 0.  0.
        254    2    1    2    0    0 -0.68937704621E+03  0.29017445383E+01 -0.10681733055E+04  0.15577845942E+04  0.90024968729E+03 0.  0.
         23    2    4    4    0    0 -0.62721334416E+03 -0.33986742923E+03 -0.92099440118E+03  0.11689754720E+04  0.96780776333E+02 0.  0.
         23    2    4    4    0    0 -0.62163702044E+02  0.34276917377E+03 -0.14717890435E+03  0.38880912221E+03  0.90309862662E+02 0.  0.
          2    1    3    3  502    0  0.62476076960E+03  0.15855776304E+02  0.12383239081E+04  0.13870917512E+04  0.00000000000E+00 0. -1.
         -1    1    3    3    0  502  0.64616276608E+02 -0.18757520842E+02  0.17385496609E+03  0.18642064538E+03  0.00000000000E+00 0.  1.
         11    1    5    5    0    0 -0.16888711177E+03 -0.10662585990E+03 -0.19366835377E+03  0.27820740783E+03  0.00000000000E+00 0.  1.
        -11    1    5    5    0    0 -0.45832623240E+03 -0.23324156933E+03 -0.72732604740E+03  0.89076806420E+03  0.00000000000E+00 0. -1.
          3    1    6    6  503    0 -0.48763398148E+02  0.86339332987E+02 -0.15926406896E+02  0.10042907874E+03  0.00000000000E+00 0. -1.
         -3    1    6    6    0  503 -0.13400303896E+02  0.25642984078E+03 -0.13125249745E+03  0.28838004348E+03  0.00000000000E+00 0.  1.
<mgrwt>
<rscale>  0 0.31123433E+04</rscale>
<asrwt>0</asrwt>
<pdfrwt beam="1">  1        2 0.21440703E+00 0.31123433E+04</pdfrwt>
<pdfrwt beam="2">  1       -1 0.26733097E+00 0.31123433E+04</pdfrwt>
<totfact> 0.75785628E-01</totfact>
</mgrwt>
</event>
<event>
12    6  0.1395358E-007  0.4068154E+04  0.7818608E-02  0.7990937E-01
          2   -1    0    0  501    0  0.00000000000E+00  0.00000000000E+00  0.26320058618E+04  0.26320058618E+04  0.00000000000E+00 0. -1.
         -1   -1    0    0    0  501 -0.00000000000E+00 -0.00000000000E+00 -0.15719836222E+04  0.15719836222E+04  0.00000000000E+00 0.  1.
         24    2    1    2    0    0 -0.12218664128E+04  0.12404862844E+04 -0.36402857042E+03  0.17818931865E+04  0.10422464048E+03 0.  0.
        254    2    1    2    0    0  0.12218664128E+04 -0.12404862844E+04  0.14240508101E+04  0.24220962975E+04  0.89825720820E+03 0.  0.
         23    2    4    4    0    0  0.14261695820E+03 -0.45840495092E+03  0.27069820384E+02  0.48935430740E+03  0.90885461973E+02 0.  0.
         23    2    4    4    0    0  0.10792494546E+04 -0.78208133344E+03  0.13969809897E+04  0.19327419901E+04  0.86632079719E+02 0.  0.
          2    1    3    3  502    0 -0.27135940963E+03  0.24188736239E+03 -0.40265125584E+02  0.36574130970E+03  0.00000000000E+00 0. -1.
         -1    1    3    3    0  502 -0.95050700316E+03  0.99859892197E+03 -0.32376344483E+03  0.14161518768E+04  0.00000000000E+00 0.  1.
         11    1    5    5    0    0  0.11055912456E+03 -0.31273033656E+03 -0.21743488155E+02  0.33240993172E+03  0.00000000000E+00 0. -1.
        -11    1    5    5    0    0  0.32057833648E+02 -0.14567461436E+03  0.48813308539E+02  0.15694437568E+03  0.00000000000E+00 0.  1.
          3    1    6    6  503    0  0.69486073292E+03 -0.47414383879E+03  0.93033152574E+03  0.12542569776E+04  0.00000000000E+00 0. -1.
         -3    1    6    6    0  503  0.38438872167E+03 -0.30793749465E+03  0.46664946395E+03  0.67848501248E+03  0.00000000000E+00 0.  1.
<mgrwt>
<rscale>  0 0.40681544E+04</rscale>
<asrwt>0</asrwt>
<pdfrwt beam="1">  1        2 0.40492398E+00 0.40681544E+04</pdfrwt>
<pdfrwt beam="2">  1       -1 0.24184363E+00 0.40681544E+04</pdfrwt>
<totfact> 0.20481837E-01</totfact>
</mgrwt>
</event>
<event>
12    6  0.1395358E-007  0.2510162E+04  0.7818608E-02  0.8399374E-01
          2   -1    0    0  501    0  0.00000000000E+00  0.00000000000E+00  0.11139173017E+04  0.11139173017E+04  0.00000000000E+00 0. -1.
         -1   -1    0    0    0  501 -0.00000000000E+00 -0.00000000000E+00 -0.14141342759E+04  0.14141342759E+04  0.00000000000E+00 0.  1.
         24    2    1    2    0    0  0.66223298554E+03  0.50918655210E+03  0.58049490642E+03  0.10199047253E+04  0.73538019665E+02 0.  0.
        254    2    1    2    0    0 -0.66223298554E+03 -0.50918655210E+03 -0.88071188070E+03  0.15081468523E+04  0.89500281525E+03 0.  0.
         23    2    4    4    0    0 -0.52951528063E+03 -0.56893686733E+03 -0.10210491607E+04  0.12863477957E+04  0.89853611733E+02 0.  0.
         23    2    4    4    0    0 -0.13271770490E+03  0.59750315234E+02  0.14033728004E+03  0.22179905655E+03  0.91193091577E+02 0.  0.
          2    1    3    3  502    0  0.53753097033E+03  0.40018863599E+03  0.49767737536E+03  0.83472945221E+03  0.00000000000E+00 0. -1.
         -1    1    3    3    0  502  0.12470201521E+03  0.10899791611E+03  0.82817531052E+02  0.18517527309E+03  0.00000000000E+00 0.  1.
         11    1    5    5    0    0 -0.52685390826E+03 -0.55431154505E+03 -0.10135643888E+04  0.12697043356E+04  0.00000000000E+00 0.  1.
        -11    1    5    5    0    0 -0.26613723682E+01 -0.14625322283E+02 -0.74847719830E+01  0.16643460169E+02  0.00000000000E+00 0. -1.
          4    1    6    6  503    0 -0.45878340845E+02 -0.16343827387E+02  0.14057103877E+02  0.50690679831E+02  0.00000000000E+00 0. -1.
         -4    1    6    6    0  503 -0.86839364060E+02  0.76094142620E+02  0.12628017616E+03  0.17110837672E+03  0.00000000000E+00 0.  1.
<mgrwt>
<rscale>  0 0.25101623E+04</rscale>
<asrwt>0</asrwt>
<pdfrwt beam="1">  1        2 0.17137189E+00 0.25101623E+04</pdfrwt>
<pdfrwt beam="2">  1       -1 0.21755912E+00 0.25101623E+04</pdfrwt>
<totfact> 0.24795357E+00</totfact>
</mgrwt>
</event>
<event>
12    6  0.1395358E-007  0.7453203E+04  0.7818608E-02  0.7532420E-01
         -1   -1    0    0    0  501 -0.00000000000E+00  0.00000000000E+00  0.29559385629E+04  0.29559385629E+04  0.00000000000E+00 0.  1.
          2   -1    0    0  501    0  0.00000000000E+00 -0.00000000000E+00 -0.46981894103E+04  0.46981894103E+04  0.00000000000E+00 0. -1.
         24    2    1    2    0    0 -0.30421865924E+04  0.16561893747E+04 -0.21100275710E+04  0.40567010824E+04  0.82126814637E+02 0.  0.
        254    2    1    2    0    0  0.30421865924E+04 -0.16561893747E+04  0.36777672365E+03  0.35974268907E+04  0.89908731913E+03 0.  0.
         23    2    4    4    0    0  0.28801515155E+04 -0.12702124868E+04  0.29720509437E+03  0.31631518454E+04  0.92120655859E+02 0.  0.
         23    2    4    4    0    0  0.16203507695E+03 -0.38597688793E+03  0.70571629281E+02  0.43427504531E+03  0.91547451815E+02 0.  0.
          2    1    3    3  502    0 -0.24241844451E+04  0.13451990739E+04 -0.17166000602E+04  0.32608199182E+04  0.00000000000E+00 0. -1.
         -1    1    3    3    0  502 -0.61800214734E+03  0.31099030083E+03 -0.39342751082E+03  0.79588116424E+03  0.00000000000E+00 0.  1.
         11    1    5    5    0    0  0.19325038785E+04 -0.89874691481E+03  0.20812977211E+03  0.21414096431E+04  0.00000000000E+00 0. -1.
        -11    1    5    5    0    0  0.94764763696E+03 -0.37146557199E+03  0.89075322259E+02  0.10217422023E+04  0.00000000000E+00 0.  1.
          3    1    6    6  503    0  0.37373581580E+02 -0.58345525129E+02  0.45374736638E+02  0.82824221262E+02  0.00000000000E+00 0. -1.
         -3    1    6    6    0  503  0.12466149537E+03 -0.32763136281E+03  0.25196892643E+02  0.35145082404E+03  0.00000000000E+00 0.  1.
<mgrwt>
<rscale>  0 0.74532031E+04</rscale>
<asrwt>0</asrwt>
<pdfrwt beam="1">  1        2 0.72279837E+00 0.74532031E+04</pdfrwt>
<pdfrwt beam="2">  1       -1 0.45475978E+00 0.74532031E+04</pdfrwt>
<totfact> 0.15685884E-04</totfact>
</mgrwt>
</event>
<event>
12    6  0.1395358E-007  0.1268902E+04  0.7818608E-02  0.9054596E-01
         -1   -1    0    0    0  501 -0.00000000000E+00  0.00000000000E+00  0.28818402296E+03  0.28818402296E+03  0.00000000000E+00 0.  1.
          2   -1    0    0  501    0  0.00000000000E+00 -0.00000000000E+00 -0.13967743947E+04  0.13967743947E+04  0.00000000000E+00 0. -1.
         24    2    1    2    0    0 -0.10648509615E+03 -0.13389885467E+03 -0.61761524651E+03  0.64586044406E+03  0.80119545016E+02 0.  0.
        254    2    1    2    0    0  0.10648509615E+03  0.13389885467E+03 -0.49097512520E+03  0.10390979736E+04  0.89966663056E+03 0.  0.
         23    2    4    4    0    0  0.34426828025E+03 -0.13159794938E+03 -0.55009557264E+03  0.66805647202E+03  0.88632058001E+02 0.  0.
         23    2    4    4    0    0 -0.23778318411E+03  0.26549680404E+03  0.59120447443E+02  0.37104150155E+03  0.84540954380E+02 0.  0.
          4    1    3    3  502    0 -0.72864869036E+02 -0.10386010421E+03 -0.55103365980E+03  0.56545053242E+03  0.00000000000E+00 0. -1.
         -1    1    3    3    0  502 -0.33620227111E+02 -0.30038750459E+02 -0.66581586712E+02  0.80409911635E+02  0.00000000000E+00 0.  1.
         11    1    5    5    0    0  0.61561998359E+02 -0.36053863645E+02 -0.55412774983E+02  0.90334580073E+02  0.00000000000E+00 0. -1.
        -11    1    5    5    0    0  0.28270628189E+03 -0.95544085731E+02 -0.49468279766E+03  0.57772189195E+03  0.00000000000E+00 0.  1.
          1    1    6    6  503    0 -0.10243182626E+03  0.17587497239E+03  0.23863953738E+02  0.20492382299E+03  0.00000000000E+00 0. -1.
         -1    1    6    6    0  503 -0.13535135785E+03  0.89621831655E+02  0.35256493706E+02  0.16611767856E+03  0.00000000000E+00 0.  1.
<mgrwt>
<rscale>  0 0.12689020E+04</rscale>
<asrwt>0</asrwt>
<pdfrwt beam="1">  1        2 0.21488837E+00 0.12689020E+04</pdfrwt>
<pdfrwt beam="2">  1       -1 0.44336002E-01 0.12689020E+04</pdfrwt>
<totfact> 0.81881714E+01</totfact>
</mgrwt>
</event>
<event>
12    6  0.1395358E-007  0.1309221E+04  0.7818608E-02  0.9022284E-01
         -1   -1    0    0    0  501 -0.00000000000E+00  0.00000000000E+00  0.42659452917E+03  0.42659452917E+03  0.00000000000E+00 0.  1.
          2   -1    0    0  501    0  0.00000000000E+00 -0.00000000000E+00 -0.10045021126E+04  0.10045021126E+04  0.00000000000E+00 0. -1.
         24    2    1    2    0    0 -0.21163898989E+03  0.18321284025E+03 -0.36056465543E+03  0.46248661681E+03  0.74357199451E+02 0.  0.
        254    2    1    2    0    0  0.21163898989E+03 -0.18321284025E+03 -0.21734292800E+03  0.96861002497E+03  0.90144851502E+03 0.  0.
         23    2    4    4    0    0 -0.16941853283E+03 -0.18192179618E+03 -0.44368437465E+03  0.51647513988E+03  0.89958693951E+02 0.  0.
         23    2    4    4    0    0  0.38105752272E+03 -0.12910440683E+01  0.22634144664E+03  0.45213488509E+03  0.89381214055E+02 0.  0.
          4    1    3    3  502    0 -0.77484849876E+02  0.10511953455E+03 -0.20241177997E+03  0.24088284948E+03  0.00000000000E+00 0. -1.
         -3    1    3    3    0  502 -0.13415414001E+03  0.78093305702E+02 -0.15815287546E+03  0.22160376733E+03  0.00000000000E+00 0.  1.
         11    1    5    5    0    0 -0.75654292287E+02 -0.10447601606E+03 -0.14550372504E+03  0.19444830643E+03  0.00000000000E+00 0. -1.
        -11    1    5    5    0    0 -0.93764240543E+02 -0.77445780128E+02 -0.29818064961E+03  0.32202683345E+03  0.00000000000E+00 0.  1.
          1    1    6    6  503    0  0.66611554290E+02  0.33673038795E+02  0.35515987528E+02  0.82658079319E+02  0.00000000000E+00 0. -1.
         -1    1    6    6    0  503  0.31444596843E+03 -0.34964082864E+02  0.19082545912E+03  0.36947680577E+03  0.00000000000E+00 0.  1.
<mgrwt>
<rscale>  0 0.13092213E+04</rscale>
<asrwt>0</asrwt>
<pdfrwt beam="1">  1        2 0.15453878E+00 0.13092213E+04</pdfrwt>
<pdfrwt beam="2">  1       -1 0.65629928E-01 0.13092213E+04</pdfrwt>
<totfact> 0.65808433E+01</totfact>
</mgrwt>
</event>
<event>
12    6  0.1395358E-007  0.2601206E+04  0.7818608E-02  0.8367792E-01
         -1   -1    0    0    0  501 -0.00000000000E+00  0.00000000000E+00  0.73422226980E+03  0.73422226980E+03  0.00000000000E+00 0.  1.
          2   -1    0    0  501    0  0.00000000000E+00 -0.00000000000E+00 -0.23038911539E+04  0.23038911539E+04  0.00000000000E+00 0. -1.
         24    2    1    2    0    0 -0.81309618047E+03 -0.78931688657E+03 -0.51529006741E+03  0.12473649089E+04  0.79049455086E+02 0.  0.
        254    2    1    2    0    0  0.81309618047E+03  0.78931688657E+03 -0.10543788167E+04  0.17907485148E+04  0.90051041524E+03 0.  0.
         23    2    4    4    0    0  0.96152323101E+03  0.64484313111E+03 -0.10474700503E+04  0.15639340165E+04  0.91359259543E+02 0.  0.
         23    2    4    4    0    0 -0.14842705054E+03  0.14447375546E+03 -0.69087664188E+01  0.22681449825E+03  0.92161978135E+02 0.  0.
          4    1    3    3  502    0 -0.54220031721E+03 -0.56877904364E+03 -0.37863399864E+03  0.87226973431E+03  0.00000000000E+00 0. -1.
         -3    1    3    3    0  502 -0.27089586325E+03 -0.22053784293E+03 -0.13665606878E+03  0.37509517463E+03  0.00000000000E+00 0.  1.
         11    1    5    5    0    0  0.82121531713E+03  0.58624952448E+03 -0.92172905036E+03  0.13666263368E+04  0.00000000000E+00 0. -1.
        -11    1    5    5    0    0  0.14030791388E+03  0.58593606629E+02 -0.12574099994E+03  0.19730767978E+03  0.00000000000E+00 0.  1.
          4    1    6    6  503    0 -0.15679746966E+03  0.11645811248E+03  0.46577672115E+01  0.19537050251E+03  0.00000000000E+00 0. -1.
         -4    1    6    6    0  503  0.83704191240E+01  0.28015642977E+02 -0.11566533630E+02  0.31443995738E+02  0.00000000000E+00 0.  1.
<mgrwt>
<rscale>  0 0.26012060E+04</rscale>
<asrwt>0</asrwt>
<pdfrwt beam="1">  1        2 0.35444479E+00 0.26012060E+04</pdfrwt>
<pdfrwt beam="2">  1       -1 0.11295727E+00 0.26012060E+04</pdfrwt>
<totfact> 0.32505777E+00</totfact>
</mgrwt>
</event>
<event>
12    6  0.1395358E-007  0.2647303E+04  0.7818608E-02  0.8352309E-01
         -3   -1    0    0    0  501 -0.00000000000E+00  0.00000000000E+00  0.25338588254E+04  0.25338588254E+04  0.00000000000E+00 0.  1.
          2   -1    0    0  501    0  0.00000000000E+00 -0.00000000000E+00 -0.69145641184E+03  0.69145641184E+03  0.00000000000E+00 0. -1.
         24    2    1    2    0    0 -0.33723142156E+03 -0.11000801080E+04  0.56398430261E+03  0.12839406870E+04  0.80772015165E+02 0.  0.
        254    2    1    2    0    0  0.33723142156E+03  0.11000801080E+04  0.12784181109E+04  0.19413745503E+04  0.90037825518E+03 0.  0.
         23    2    4    4    0    0 -0.76508782462E+02  0.17524158471E+02  0.56630711793E+03  0.57815845587E+03  0.86039283757E+02 0.  0.
         23    2    4    4    0    0  0.41374020402E+03  0.10825559495E+04  0.71211099301E+03  0.13632160944E+04  0.90264685480E+02 0.  0.
          2    1    3    3  502    0 -0.15734710839E+03 -0.39503948562E+03  0.22793285790E+03  0.48246004542E+03  0.00000000000E+00 0. -1.
         -1    1    3    3    0  502 -0.17988431317E+03 -0.70504062234E+03  0.33605144470E+03  0.80148064154E+03  0.00000000000E+00 0.  1.
         11    1    5    5    0    0  0.13148640307E+02  0.36581425514E+01  0.21136968474E+03  0.21180984957E+03  0.00000000000E+00 0. -1.
        -11    1    5    5    0    0 -0.89657422769E+02  0.13866015920E+02  0.35493743319E+03  0.36634860630E+03  0.00000000000E+00 0.  1.
          4    1    6    6  503    0  0.33364168019E+03  0.87305152668E+03  0.53107963654E+03  0.10749796832E+04  0.00000000000E+00 0. -1.
         -4    1    6    6    0  503  0.80098523828E+02  0.20950442281E+03  0.18103135647E+03  0.28823641117E+03  0.00000000000E+00 0.  1.
<mgrwt>
<rscale>  0 0.26473027E+04</rscale>
<asrwt>0</asrwt>
<pdfrwt beam="1">  1        2 0.10637791E+00 0.26473027E+04</pdfrwt>
<pdfrwt beam="2">  1       -3 0.38982443E+00 0.26473027E+04</pdfrwt>
<totfact> 0.27475464E-01</totfact>
</mgrwt>
</event>
<event>
12    6  0.1395358E-007  0.2157494E+04  0.7818608E-02  0.8536331E-01
          2   -1    0    0  501    0  0.00000000000E+00  0.00000000000E+00  0.49081170535E+03  0.49081170535E+03  0.00000000000E+00 0. -1.
         -1   -1    0    0    0  501 -0.00000000000E+00 -0.00000000000E+00 -0.23709600558E+04  0.23709600558E+04  0.00000000000E+00 0.  1.
         24    2    1    2    0    0  0.49485916868E+03 -0.32498964133E+03  0.10187674343E+03  0.60637981964E+03  0.82545448194E+02 0.  0.
        254    2    1    2    0    0 -0.49485916868E+03  0.32498964133E+03 -0.19820250939E+04  0.22553919416E+04  0.89881336957E+03 0.  0.
         23    2    4    4    0    0 -0.41960721166E+02 -0.24721552404E+03 -0.21868739886E+03  0.34481892525E+03  0.90552169166E+02 0.  0.
         23    2    4    4    0    0 -0.45289844751E+03  0.57220516537E+03 -0.17633376951E+04  0.19105730163E+04  0.91616967761E+02 0.  0.
          2    1    3    3  502    0  0.22972768655E+03 -0.18068280739E+03  0.16758080092E+02  0.29274890282E+03  0.00000000000E+00 0. -1.
         -1    1    3    3    0  502  0.26513148212E+03 -0.14430683394E+03  0.85118663335E+02  0.31363091682E+03  0.00000000000E+00 0.  1.
         11    1    5    5    0    0  0.47251372017E+01 -0.24881124691E+02  0.52013944127E+01  0.25854434655E+02  0.00000000000E+00 0.  1.
        -11    1    5    5    0    0 -0.46685858367E+02 -0.22233439935E+03 -0.22388879327E+03  0.31896449059E+03  0.00000000000E+00 0. -1.
          2    1    6    6  503    0 -0.18541040922E+03  0.26133429864E+03 -0.66513857723E+03  0.73829666287E+03  0.00000000000E+00 0. -1.
         -2    1    6    6    0  503 -0.26748803830E+03  0.31087086673E+03 -0.10981991178E+04  0.11722763534E+04  0.00000000000E+00 0.  1.
<mgrwt>
<rscale>  0 0.21574939E+04</rscale>
<asrwt>0</asrwt>
<pdfrwt beam="1">  1        2 0.75509492E-01 0.21574939E+04</pdfrwt>
<pdfrwt beam="2">  1       -1 0.36476309E+00 0.21574939E+04</pdfrwt>
<totfact> 0.81750147E-01</totfact>
</mgrwt>
</event>
<event>
12    6  0.1395358E-007  0.1161597E+04  0.7818608E-02  0.9147151E-01
         -1   -1    0    0    0  501 -0.00000000000E+00  0.00000000000E+00  0.14215420504E+03  0.14215420504E+03  0.00000000000E+00 0.  1.
          2   -1    0    0  501    0  0.00000000000E+00 -0.00000000000E+00 -0.23729628888E+04  0.23729628888E+04  0.00000000000E+00 0. -1.
         24    2    1    2    0    0 -0.23829682305E+02 -0.18228885521E+03 -0.64863335787E+03  0.67912617818E+03  0.81792740766E+02 0.  0.
        254    2    1    2    0    0  0.23829682305E+02  0.18228885521E+03 -0.15821753259E+04  0.18359909157E+04  0.91311926937E+03 0.  0.
         23    2    4    4    0    0 -0.37339004557E+02  0.34128755747E+03 -0.14310737920E+03  0.38395412177E+03  0.95234696930E+02 0.  0.
         23    2    4    4    0    0  0.61168686862E+02 -0.15899870225E+03 -0.14390679467E+04  0.14520367939E+04  0.92044011674E+02 0.  0.
          2    1    3    3  502    0  0.12980974467E+02 -0.15320856477E+03 -0.51723058824E+03  0.53960064069E+03  0.00000000000E+00 0. -1.
         -1    1    3    3    0  502 -0.36810656772E+02 -0.29080290441E+02 -0.13140276964E+03  0.13952553749E+03  0.00000000000E+00 0.  1.
         11    1    5    5    0    0 -0.46262653218E+01  0.25940375701E+02  0.14310245627E+02  0.29984805356E+02  0.00000000000E+00 0. -1.
        -11    1    5    5    0    0 -0.32712739235E+02  0.31534718177E+03 -0.15741762483E+03  0.35396931641E+03  0.00000000000E+00 0.  1.
          4    1    6    6  503    0  0.99777500875E+01 -0.13752926030E+03 -0.10575010058E+04  0.10664531073E+04  0.00000000000E+00 0.  1.
         -4    1    6    6    0  503  0.51190936775E+02 -0.21469441958E+02 -0.38156694093E+03  0.38558368658E+03  0.00000000000E+00 0. -1.
<mgrwt>
<rscale>  0 0.11615966E+04</rscale>
<asrwt>0</asrwt>
<pdfrwt beam="1">  1        2 0.36507117E+00 0.11615966E+04</pdfrwt>
<pdfrwt beam="2">  1       -1 0.21869880E-01 0.11615966E+04</pdfrwt>
<totfact> 0.82124838E+01</totfact>
</mgrwt>
</event>
<event>
12    6  0.1395358E-007  0.2143940E+04  0.7818608E-02  0.8542131E-01
          2   -1    0    0  501    0  0.00000000000E+00  0.00000000000E+00  0.61646422262E+03  0.61646422262E+03  0.00000000000E+00 0. -1.
         -1   -1    0    0    0  501 -0.00000000000E+00 -0.00000000000E+00 -0.18640493358E+04  0.18640493358E+04  0.00000000000E+00 0.  1.
         24    2    1    2    0    0 -0.42577363902E+03 -0.77106947320E+03 -0.53881316190E+03  0.10357020230E+04  0.80794386714E+02 0.  0.
        254    2    1    2    0    0  0.42577363902E+03  0.77106947320E+03 -0.70877195130E+03  0.14448115354E+04  0.89960623036E+03 0.  0.
         23    2    4    4    0    0 -0.13133656959E+03  0.61139592419E+02 -0.47942684874E+03  0.50937781399E+03  0.92888695854E+02 0.  0.
         23    2    4    4    0    0  0.55711020861E+03  0.70992988078E+03 -0.22934510256E+03  0.93543372141E+03  0.89804515072E+02 0.  0.
          2    1    3    3  502    0 -0.38836944626E+03 -0.73889381019E+03 -0.50109246908E+03  0.97359568204E+03  0.00000000000E+00 0. -1.
         -1    1    3    3    0  502 -0.37404192757E+02 -0.32175663009E+02 -0.37720692826E+02  0.62106341006E+02  0.00000000000E+00 0.  1.
         11    1    5    5    0    0 -0.13638747321E+03  0.32575188739E+02 -0.35676430546E+03  0.38333204330E+03  0.00000000000E+00 0.  1.
        -11    1    5    5    0    0  0.50509036142E+01  0.28564403680E+02 -0.12266254328E+03  0.12604577069E+03  0.00000000000E+00 0. -1.
          1    1    6    6  503    0  0.52733986085E+03  0.62999414846E+03 -0.20636105137E+03  0.84709198996E+03  0.00000000000E+00 0. -1.
         -1    1    6    6    0  503  0.29770347767E+02  0.79935732313E+02 -0.22984051190E+02  0.88341731450E+02  0.00000000000E+00 0.  1.
<mgrwt>
<rscale>  0 0.21439400E+04</rscale>
<asrwt>0</asrwt>
<pdfrwt beam="1">  1        2 0.94840649E-01 0.21439400E+04</pdfrwt>
<pdfrwt beam="2">  1       -1 0.28677682E+00 0.21439400E+04</pdfrwt>
<totfact> 0.20243911E+00</totfact>
</mgrwt>
</event>
<event>
12    6  0.1395358E-007  0.3849641E+04  0.7818608E-02  0.8035585E-01
          2   -1    0    0  501    0  0.00000000000E+00  0.00000000000E+00  0.53506405471E+04  0.53506405471E+04  0.00000000000E+00 0. -1.
         -1   -1    0    0    0  501 -0.00000000000E+00 -0.00000000000E+00 -0.69242803322E+03  0.69242803322E+03  0.00000000000E+00 0.  1.
         24    2    1    2    0    0  0.17143426194E+04 -0.52129769569E+03  0.26904026535E+04  0.32334522189E+04  0.78898098318E+02 0.  0.
        254    2    1    2    0    0 -0.17143426194E+04  0.52129769569E+03  0.19678098604E+04  0.28096163614E+04  0.90052570626E+03 0.  0.
         23    2    4    4    0    0 -0.10131521259E+04  0.29682205343E+02  0.56581205447E+03  0.11642820372E+04  0.89728020033E+02 0.  0.
         23    2    4    4    0    0 -0.70119049343E+03  0.49161549035E+03  0.14019978059E+04  0.16453343242E+04  0.90406262214E+02 0.  0.
          2    1    3    3  502    0  0.64175605499E+03 -0.15910290505E+03  0.10211311450E+04  0.12165004660E+04  0.00000000000E+00 0. -1.
         -1    1    3    3    0  502  0.10725865644E+04 -0.36219479064E+03  0.16692715085E+04  0.20169517529E+04  0.00000000000E+00 0.  1.
         11    1    5    5    0    0 -0.71075388503E+03  0.28647476548E+02  0.35002825291E+03  0.79278719770E+03  0.00000000000E+00 0. -1.
        -11    1    5    5    0    0 -0.30239824089E+03  0.10347287957E+01  0.21578380156E+03  0.37149483950E+03  0.00000000000E+00 0.  1.
          1    1    6    6  503    0 -0.49188949022E+03  0.31938054697E+03  0.10264568098E+04  0.11821898268E+04  0.00000000000E+00 0. -1.
         -1    1    6    6    0  503 -0.20930100321E+03  0.17223494338E+03  0.37554099613E+03  0.46314449736E+03  0.00000000000E+00 0.  1.
<mgrwt>
<rscale>  0 0.38496408E+04</rscale>
<asrwt>0</asrwt>
<pdfrwt beam="1">  1        2 0.82317544E+00 0.38496408E+04</pdfrwt>
<pdfrwt beam="2">  1       -1 0.10652739E+00 0.38496408E+04</pdfrwt>
<totfact> 0.79631217E-03</totfact>
</mgrwt>
</event>
<event>
12    6  0.1395358E-007  0.2095435E+04  0.7818608E-02  0.8563257E-01
          2   -1    0    0  501    0  0.00000000000E+00  0.00000000000E+00  0.13422588599E+04  0.13422588599E+04  0.00000000000E+00 0. -1.
         -1   -1    0    0    0  501 -0.00000000000E+00 -0.00000000000E+00 -0.81780938529E+03  0.81780938529E+03  0.00000000000E+00 0.  1.
         24    2    1    2    0    0  0.35945772823E+03  0.34157185521E+03 -0.50095794968E+03  0.70950421067E+03  0.80970160866E+02 0.  0.
        254    2    1    2    0    0 -0.35945772823E+03 -0.34157185521E+03  0.10254074243E+04  0.14505640346E+04  0.89821736893E+03 0.  0.
         23    2    4    4    0    0  0.20425561812E+03  0.14316171900E+03  0.36523108775E+03  0.45170371468E+03  0.91797947026E+02 0.  0.
         23    2    4    4    0    0 -0.56371334634E+03 -0.48473357421E+03  0.66017633658E+03  0.99886031988E+03  0.95654421968E+02 0.  0.
          2    1    3    3  502    0  0.41798170372E+02  0.65624023283E+02 -0.48782209749E+02  0.91833019477E+02  0.00000000000E+00 0. -1.
         -1    1    3    3    0  502  0.31765955786E+03  0.27594783193E+03 -0.45217573993E+03  0.61767119119E+03  0.00000000000E+00 0.  1.
         11    1    5    5    0    0  0.11892479935E+03  0.84778197939E+02  0.28709025642E+03  0.32210443350E+03  0.00000000000E+00 0. -1.
        -11    1    5    5    0    0  0.85330818762E+02  0.58383521065E+02  0.78140831327E+02  0.12959928118E+03  0.00000000000E+00 0.  1.
          2    1    6    6  503    0 -0.52914880428E+03 -0.47247563468E+03  0.60356900619E+03  0.93141141697E+03  0.00000000000E+00 0. -1.
         -2    1    6    6    0  503 -0.34564542068E+02 -0.12257939529E+02  0.56607330387E+02  0.67448902907E+02  0.00000000000E+00 0.  1.
<mgrwt>
<rscale>  0 0.20954349E+04</rscale>
<asrwt>0</asrwt>
<pdfrwt beam="1">  1        2 0.20650136E+00 0.20954349E+04</pdfrwt>
<pdfrwt beam="2">  1       -1 0.12581683E+00 0.20954349E+04</pdfrwt>
<totfact> 0.90382406E+00</totfact>
</mgrwt>
</event>
<event>
12    6  0.1395358E-007  0.2646074E+04  0.7818608E-02  0.8352717E-01
         -1   -1    0    0    0  501 -0.00000000000E+00  0.00000000000E+00  0.10269896080E+04  0.10269896080E+04  0.00000000000E+00 0.  1.
          2   -1    0    0  501    0  0.00000000000E+00 -0.00000000000E+00 -0.17044249641E+04  0.17044249641E+04  0.00000000000E+00 0. -1.
         24    2    1    2    0    0 -0.77380329499E+03 -0.69352728674E+03  0.25325063457E+03  0.10725666570E+04  0.80695185849E+02 0.  0.
        254    2    1    2    0    0  0.77380329499E+03  0.69352728674E+03 -0.93068599063E+03  0.16588479151E+04  0.89769056787E+03 0.  0.
         23    2    4    4    0    0  0.43899467186E+03  0.15388304021E+03 -0.89786825251E+03  0.10160961441E+04  0.99436730067E+02 0.  0.
         23    2    4    4    0    0  0.33480862313E+03  0.53964424652E+03 -0.32817738121E+02  0.64275177101E+03  0.93488546197E+02 0.  0.
          2    1    3    3  502    0 -0.23272224731E+03 -0.22254370414E+03  0.41829598277E+02  0.32470765303E+03  0.00000000000E+00 0. -1.
         -1    1    3    3    0  502 -0.54108104768E+03 -0.47098358260E+03  0.21142103629E+03  0.74785900397E+03  0.00000000000E+00 0.  1.
         11    1    5    5    0    0  0.38722954649E+03  0.12100404009E+03 -0.83463200453E+03  0.92800823400E+03  0.00000000000E+00 0. -1.
        -11    1    5    5    0    0  0.51765125369E+02  0.32879000127E+02 -0.63236247980E+02  0.88087910138E+02  0.00000000000E+00 0.  1.
          1    1    6    6  503    0  0.28657152040E+03  0.38558879166E+03 -0.20620855831E+02  0.48086086580E+03  0.00000000000E+00 0. -1.
         -1    1    6    6    0  503  0.48237102730E+02  0.15405545486E+03 -0.12196882290E+02  0.16189090521E+03  0.00000000000E+00 0.  1.
<mgrwt>
<rscale>  0 0.26460739E+04</rscale>
<asrwt>0</asrwt>
<pdfrwt beam="1">  1        2 0.26221922E+00 0.26460739E+04</pdfrwt>
<pdfrwt beam="2">  1       -1 0.15799840E+00 0.26460739E+04</pdfrwt>
<totfact> 0.29608820E+00</totfact>
</mgrwt>
</event>
<event>
12    6  0.1395358E-007  0.1581060E+04  0.7818608E-02  0.8832269E-01
          2   -1    0    0  501    0  0.00000000000E+00  0.00000000000E+00  0.67833848848E+03  0.67833848848E+03  0.00000000000E+00 0. -1.
         -1   -1    0    0    0  501 -0.00000000000E+00 -0.00000000000E+00 -0.92127656121E+03  0.92127656121E+03  0.00000000000E+00 0.  1.
         24    2    1    2    0    0 -0.35515733556E+03  0.39527266903E+03 -0.10950296299E+03  0.54842324307E+03  0.79999617219E+02 0.  0.
        254    2    1    2    0    0  0.35515733556E+03 -0.39527266903E+03 -0.13343510973E+03  0.10511918066E+04  0.89711876020E+03 0.  0.
         23    2    4    4    0    0  0.84214333581E+02 -0.36983688068E+03  0.32582582330E+03  0.50780836318E+03  0.88518327482E+02 0.  0.
         23    2    4    4    0    0  0.27094300198E+03 -0.25435788357E+02 -0.45926093302E+03  0.54338344343E+03  0.10142914940E+03 0.  0.
          2    1    3    3  502    0 -0.26077266378E+03  0.26754658857E+03 -0.42377871390E+02  0.37600457871E+03  0.00000000000E+00 0. -1.
         -3    1    3    3    0  502 -0.94384671776E+02  0.12772608046E+03 -0.67125091605E+02  0.17241866436E+03  0.00000000000E+00 0.  1.
         11    1    5    5    0    0  0.28094688493E+02 -0.19865912455E+02  0.20950955542E+02  0.40285338987E+02  0.00000000000E+00 0.  1.
        -11    1    5    5    0    0  0.56119645088E+02 -0.34997096822E+03  0.30487486776E+03  0.46752302419E+03  0.00000000000E+00 0. -1.
          1    1    6    6  503    0  0.25923026600E+03 -0.33110625559E+01 -0.37805862431E+03  0.45840987922E+03  0.00000000000E+00 0. -1.
         -1    1    6    6    0  503  0.11712735974E+02 -0.22124725801E+02 -0.81202308711E+02  0.84973564217E+02  0.00000000000E+00 0.  1.
<mgrwt>
<rscale>  0 0.15810596E+04</rscale>
<asrwt>0</asrwt>
<pdfrwt beam="1">  1        2 0.10435977E+00 0.15810596E+04</pdfrwt>
<pdfrwt beam="2">  1       -1 0.14173486E+00 0.15810596E+04</pdfrwt>
<totfact> 0.18979040E+01</totfact>
</mgrwt>
</event>
<event>
12    6  0.1395358E-007  0.1935588E+04  0.7818608E-02  0.8637342E-01
          2   -1    0    0  501    0  0.00000000000E+00  0.00000000000E+00  0.24484945260E+04  0.24484945260E+04  0.00000000000E+00 0. -1.
         -1   -1    0    0    0  501 -0.00000000000E+00 -0.00000000000E+00 -0.38253115870E+03  0.38253115870E+03  0.00000000000E+00 0.  1.
         24    2    1    2    0    0  0.14564040941E+03  0.70981397407E+03  0.49999028872E+03  0.88399909550E+03  0.80106837416E+02 0.  0.
        254    2    1    2    0    0 -0.14564040941E+03 -0.70981397407E+03  0.15659730786E+04  0.19470265892E+04  0.90199437335E+03 0.  0.
         23    2    4    4    0    0  0.29260153746E+03 -0.51569186220E+03  0.52339268143E+03  0.79600637909E+03  0.90180375398E+02 0.  0.
         23    2    4    4    0    0 -0.43824194686E+03 -0.19412211187E+03  0.10425803972E+04  0.11510202101E+04  0.90190028507E+02 0.  0.
          2    1    3    3  502    0  0.11551631562E+03  0.66534380902E+03  0.46222221468E+03  0.81833720380E+03  0.00000000000E+00 0. -1.
         -1    1    3    3    0  502  0.30124093783E+02  0.44470165054E+02  0.37768074033E+02  0.65661891705E+02  0.00000000000E+00 0.  1.
         11    1    5    5    0    0  0.24519473293E+03 -0.44337079925E+03  0.40097097917E+03  0.64612371015E+03  0.00000000000E+00 0.  1.
        -11    1    5    5    0    0  0.47406804531E+02 -0.72321062950E+02  0.12242170227E+03  0.14988266894E+03  0.00000000000E+00 0. -1.
          1    1    6    6  503    0 -0.50860642700E+02 -0.10610244784E+02  0.18676863373E+03  0.19386052929E+03  0.00000000000E+00 0. -1.
         -1    1    6    6    0  503 -0.38738130416E+03 -0.18351186709E+03  0.85581176347E+03  0.95715968086E+03  0.00000000000E+00 0.  1.
<mgrwt>
<rscale>  0 0.19355882E+04</rscale>
<asrwt>0</asrwt>
<pdfrwt beam="1">  1        2 0.37669146E+00 0.19355882E+04</pdfrwt>
<pdfrwt beam="2">  1       -1 0.58850949E-01 0.19355882E+04</pdfrwt>
<totfact> 0.11606368E+01</totfact>
</mgrwt>
</event>
<event>
12    6  0.1395358E-007  0.1381619E+04  0.7818608E-02  0.8967232E-01
         -1   -1    0    0    0  501 -0.00000000000E+00  0.00000000000E+00  0.71684867638E+03  0.71684867638E+03  0.00000000000E+00 0.  1.
          2   -1    0    0  501    0  0.00000000000E+00 -0.00000000000E+00 -0.66571616829E+03  0.66571616829E+03  0.00000000000E+00 0. -1.
         24    2    1    2    0    0 -0.13806911060E+02 -0.28167072417E+03 -0.25724978282E+03  0.39033452375E+03  0.81575498919E+02 0.  0.
        254    2    1    2    0    0  0.13806911060E+02  0.28167072417E+03  0.30838229091E+03  0.99223032092E+03  0.89994018955E+03 0.  0.
         23    2    4    4    0    0 -0.10855439282E+03 -0.12172034890E+03 -0.23433425912E+03  0.29924085558E+03  0.89625025037E+02 0.  0.
         23    2    4    4    0    0  0.12236130388E+03  0.40339107306E+03  0.54271655003E+03  0.69298946534E+03  0.89423145135E+02 0.  0.
          2    1    3    3  502    0 -0.27931423642E+02 -0.27486754606E+03 -0.25157755846E+03  0.37366241479E+03  0.00000000000E+00 0. -1.
         -1    1    3    3    0  502  0.14124512582E+02 -0.68031781018E+01 -0.56722243630E+01  0.16672108961E+02  0.00000000000E+00 0.  1.
         11    1    5    5    0    0 -0.44772554984E+02  0.22758298412E+01 -0.76207069836E+02  0.88415375214E+02  0.00000000000E+00 0. -1.
        -11    1    5    5    0    0 -0.63781837833E+02 -0.12399617874E+03 -0.15812718929E+03  0.21082548036E+03  0.00000000000E+00 0.  1.
          1    1    6    6  503    0  0.42520115538E+02  0.61025195294E+02  0.13910195803E+03  0.15773835746E+03  0.00000000000E+00 0. -1.
         -1    1    6    6    0  503  0.79841188339E+02  0.34236587777E+03  0.40361459200E+03  0.53525110789E+03  0.00000000000E+00 0.  1.
<mgrwt>
<rscale>  0 0.13816190E+04</rscale>
<asrwt>0</asrwt>
<pdfrwt beam="1">  1        2 0.10241787E+00 0.13816190E+04</pdfrwt>
<pdfrwt beam="2">  1       -1 0.11028441E+00 0.13816190E+04</pdfrwt>
<totfact> 0.36875814E+01</totfact>
</mgrwt>
</event>
<event>
12    6  0.1395358E-007  0.2494856E+04  0.7818608E-02  0.8404821E-01
          2   -1    0    0  501    0  0.00000000000E+00  0.00000000000E+00  0.21693967746E+04  0.21693967746E+04  0.00000000000E+00 0. -1.
         -1   -1    0    0    0  501 -0.00000000000E+00 -0.00000000000E+00 -0.71728511293E+03  0.71728511293E+03  0.00000000000E+00 0.  1.
         24    2    1    2    0    0 -0.87945578114E+03  0.52244602018E+03  0.21889584600E+03  0.10491578479E+04  0.80152875887E+02 0.  0.
        254    2    1    2    0    0  0.87945578114E+03 -0.52244602018E+03  0.12332158156E+04  0.18375240395E+04  0.89960048521E+03 0.  0.
         23    2    4    4    0    0  0.12325248705E+02  0.19468208170E+03  0.98856363476E+02  0.23714001853E+03  0.91704869546E+02 0.  0.
         23    2    4    4    0    0  0.86713053244E+03 -0.71712810188E+03  0.11343594522E+04  0.16003840210E+04  0.90937193920E+02 0.  0.
          4    1    3    3  502    0 -0.14161958638E+03  0.95815419216E+02  0.65829587329E+02  0.18322182286E+03  0.00000000000E+00 0. -1.
         -3    1    3    3    0  502 -0.73783619477E+03  0.42663060097E+03  0.15306625867E+03  0.86593602508E+03  0.00000000000E+00 0.  1.
         11    1    5    5    0    0  0.35015913934E+02  0.68052579783E+02  0.27915984917E+01  0.76583685377E+02  0.00000000000E+00 0.  1.
        -11    1    5    5    0    0 -0.22690665230E+02  0.12662950191E+03  0.96064764984E+02  0.16055633315E+03  0.00000000000E+00 0. -1.
          4    1    6    6  503    0  0.86886296099E+03 -0.71148147653E+03  0.11278684169E+04  0.15916079612E+04  0.00000000000E+00 0. -1.
         -4    1    6    6    0  503 -0.17324285558E+01 -0.56466253475E+01  0.64910353104E+01  0.87760598173E+01  0.00000000000E+00 0.  1.
<mgrwt>
<rscale>  0 0.24948555E+04</rscale>
<asrwt>0</asrwt>
<pdfrwt beam="1">  1        2 0.33375335E+00 0.24948555E+04</pdfrwt>
<pdfrwt beam="2">  1       -1 0.11035156E+00 0.24948555E+04</pdfrwt>
<totfact> 0.41301486E+00</totfact>
</mgrwt>
</event>
<event>
12    6  0.1395358E-007  0.5302172E+04  0.7818608E-02  0.7783513E-01
          2   -1    0    0  501    0  0.00000000000E+00  0.00000000000E+00  0.32888868316E+04  0.32888868316E+04  0.00000000000E+00 0. -1.
         -1   -1    0    0    0  501 -0.00000000000E+00 -0.00000000000E+00 -0.21369709732E+04  0.21369709732E+04  0.00000000000E+00 0.  1.
         24    2    1    2    0    0  0.44543138358E+03  0.21635601370E+04 -0.79277079217E+03  0.23482107614E+04  0.78782403220E+02 0.  0.
        254    2    1    2    0    0 -0.44543138358E+03 -0.21635601370E+04  0.19446866506E+04  0.30776470435E+04  0.90039078815E+03 0.  0.
         23    2    4    4    0    0 -0.25887967886E+03 -0.58884737511E+03  0.11020087396E+04  0.12796826128E+04  0.96976326066E+02 0.  0.
         23    2    4    4    0    0 -0.18655170472E+03 -0.15747127619E+04  0.84267791093E+03  0.17979644307E+04  0.89711825330E+02 0.  0.
          2    1    3    3  502    0  0.33373767115E+03  0.16242058285E+04 -0.63105269382E+03  0.17741625937E+04  0.00000000000E+00 0. -1.
         -1    1    3    3    0  502  0.11169371243E+03  0.53935430848E+03 -0.16171809835E+03  0.57404816767E+03  0.00000000000E+00 0.  1.
         11    1    5    5    0    0  0.79390899015E+00 -0.25188767288E+01 -0.17483949663E+01  0.31673200687E+01  0.00000000000E+00 0. -1.
        -11    1    5    5    0    0 -0.25967358785E+03 -0.58632849838E+03  0.11037571346E+04  0.12765152927E+04  0.00000000000E+00 0.  1.
          4    1    6    6  503    0 -0.15503069295E+03 -0.10666492137E+04  0.60687219845E+03  0.12369595491E+04  0.00000000000E+00 0. -1.
         -4    1    6    6    0  503 -0.31521011769E+02 -0.50806354814E+03  0.23580571249E+03  0.56100488160E+03  0.00000000000E+00 0.  1.
<mgrwt>
<rscale>  0 0.53021715E+04</rscale>
<asrwt>0</asrwt>
<pdfrwt beam="1">  1        2 0.50598259E+00 0.53021715E+04</pdfrwt>
<pdfrwt beam="2">  1       -1 0.32876476E+00 0.53021715E+04</pdfrwt>
<totfact> 0.19608489E-02</totfact>
</mgrwt>
</event>
<event>
12    6  0.1395358E-007  0.2604459E+04  0.7818608E-02  0.8366688E-01
         -1   -1    0    0    0  501 -0.00000000000E+00  0.00000000000E+00  0.42056920387E+03  0.42056920387E+03  0.00000000000E+00 0.  1.
          2   -1    0    0  501    0  0.00000000000E+00 -0.00000000000E+00 -0.40321582996E+04  0.40321582996E+04  0.00000000000E+00 0. -1.
         24    2    1    2    0    0 -0.74992197015E+03  0.83661974318E+03 -0.19578544424E+04  0.22587131299E+04  0.79217608489E+02 0.  0.
        254    2    1    2    0    0  0.74992197015E+03 -0.83661974318E+03 -0.16537346533E+04  0.21940143736E+04  0.90362891273E+03 0.  0.
         23    2    4    4    0    0  0.28439946980E+03 -0.12947653931E+03  0.95072829976E+01  0.32551100753E+03  0.90663084755E+02 0.  0.
         23    2    4    4    0    0  0.46552250035E+03 -0.70714320387E+03 -0.16632419363E+04  0.18685033661E+04  0.90379096765E+02 0.  0.
          2    1    3    3  502    0 -0.36508620556E+03  0.34829455790E+03 -0.87508166623E+03  0.10101311594E+04  0.00000000000E+00 0. -1.
         -1    1    3    3    0  502 -0.38483576460E+03  0.48832518527E+03 -0.10827727762E+04  0.12485819705E+04  0.00000000000E+00 0.  1.
         11    1    5    5    0    0  0.16468328947E+03 -0.70753207805E+02 -0.39334559952E+02  0.18350425023E+03  0.00000000000E+00 0. -1.
        -11    1    5    5    0    0  0.11971618033E+03 -0.58723331503E+02  0.48841842949E+02  0.14200675730E+03  0.00000000000E+00 0.  1.
          3    1    6    6  503    0  0.95422093280E+01 -0.41366342584E+02 -0.58358633669E+02  0.72166184473E+02  0.00000000000E+00 0. -1.
         -3    1    6    6    0  503  0.45598029102E+03 -0.66577686128E+03 -0.16048833027E+04  0.17963371816E+04  0.00000000000E+00 0.  1.
<mgrwt>
<rscale>  0 0.26044590E+04</rscale>
<asrwt>0</asrwt>
<pdfrwt beam="1">  1        2 0.62033203E+00 0.26044590E+04</pdfrwt>
<pdfrwt beam="2">  1       -1 0.64702957E-01 0.26044590E+04</pdfrwt>
<totfact> 0.78627987E-01</totfact>
</mgrwt>
</event>
<event>
12    6  0.1395358E-007  0.2374478E+04  0.7818608E-02  0.8449121E-01
         -1   -1    0    0    0  501 -0.00000000000E+00  0.00000000000E+00  0.46538952404E+03  0.46538952404E+03  0.00000000000E+00 0.  1.
          2   -1    0    0  501    0  0.00000000000E+00 -0.00000000000E+00 -0.30287250048E+04  0.30287250048E+04  0.00000000000E+00 0. -1.
         24    2    1    2    0    0  0.65500870465E+03 -0.73865339893E+03 -0.14453731438E+04  0.17520663268E+04  0.77379853854E+02 0.  0.
        254    2    1    2    0    0 -0.65500870465E+03  0.73865339893E+03 -0.11179623369E+04  0.17420482020E+04  0.90013715867E+03 0.  0.
         23    2    4    4    0    0 -0.76170338460E+03  0.71010566080E+03 -0.60196965507E+03  0.12062773629E+04  0.91079717353E+02 0.  0.
         23    2    4    4    0    0  0.10669467995E+03  0.28547738125E+02 -0.51599268184E+03  0.53577083914E+03  0.92753524303E+02 0.  0.
          2    1    3    3  502    0  0.59590158990E+03 -0.65573331939E+03 -0.13307524892E+04  0.15987454702E+04  0.00000000000E+00 0. -1.
         -1    1    3    3    0  502  0.59107114750E+02 -0.82920079535E+02 -0.11462065456E+03  0.15332085656E+03  0.00000000000E+00 0.  1.
         11    1    5    5    0    0 -0.35030125712E+03  0.38880877166E+03 -0.30279980217E+03  0.60462463715E+03  0.00000000000E+00 0. -1.
        -11    1    5    5    0    0 -0.41140212748E+03  0.32129688915E+03 -0.29916985291E+03  0.60165272571E+03  0.00000000000E+00 0.  1.
          1    1    6    6  503    0  0.10517697761E+03 -0.94879796069E+01 -0.35752562371E+03  0.37279590929E+03  0.00000000000E+00 0. -1.
         -1    1    6    6    0  503  0.15177023400E+01  0.38035717732E+02 -0.15846705814E+03  0.16297492985E+03  0.00000000000E+00 0.  1.
<mgrwt>
<rscale>  0 0.23744784E+04</rscale>
<asrwt>0</asrwt>
<pdfrwt beam="1">  1        2 0.46595768E+00 0.23744784E+04</pdfrwt>
<pdfrwt beam="2">  1       -1 0.71598390E-01 0.23744784E+04</pdfrwt>
<totfact> 0.33735206E+00</totfact>
</mgrwt>
</event>
<event>
12    6  0.1395358E-007  0.1964499E+04  0.7818608E-02  0.8623401E-01
         -1   -1    0    0    0  501 -0.00000000000E+00  0.00000000000E+00  0.58381187847E+03  0.58381187847E+03  0.00000000000E+00 0.  1.
          2   -1    0    0  501    0  0.00000000000E+00 -0.00000000000E+00 -0.16526117110E+04  0.16526117110E+04  0.00000000000E+00 0. -1.
         24    2    1    2    0    0  0.35620242617E+03  0.23995441371E+03 -0.11561799819E+04  0.12359160813E+04  0.79234590602E+02 0.  0.
        254    2    1    2    0    0 -0.35620242617E+03 -0.23995441371E+03  0.87380149439E+02  0.10005075081E+04  0.89940074174E+03 0.  0.
         23    2    4    4    0    0  0.28123445124E+01 -0.51978351680E+03  0.94942156584E+02  0.53604000352E+03  0.90233356683E+02 0.  0.
         23    2    4    4    0    0 -0.35901477068E+03  0.27982910308E+03 -0.75620071454E+01  0.46446750461E+03  0.92070333927E+02 0.  0.
          4    1    3    3  502    0  0.29645466402E+03  0.23202772904E+03 -0.99802308535E+03  0.10666641054E+04  0.00000000000E+00 0. -1.
         -3    1    3    3    0  502  0.59747762149E+02  0.79266846744E+01 -0.15815689660E+03  0.16925197592E+03  0.00000000000E+00 0.  1.
         11    1    5    5    0    0  0.44196679488E+02 -0.34287987720E+03  0.55786528377E+02  0.35018865404E+03  0.00000000000E+00 0.  1.
        -11    1    5    5    0    0 -0.41384334976E+02 -0.17690363959E+03  0.39155628208E+02  0.18585134948E+03  0.00000000000E+00 0. -1.
          1    1    6    6  503    0 -0.13174238324E+03  0.15659763612E+03 -0.20125638364E+02  0.20563053396E+03  0.00000000000E+00 0. -1.
         -1    1    6    6    0  503 -0.22727238744E+03  0.12323146696E+03  0.12563631219E+02  0.25883697065E+03  0.00000000000E+00 0.  1.
<mgrwt>
<rscale>  0 0.19644993E+04</rscale>
<asrwt>0</asrwt>
<pdfrwt beam="1">  1        2 0.25424795E+00 0.19644993E+04</pdfrwt>
<pdfrwt beam="2">  1       -1 0.89817214E-01 0.19644993E+04</pdfrwt>
<totfact> 0.13420442E+01</totfact>
</mgrwt>
</event>
<event>
12    6  0.1395358E-007  0.2494795E+04  0.7818608E-02  0.8404842E-01
         -3   -1    0    0    0  501 -0.00000000000E+00  0.00000000000E+00  0.19618362715E+04  0.19618362715E+04  0.00000000000E+00 0.  1.
          4   -1    0    0  501    0  0.00000000000E+00 -0.00000000000E+00 -0.79313473757E+03  0.79313473757E+03  0.00000000000E+00 0. -1.
         24    2    1    2    0    0  0.82530899710E+03 -0.51501380129E+03  0.10349485022E+04  0.14226485993E+04  0.80227667971E+02 0.  0.
        254    2    1    2    0    0 -0.82530899710E+03  0.51501380129E+03  0.13375303167E+03  0.13323224097E+04  0.90045487046E+03 0.  0.
         23    2    4    4    0    0 -0.10090065686E+03  0.57051207700E+03  0.12662103767E+03  0.60003286946E+03  0.91332276291E+02 0.  0.
         23    2    4    4    0    0 -0.72440834024E+03 -0.55498275706E+02  0.71319940031E+01  0.73228954026E+03  0.91376164406E+02 0.  0.
          4    1    3    3  502    0  0.81622575566E+03 -0.50045219619E+03  0.10044898815E+04  0.13876875754E+04  0.00000000000E+00 0. -1.
         -3    1    3    3    0  502  0.90832414381E+01 -0.14561605101E+02  0.30458620716E+02  0.34961023927E+02  0.00000000000E+00 0.  1.
         11    1    5    5    0    0 -0.24487228529E+02  0.23811140775E+02  0.12309757892E+02  0.36305990214E+02  0.00000000000E+00 0.  1.
        -11    1    5    5    0    0 -0.76413428332E+02  0.54670093622E+03  0.11431127977E+03  0.56372687924E+03  0.00000000000E+00 0. -1.
          1    1    6    6  503    0 -0.55196086798E+03 -0.78022241811E+02  0.20844367934E+02  0.55783757284E+03  0.00000000000E+00 0. -1.
         -1    1    6    6    0  503 -0.17244747226E+03  0.22523966104E+02 -0.13712373931E+02  0.17445196742E+03  0.00000000000E+00 0.  1.
<mgrwt>
<rscale>  0 0.24947950E+04</rscale>
<asrwt>0</asrwt>
<pdfrwt beam="1">  1        4 0.12202073E+00 0.24947950E+04</pdfrwt>
<pdfrwt beam="2">  1       -3 0.30182096E+00 0.24947950E+04</pdfrwt>
<totfact> 0.38403127E-02</totfact>
</mgrwt>
</event>
<event>
12    6  0.1395358E-007  0.1645028E+04  0.7818608E-02  0.8793354E-01
         -1   -1    0    0    0  501 -0.00000000000E+00  0.00000000000E+00  0.15719293062E+03  0.15719293062E+03  0.00000000000E+00 0.  1.
          2   -1    0    0  501    0  0.00000000000E+00 -0.00000000000E+00 -0.43038126549E+04  0.43038126549E+04  0.00000000000E+00 0. -1.
         24    2    1    2    0    0  0.55946917146E+03 -0.12232590693E+03 -0.14693164543E+04  0.15789867192E+04  0.79616802839E+02 0.  0.
        254    2    1    2    0    0 -0.55946917146E+03  0.12232590693E+03 -0.26773032700E+04  0.28820188663E+04  0.90006142288E+03 0.  0.
         23    2    4    4    0    0 -0.40037851427E+03  0.24315453152E+03 -0.26076892371E+04  0.26510299110E+04  0.92137672408E+02 0.  0.
         23    2    4    4    0    0 -0.15909065719E+03 -0.12082862459E+03 -0.69614032862E+02  0.23098895532E+03  0.92738288640E+02 0.  0.
          2    1    3    3  502    0  0.10843210755E+03  0.34968245042E+01 -0.23497512087E+03  0.25881085208E+03  0.00000000000E+00 0. -1.
         -1    1    3    3    0  502  0.45103706391E+03 -0.12582273143E+03 -0.12343413334E+04  0.13201758671E+04  0.00000000000E+00 0.  1.
         11    1    5    5    0    0 -0.94246969145E+02  0.14624344240E+02 -0.51533668655E+03  0.52408802995E+03  0.00000000000E+00 0. -1.
        -11    1    5    5    0    0 -0.30613154512E+03  0.22853018728E+03 -0.20923525506E+04  0.21269418811E+04  0.00000000000E+00 0.  1.
          3    1    6    6  503    0 -0.17769985492E+02 -0.10884701030E+02  0.21625312839E+02  0.30031704185E+02  0.00000000000E+00 0. -1.
         -3    1    6    6    0  503 -0.14132067170E+03 -0.10994392356E+03 -0.91239345701E+02  0.20095725113E+03  0.00000000000E+00 0.  1.
<mgrwt>
<rscale>  0 0.16450276E+04</rscale>
<asrwt>0</asrwt>
<pdfrwt beam="1">  1        2 0.66212490E+00 0.16450276E+04</pdfrwt>
<pdfrwt beam="2">  1       -1 0.24183532E-01 0.16450276E+04</pdfrwt>
<totfact> 0.31115219E+00</totfact>
</mgrwt>
</event>
<event>
12    6  0.1395358E-007  0.3992775E+04  0.7818608E-02  0.8006006E-01
          2   -1    0    0  501    0  0.00000000000E+00  0.00000000000E+00  0.23402378249E+04  0.23402378249E+04  0.00000000000E+00 0. -1.
         -1   -1    0    0    0  501 -0.00000000000E+00 -0.00000000000E+00 -0.17030593872E+04  0.17030593872E+04  0.00000000000E+00 0.  1.
         24    2    1    2    0    0 -0.19515303478E+03 -0.11200056796E+04  0.18368931207E+04  0.21617233858E+04  0.79838777391E+02 0.  0.
        254    2    1    2    0    0  0.19515303478E+03  0.11200056796E+04 -0.11997146830E+04  0.18815738263E+04  0.89917034749E+03 0.  0.
         23    2    4    4    0    0 -0.19474459997E+03 -0.25569384046E+02 -0.80193410196E+02  0.23064936211E+03  0.90492500161E+02 0.  0.
         23    2    4    4    0    0  0.38989763475E+03  0.11455750637E+04 -0.11195212728E+04  0.16509244642E+04  0.88664051814E+02 0.  0.
          4    1    3    3  502    0 -0.15062873087E+03 -0.98771481970E+03  0.16397359721E+04  0.19201571909E+04  0.00000000000E+00 0. -1.
         -3    1    3    3    0  502 -0.44524303908E+02 -0.13229085994E+03  0.19715714863E+03  0.24156619490E+03  0.00000000000E+00 0.  1.
         11    1    5    5    0    0 -0.17377427830E+03 -0.59230401431E+01 -0.35417312763E+02  0.17744567689E+03  0.00000000000E+00 0. -1.
        -11    1    5    5    0    0 -0.20970321667E+02 -0.19646343903E+02 -0.44776097433E+02  0.53203685220E+02  0.00000000000E+00 0.  1.
          3    1    6    6  503    0  0.26107956504E+03  0.63274966016E+03 -0.64207614626E+03  0.93850756487E+03  0.00000000000E+00 0. -1.
         -3    1    6    6    0  503  0.12881806971E+03  0.51282540352E+03 -0.47744512655E+03  0.71241689933E+03  0.00000000000E+00 0.  1.
<mgrwt>
<rscale>  0 0.39927755E+04</rscale>
<asrwt>0</asrwt>
<pdfrwt beam="1">  1        2 0.36003659E+00 0.39927755E+04</pdfrwt>
<pdfrwt beam="2">  1       -1 0.26200914E+00 0.39927755E+04</pdfrwt>
<totfact> 0.22474329E-01</totfact>
</mgrwt>
</event>
<event>
12    6  0.1395358E-007  0.1772272E+04  0.7818608E-02  0.8721186E-01
         -1   -1    0    0    0  501 -0.00000000000E+00  0.00000000000E+00  0.10403040496E+04  0.10403040496E+04  0.00000000000E+00 0.  1.
          2   -1    0    0  501    0  0.00000000000E+00 -0.00000000000E+00 -0.75481459047E+03  0.75481459047E+03  0.00000000000E+00 0. -1.
         24    2    1    2    0    0 -0.37358301190E+03  0.53760144546E+03  0.13021033696E+03  0.67010535278E+03  0.59218840121E+02 0.  0.
        254    2    1    2    0    0  0.37358301190E+03 -0.53760144546E+03  0.15527912216E+03  0.11250132873E+04  0.90164500212E+03 0.  0.
         23    2    4    4    0    0  0.36181737798E+03 -0.75818642099E+03  0.95071451206E+01  0.84481142799E+03  0.88642535323E+02 0.  0.
         23    2    4    4    0    0  0.11765633922E+02  0.22058497553E+03  0.14577197704E+03  0.28020185931E+03  0.92018754058E+02 0.  0.
          4    1    3    3  502    0 -0.18914245225E+02  0.12714124366E+02  0.11763659129E+02  0.25647247551E+02  0.00000000000E+00 0. -1.
         -3    1    3    3    0  502 -0.35466876668E+03  0.52488732109E+03  0.11844667783E+03  0.64445810523E+03  0.00000000000E+00 0.  1.
         11    1    5    5    0    0  0.26205160653E+03 -0.62821846912E+03  0.15470293404E+02  0.68085888362E+03  0.00000000000E+00 0.  1.
        -11    1    5    5    0    0  0.99765771456E+02 -0.12996795187E+03 -0.59631482830E+01  0.16395254437E+03  0.00000000000E+00 0. -1.
          2    1    6    6  503    0 -0.25325494869E+02  0.93216731432E+02  0.10206655739E+03  0.14052872250E+03  0.00000000000E+00 0. -1.
         -2    1    6    6    0  503  0.37091128791E+02  0.12736824409E+03  0.43705419648E+02  0.13967313681E+03  0.00000000000E+00 0.  1.
<mgrwt>
<rscale>  0 0.17722716E+04</rscale>
<asrwt>0</asrwt>
<pdfrwt beam="1">  1        2 0.11612532E+00 0.17722716E+04</pdfrwt>
<pdfrwt beam="2">  1       -1 0.16004678E+00 0.17722716E+04</pdfrwt>
<totfact> 0.11730327E+01</totfact>
</mgrwt>
</event>
<event>
12    6  0.1395358E-007  0.5018720E+04  0.7818608E-02  0.7825626E-01
         -1   -1    0    0    0  501 -0.00000000000E+00  0.00000000000E+00  0.15356089586E+04  0.15356089586E+04  0.00000000000E+00 0.  1.
          2   -1    0    0  501    0  0.00000000000E+00 -0.00000000000E+00 -0.41005795825E+04  0.41005795825E+04  0.00000000000E+00 0. -1.
         24    2    1    2    0    0  0.16412184478E+04 -0.28905318324E+03 -0.32247002840E+04  0.36307125771E+04  0.78944029424E+02 0.  0.
        254    2    1    2    0    0 -0.16412184478E+04  0.28905318324E+03  0.65972966012E+03  0.20054759640E+04  0.89974489800E+03 0.  0.
         23    2    4    4    0    0 -0.10354229607E+04 -0.77775930064E+02  0.13263064403E+02  0.10422791361E+04  0.89554931499E+02 0.  0.
         23    2    4    4    0    0 -0.60579548710E+03  0.36682911330E+03  0.64646659572E+03  0.96319682790E+03  0.90979664473E+02 0.  0.
          2    1    3    3  502    0  0.95854181269E+03 -0.14410098304E+03 -0.19406354171E+04  0.21692471787E+04  0.00000000000E+00 0. -1.
         -1    1    3    3    0  502  0.68267663512E+03 -0.14495220020E+03 -0.12840648669E+04  0.14614653984E+04  0.00000000000E+00 0.  1.
         11    1    5    5    0    0 -0.79058675540E+03 -0.89707919257E+02  0.33122542801E+02  0.79634918938E+03  0.00000000000E+00 0. -1.
        -11    1    5    5    0    0 -0.24483620532E+03  0.11931989193E+02 -0.19859478399E+02  0.24592994670E+03  0.00000000000E+00 0.  1.
          1    1    6    6  503    0 -0.50277970877E+03  0.29852099569E+03  0.57665777667E+03  0.82124077578E+03  0.00000000000E+00 0. -1.
         -1    1    6    6    0  503 -0.10301577833E+03  0.68308117608E+02  0.69808819055E+02  0.14195605212E+03  0.00000000000E+00 0.  1.
<mgrwt>
<rscale>  0 0.50187197E+04</rscale>
<asrwt>0</asrwt>
<pdfrwt beam="1">  1        2 0.63085840E+00 0.50187197E+04</pdfrwt>
<pdfrwt beam="2">  1       -1 0.23624753E+00 0.50187197E+04</pdfrwt>
<totfact> 0.19902262E-02</totfact>
</mgrwt>
</event>
<event>
12    6  0.1395358E-007  0.1275762E+04  0.7818608E-02  0.9049010E-01
         -1   -1    0    0    0  501 -0.00000000000E+00  0.00000000000E+00  0.95110199474E+03  0.95110199474E+03  0.00000000000E+00 0.  1.
          2   -1    0    0  501    0  0.00000000000E+00 -0.00000000000E+00 -0.42781101398E+03  0.42781101398E+03  0.00000000000E+00 0. -1.
         24    2    1    2    0    0  0.29142039411E+01  0.16883184340E+03 -0.15127803238E+03  0.24035677150E+03  0.79835146349E+02 0.  0.
        254    2    1    2    0    0 -0.29142039411E+01 -0.16883184340E+03  0.67456901315E+03  0.11385562372E+04  0.90152885029E+03 0.  0.
         23    2    4    4    0    0 -0.17835622872E+03  0.31784874978E+03  0.18036363776E+03  0.41718443552E+03  0.93129154154E+02 0.  0.
         23    2    4    4    0    0  0.17544202478E+03 -0.48668059318E+03  0.49420537539E+03  0.72137180171E+03  0.92197719087E+02 0.  0.
          2    1    3    3  502    0  0.28484693906E+02  0.15521574316E+03 -0.12749540559E+03  0.20287528967E+03  0.00000000000E+00 0. -1.
         -1    1    3    3    0  502 -0.25570489965E+02  0.13616100237E+02 -0.23782626797E+02  0.37481481829E+02  0.00000000000E+00 0.  1.
         11    1    5    5    0    0 -0.92609978690E+02  0.17931520880E+03  0.48447194861E+02  0.20755163923E+03  0.00000000000E+00 0.  1.
        -11    1    5    5    0    0 -0.85746250028E+02  0.13853354098E+03  0.13191644289E+03  0.20963279628E+03  0.00000000000E+00 0. -1.
          3    1    6    6  503    0  0.66025722213E+02 -0.27540224660E+03  0.22206086444E+03  0.35988445499E+03  0.00000000000E+00 0. -1.
         -3    1    6    6    0  503  0.10941630256E+03 -0.21127834658E+03  0.27214451096E+03  0.36148734672E+03  0.00000000000E+00 0.  1.
<mgrwt>
<rscale>  0 0.12757616E+04</rscale>
<asrwt>0</asrwt>
<pdfrwt beam="1">  1        2 0.65817079E-01 0.12757616E+04</pdfrwt>
<pdfrwt beam="2">  1       -1 0.14632338E+00 0.12757616E+04</pdfrwt>
<totfact> 0.30871900E+01</totfact>
</mgrwt>
</event>
<event>
12    6  0.1395358E-007  0.1239304E+04  0.7818608E-02  0.9079133E-01
         -1   -1    0    0    0  501 -0.00000000000E+00  0.00000000000E+00  0.17146004414E+03  0.17146004414E+03  0.00000000000E+00 0.  1.
          2   -1    0    0  501    0  0.00000000000E+00 -0.00000000000E+00 -0.22394068330E+04  0.22394068330E+04  0.00000000000E+00 0. -1.
         24    2    1    2    0    0 -0.12666168743E+03  0.24266639313E+03 -0.34582641615E+03  0.44789774834E+03  0.78014879624E+02 0.  0.
        254    2    1    2    0    0  0.12666168743E+03 -0.24266639313E+03 -0.17221203727E+04  0.19629691288E+04  0.90145385968E+03 0.  0.
         23    2    4    4    0    0 -0.12377839409E+03 -0.38414007864E+03 -0.15746048820E+04  0.16280044435E+04  0.90184492350E+02 0.  0.
         23    2    4    4    0    0  0.25044008152E+03  0.14147368551E+03 -0.14751549065E+03  0.33496468529E+03  0.87780876528E+02 0.  0.
          4    1    3    3  502    0 -0.86933756529E+02  0.12322157369E+03 -0.24000182964E+03  0.28344648962E+03  0.00000000000E+00 0. -1.
         -1    1    3    3    0  502 -0.39727930900E+02  0.11944481944E+03 -0.10582458651E+03  0.16445125872E+03  0.00000000000E+00 0.  1.
         11    1    5    5    0    0 -0.87999067999E+02 -0.26230373664E+03 -0.90050640093E+03  0.94205035128E+03  0.00000000000E+00 0. -1.
        -11    1    5    5    0    0 -0.35779326094E+02 -0.12183634200E+03 -0.67409848111E+03  0.68595409223E+03  0.00000000000E+00 0.  1.
          4    1    6    6  503    0  0.11154046137E+03  0.11067163595E+03 -0.93102624889E+02  0.18264058773E+03  0.00000000000E+00 0. -1.
         -4    1    6    6    0  503  0.13889962015E+03  0.30802049562E+02 -0.54412865764E+02  0.15232409756E+03  0.00000000000E+00 0.  1.
<mgrwt>
<rscale>  0 0.12393043E+04</rscale>
<asrwt>0</asrwt>
<pdfrwt beam="1">  1        2 0.34452413E+00 0.12393043E+04</pdfrwt>
<pdfrwt beam="2">  1       -1 0.26378468E-01 0.12393043E+04</pdfrwt>
<totfact> 0.70441800E+01</totfact>
</mgrwt>
</event>
<event>
12    6  0.1395358E-007  0.2637426E+04  0.7818608E-02  0.8355599E-01
         -1   -1    0    0    0  501 -0.00000000000E+00  0.00000000000E+00  0.59248012310E+03  0.59248012310E+03  0.00000000000E+00 0.  1.
          2   -1    0    0  501    0  0.00000000000E+00 -0.00000000000E+00 -0.29351253790E+04  0.29351253790E+04  0.00000000000E+00 0. -1.
         24    2    1    2    0    0  0.18526610941E+03  0.89975889218E+03 -0.81877638504E+02  0.92584885017E+03  0.81256078626E+02 0.  0.
        254    2    1    2    0    0 -0.18526610941E+03 -0.89975889218E+03 -0.22607676174E+04  0.26017566519E+04  0.90231804850E+03 0.  0.
         23    2    4    4    0    0  0.35447837570E+03 -0.43787344274E+03 -0.96641493971E+03  0.11223442442E+04  0.91163019319E+02 0.  0.
         23    2    4    4    0    0 -0.53974448511E+03 -0.46188544945E+03 -0.12943526777E+04  0.14794124077E+04  0.93005055311E+02 0.  0.
          4    1    3    3  502    0  0.24417015141E+02  0.18452601613E+03 -0.46727517368E+02  0.19191014079E+03  0.00000000000E+00 0. -1.
         -3    1    3    3    0  502  0.16084909427E+03  0.71523287605E+03 -0.35150121136E+02  0.73393870938E+03  0.00000000000E+00 0.  1.
         11    1    5    5    0    0  0.30719220036E+03 -0.39458356796E+03 -0.79348650314E+03  0.93791474598E+03  0.00000000000E+00 0. -1.
        -11    1    5    5    0    0  0.47286175339E+02 -0.43289874773E+02 -0.17292843657E+03  0.18442949821E+03  0.00000000000E+00 0.  1.
          2    1    6    6  503    0 -0.57950845282E+02 -0.88896129239E+02 -0.22169266264E+03  0.24578132340E+03  0.00000000000E+00 0.  1.
         -2    1    6    6    0  503 -0.48179363983E+03 -0.37298932021E+03 -0.10726600151E+04  0.12336310843E+04  0.00000000000E+00 0. -1.
<mgrwt>
<rscale>  0 0.26374256E+04</rscale>
<asrwt>0</asrwt>
<pdfrwt beam="1">  1        2 0.45155774E+00 0.26374256E+04</pdfrwt>
<pdfrwt beam="2">  1       -1 0.91150790E-01 0.26374256E+04</pdfrwt>
<totfact> 0.22497990E+00</totfact>
</mgrwt>
</event>
<event>
12    6  0.1395358E-007  0.1216426E+04  0.7818608E-02  0.9098599E-01
         -1   -1    0    0    0  501 -0.00000000000E+00  0.00000000000E+00  0.35750458337E+03  0.35750458337E+03  0.00000000000E+00 0.  1.
          2   -1    0    0  501    0  0.00000000000E+00 -0.00000000000E+00 -0.10347368879E+04  0.10347368879E+04  0.00000000000E+00 0. -1.
         24    2    1    2    0    0  0.16814140463E+03  0.64436135816E+02  0.70095771896E+02  0.20910409753E+03  0.79922204775E+02 0.  0.
        254    2    1    2    0    0 -0.16814140463E+03 -0.64436135816E+02 -0.74732807643E+03  0.11831373737E+04  0.89938381339E+03 0.  0.
         23    2    4    4    0    0  0.10900342459E+03 -0.33061221535E+03 -0.25689475404E+02  0.36051066216E+03  0.90121056767E+02 0.  0.
         23    2    4    4    0    0 -0.27714482922E+03  0.26617607954E+03 -0.72163860102E+03  0.82262671158E+03  0.91068515113E+02 0.  0.
          4    1    3    3  502    0  0.22272118586E+02  0.44463113117E+02  0.19660566243E+02  0.53474793682E+02  0.00000000000E+00 0. -1.
         -3    1    3    3    0  502  0.14586928604E+03  0.19973022699E+02  0.50435205653E+02  0.15562930385E+03  0.00000000000E+00 0.  1.
         11    1    5    5    0    0  0.86581710597E+02 -0.12103228308E+03 -0.96367918143E+01  0.14912435722E+03  0.00000000000E+00 0.  1.
        -11    1    5    5    0    0  0.22421713992E+02 -0.20957993227E+03 -0.16052683590E+02  0.21138630495E+03  0.00000000000E+00 0. -1.
          3    1    6    6  503    0 -0.19795472669E+03  0.18314880076E+03 -0.58523982985E+03  0.64438747309E+03  0.00000000000E+00 0. -1.
         -3    1    6    6    0  503 -0.79190102532E+02  0.83027278777E+02 -0.13639877117E+03  0.17823923849E+03  0.00000000000E+00 0.  1.
<mgrwt>
<rscale>  0 0.12164262E+04</rscale>
<asrwt>0</asrwt>
<pdfrwt beam="1">  1        2 0.15919029E+00 0.12164262E+04</pdfrwt>
<pdfrwt beam="2">  1       -1 0.55000705E-01 0.12164262E+04</pdfrwt>
<totfact> 0.89887323E+01</totfact>
</mgrwt>
</event>
<event>
12    6  0.1395358E-007  0.1548041E+04  0.7818608E-02  0.8853120E-01
          2   -1    0    0  501    0  0.00000000000E+00  0.00000000000E+00  0.14174283481E+04  0.14174283481E+04  0.00000000000E+00 0. -1.
         -1   -1    0    0    0  501 -0.00000000000E+00 -0.00000000000E+00 -0.42267257210E+03  0.42267257210E+03  0.00000000000E+00 0.  1.
         24    2    1    2    0    0  0.33280598887E+03  0.12081645999E+03 -0.99080187638E+02  0.37626938579E+03  0.80033267242E+02 0.  0.
        254    2    1    2    0    0 -0.33280598887E+03 -0.12081645999E+03  0.10938359636E+04  0.14638315344E+04  0.90607350835E+03 0.  0.
         23    2    4    4    0    0 -0.53482291932E+03  0.19463787070E+03  0.54009963139E+03  0.78967795291E+03  0.89242376421E+02 0.  0.
         23    2    4    4    0    0  0.20201693045E+03 -0.31545433069E+03  0.55373633221E+03  0.67415358146E+03  0.86815038135E+02 0.  0.
          2    1    3    3  502    0  0.11558413018E+03  0.26239788364E+02  0.23589339599E+01  0.11854864913E+03  0.00000000000E+00 0. -1.
         -1    1    3    3    0  502  0.21722185869E+03  0.94576671627E+02 -0.10143912160E+03  0.25772073665E+03  0.00000000000E+00 0.  1.
         11    1    5    5    0    0 -0.46824784751E+03  0.19247333623E+03  0.50193004146E+03  0.71290658461E+03  0.00000000000E+00 0. -1.
        -11    1    5    5    0    0 -0.66575071806E+02  0.21645344654E+01  0.38169589928E+02  0.76771368300E+02  0.00000000000E+00 0.  1.
          4    1    6    6  503    0  0.17419542680E+03 -0.24936633786E+03  0.38391666582E+03  0.48981590773E+03  0.00000000000E+00 0. -1.
         -4    1    6    6    0  503  0.27821503653E+02 -0.66087992832E+02  0.16981966640E+03  0.18433767373E+03  0.00000000000E+00 0.  1.
<mgrwt>
<rscale>  0 0.15480415E+04</rscale>
<asrwt>0</asrwt>
<pdfrwt beam="1">  1        2 0.21806590E+00 0.15480415E+04</pdfrwt>
<pdfrwt beam="2">  1       -1 0.65026550E-01 0.15480415E+04</pdfrwt>
<totfact> 0.37203405E+01</totfact>
</mgrwt>
</event>
<event>
12    6  0.1395358E-007  0.3921989E+04  0.7818608E-02  0.8020471E-01
         -1   -1    0    0    0  501 -0.00000000000E+00  0.00000000000E+00  0.15868089457E+04  0.15868089457E+04  0.00000000000E+00 0.  1.
          2   -1    0    0  501    0  0.00000000000E+00 -0.00000000000E+00 -0.24234171395E+04  0.24234171395E+04  0.00000000000E+00 0. -1.
         24    2    1    2    0    0  0.15531921040E+04  0.72876149280E+03  0.33089165102E+03  0.17491970057E+04  0.81864857670E+02 0.  0.
        254    2    1    2    0    0 -0.15531921040E+04 -0.72876149280E+03 -0.11674998448E+04  0.22610290795E+04  0.89760658730E+03 0.  0.
         23    2    4    4    0    0 -0.14253683553E+03 -0.39840243329E+03 -0.50603966152E+03  0.66573674648E+03  0.89933465687E+02 0.  0.
         23    2    4    4    0    0 -0.14106552684E+04 -0.33035905951E+03 -0.66146018332E+03  0.15952923331E+04  0.91338158486E+02 0.  0.
          4    1    3    3  502    0  0.56259183089E+03  0.25431159305E+03  0.80154464873E+02  0.62258227792E+03  0.00000000000E+00 0. -1.
         -3    1    3    3    0  502  0.99060027308E+03  0.47444989975E+03  0.25073718615E+03  0.11266147278E+04  0.00000000000E+00 0.  1.
         11    1    5    5    0    0 -0.15019642398E+03 -0.32896850661E+03 -0.40577454307E+03  0.54353677329E+03  0.00000000000E+00 0. -1.
        -11    1    5    5    0    0  0.76595884531E+01 -0.69433926678E+02 -0.10026511845E+03  0.12219997319E+03  0.00000000000E+00 0.  1.
          4    1    6    6  503    0 -0.55780453861E+03 -0.10870397629E+03 -0.30258099157E+03  0.64383050115E+03  0.00000000000E+00 0. -1.
         -4    1    6    6    0  503 -0.85285072984E+03 -0.22165508322E+03 -0.35887919176E+03  0.95146183191E+03  0.00000000000E+00 0.  1.
<mgrwt>
<rscale>  0 0.39219893E+04</rscale>
<asrwt>0</asrwt>
<pdfrwt beam="1">  1        2 0.37283341E+00 0.39219893E+04</pdfrwt>
<pdfrwt beam="2">  1       -1 0.24412445E+00 0.39219893E+04</pdfrwt>
<totfact> 0.26494637E-01</totfact>
</mgrwt>
</event>
<event>
12    6  0.1395358E-007  0.1582397E+04  0.7818608E-02  0.8831436E-01
         -1   -1    0    0    0  501 -0.00000000000E+00  0.00000000000E+00  0.50245147169E+03  0.50245147169E+03  0.00000000000E+00 0.  1.
          2   -1    0    0  501    0  0.00000000000E+00 -0.00000000000E+00 -0.12458814473E+04  0.12458814473E+04  0.00000000000E+00 0. -1.
         24    2    1    2    0    0 -0.28020712060E+03 -0.22225905458E+03 -0.68624564815E+03  0.77813895441E+03  0.81559947201E+02 0.  0.
        254    2    1    2    0    0  0.28020712060E+03  0.22225905458E+03 -0.57184327453E+02  0.97019396458E+03  0.90005064515E+03 0.  0.
         23    2    4    4    0    0 -0.96132367566E+02  0.32576187072E+03 -0.33251742241E+03  0.48374161330E+03  0.89865920815E+02 0.  0.
         23    2    4    4    0    0  0.37633948816E+03 -0.10350281614E+03  0.27533309496E+03  0.48645235128E+03  0.92105013905E+02 0.  0.
          2    1    3    3  502    0 -0.11964050203E+03 -0.10224898253E+03 -0.38884782067E+03  0.41948937030E+03  0.00000000000E+00 0. -1.
         -1    1    3    3    0  502 -0.16056661857E+03 -0.12001007205E+03 -0.29739782748E+03  0.35864958411E+03  0.00000000000E+00 0.  1.
         11    1    5    5    0    0 -0.37429929646E+02  0.21926322685E+03 -0.25995758682E+03  0.34213346698E+03  0.00000000000E+00 0.  1.
        -11    1    5    5    0    0 -0.58702437920E+02  0.10649864388E+03 -0.72559835595E+02  0.14160814633E+03  0.00000000000E+00 0. -1.
          3    1    6    6  503    0  0.14418001731E+03 -0.32155064294E+01  0.68057240469E+02  0.15946788032E+03  0.00000000000E+00 0. -1.
         -3    1    6    6    0  503  0.23215947086E+03 -0.10028730971E+03  0.20727585449E+03  0.32698447096E+03  0.00000000000E+00 0.  1.
<mgrwt>
<rscale>  0 0.15823969E+04</rscale>
<asrwt>0</asrwt>
<pdfrwt beam="1">  1        2 0.19167407E+00 0.15823969E+04</pdfrwt>
<pdfrwt beam="2">  1       -1 0.77300227E-01 0.15823969E+04</pdfrwt>
<totfact> 0.32674791E+01</totfact>
</mgrwt>
</event>
<event>
12    6  0.1395358E-007  0.2987260E+04  0.7818608E-02  0.8247378E-01
         -1   -1    0    0    0  501 -0.00000000000E+00  0.00000000000E+00  0.93702219545E+03  0.93702219545E+03  0.00000000000E+00 0.  1.
          2   -1    0    0  501    0  0.00000000000E+00 -0.00000000000E+00 -0.23808726563E+04  0.23808726563E+04  0.00000000000E+00 0. -1.
         24    2    1    2    0    0 -0.90340854365E+03 -0.47658038991E+03  0.33456565038E+03  0.10777982903E+04  0.80244098308E+02 0.  0.
        254    2    1    2    0    0  0.90340854365E+03  0.47658038991E+03 -0.17784161112E+04  0.22400965615E+04  0.90110647277E+03 0.  0.
         23    2    4    4    0    0  0.35438638446E+03  0.19814626571E+02 -0.13566335537E+04  0.14053443257E+04  0.92497274756E+02 0.  0.
         23    2    4    4    0    0  0.54902215918E+03  0.45676576334E+03 -0.42178255753E+03  0.83475223578E+03  0.94076965633E+02 0.  0.
          4    1    3    3  502    0 -0.25745460146E+03 -0.11543767894E+03  0.60048521311E+02  0.28846933016E+03  0.00000000000E+00 0. -1.
         -3    1    3    3    0  502 -0.64595394218E+03 -0.36114271097E+03  0.27451712907E+03  0.78932896011E+03  0.00000000000E+00 0.  1.
         11    1    5    5    0    0  0.85878700940E+02  0.44185895695E+02 -0.39438430829E+03  0.40603759343E+03  0.00000000000E+00 0. -1.
        -11    1    5    5    0    0  0.26850768352E+03 -0.24371269123E+02 -0.96224924540E+03  0.99930673226E+03  0.00000000000E+00 0.  1.
          1    1    6    6  503    0  0.63529230140E+01  0.23739505842E+02 -0.25217462497E+02  0.35211421205E+02  0.00000000000E+00 0. -1.
         -1    1    6    6    0  503  0.54266923617E+03  0.43302625750E+03 -0.39656509504E+03  0.79954081457E+03  0.00000000000E+00 0.  1.
<mgrwt>
<rscale>  0 0.29872600E+04</rscale>
<asrwt>0</asrwt>
<pdfrwt beam="1">  1        2 0.36628810E+00 0.29872600E+04</pdfrwt>
<pdfrwt beam="2">  1       -1 0.14415726E+00 0.29872600E+04</pdfrwt>
<totfact> 0.15409246E+00</totfact>
</mgrwt>
</event>
<event>
12    6  0.1395358E-007  0.3677529E+04  0.7818608E-02  0.8072960E-01
          2   -1    0    0  501    0  0.00000000000E+00  0.00000000000E+00  0.35773367921E+04  0.35773367921E+04  0.00000000000E+00 0. -1.
         -1   -1    0    0    0  501 -0.00000000000E+00 -0.00000000000E+00 -0.94513182760E+03  0.94513182760E+03  0.00000000000E+00 0.  1.
         24    2    1    2    0    0  0.18288016200E+03 -0.17180213282E+04  0.12152388441E+04  0.21140002326E+04  0.84552336480E+02 0.  0.
        254    2    1    2    0    0 -0.18288016200E+03  0.17180213282E+04  0.14169661204E+04  0.24084683871E+04  0.89882398016E+03 0.  0.
         23    2    4    4    0    0  0.28974962633E+03  0.25434474263E+03  0.19423679373E+03  0.44147330729E+03  0.92329057970E+02 0.  0.
         23    2    4    4    0    0 -0.47262978834E+03  0.14636765856E+04  0.12227293267E+04  0.19669950798E+04  0.90964683190E+02 0.  0.
          2    1    3    3  502    0  0.16803859400E+03 -0.12267020748E+04  0.87980473444E+03  0.15189112286E+04  0.00000000000E+00 0. -1.
         -1    1    3    3    0  502  0.14841568008E+02 -0.49131925337E+03  0.33543410966E+03  0.59508900410E+03  0.00000000000E+00 0.  1.
         11    1    5    5    0    0  0.20232106239E+03  0.20251239889E+03  0.18171753080E+03  0.33906687392E+03  0.00000000000E+00 0. -1.
        -11    1    5    5    0    0  0.87428563942E+02  0.51832343743E+02  0.12519262930E+02  0.10240643337E+03  0.00000000000E+00 0.  1.
          3    1    6    6  503    0 -0.15887316219E+03  0.39632948455E+03  0.30361239268E+03  0.52392578384E+03  0.00000000000E+00 0. -1.
         -3    1    6    6    0  503 -0.31375662614E+03  0.10673471010E+04  0.91911693403E+03  0.14430692960E+04  0.00000000000E+00 0.  1.
<mgrwt>
<rscale>  0 0.36775290E+04</rscale>
<asrwt>0</asrwt>
<pdfrwt beam="1">  1        2 0.55035950E+00 0.36775290E+04</pdfrwt>
<pdfrwt beam="2">  1       -1 0.14540490E+00 0.36775290E+04</pdfrwt>
<totfact> 0.24936868E-01</totfact>
</mgrwt>
</event>
<event>
12    6  0.1395358E-007  0.1505197E+04  0.7818608E-02  0.8881004E-01
         -1   -1    0    0    0  501 -0.00000000000E+00  0.00000000000E+00  0.28300622021E+03  0.28300622021E+03  0.00000000000E+00 0.  1.
          2   -1    0    0  501    0  0.00000000000E+00 -0.00000000000E+00 -0.20013850106E+04  0.20013850106E+04  0.00000000000E+00 0. -1.
         24    2    1    2    0    0 -0.43854027308E+03  0.19033110926E+03 -0.62143655523E+03  0.78737526760E+03  0.72338907829E+02 0.  0.
        254    2    1    2    0    0  0.43854027308E+03 -0.19033110926E+03 -0.10969422352E+04  0.14970159632E+04  0.89957269000E+03 0.  0.
         23    2    4    4    0    0 -0.18958973042E+03 -0.26159166014E+03 -0.18217545673E+03  0.38115944236E+03  0.87864446365E+02 0.  0.
         23    2    4    4    0    0  0.62813000351E+03  0.71260550879E+02 -0.91476677847E+03  0.11158565209E+04  0.93338892149E+02 0.  0.
          4    1    3    3  502    0 -0.33461902432E+03  0.15315979249E+03 -0.52292887936E+03  0.63943914983E+03  0.00000000000E+00 0. -1.
         -3    1    3    3    0  502 -0.10392124876E+03  0.37171316770E+02 -0.98507675876E+02  0.14793611777E+03  0.00000000000E+00 0.  1.
         11    1    5    5    0    0 -0.13290897661E+03 -0.23905478611E+03 -0.15499147787E+03  0.31437930123E+03  0.00000000000E+00 0.  1.
        -11    1    5    5    0    0 -0.56680753819E+02 -0.22536874023E+02 -0.27183978852E+02  0.66780141138E+02  0.00000000000E+00 0. -1.
          3    1    6    6  503    0  0.31478746843E+03  0.43471507729E+01 -0.51406293531E+03  0.60280241328E+03  0.00000000000E+00 0. -1.
         -3    1    6    6    0  503  0.31334253508E+03  0.66913400106E+02 -0.40070384316E+03  0.51305410760E+03  0.00000000000E+00 0.  1.
<mgrwt>
<rscale>  0 0.15051969E+04</rscale>
<asrwt>0</asrwt>
<pdfrwt beam="1">  1        2 0.30790539E+00 0.15051969E+04</pdfrwt>
<pdfrwt beam="2">  1       -1 0.43539417E-01 0.15051969E+04</pdfrwt>
<totfact> 0.38228683E+01</totfact>
</mgrwt>
</event>
<event>
12    6  0.1395358E-007  0.1101136E+04  0.7818608E-02  0.9204085E-01
         -1   -1    0    0    0  501 -0.00000000000E+00  0.00000000000E+00  0.23284992411E+03  0.23284992411E+03  0.00000000000E+00 0.  1.
          2   -1    0    0  501    0  0.00000000000E+00 -0.00000000000E+00 -0.13018051590E+04  0.13018051590E+04  0.00000000000E+00 0. -1.
         24    2    1    2    0    0  0.14131572910E+03  0.45029011777E+02 -0.13490875214E+03  0.22737777098E+03  0.10724985845E+03 0.  0.
        254    2    1    2    0    0 -0.14131572910E+03 -0.45029011777E+02 -0.93404648278E+03  0.13072773122E+04  0.90251503683E+03 0.  0.
         23    2    4    4    0    0 -0.96418755710E+02  0.32914018310E+03 -0.83600914639E+03  0.90807372909E+03  0.89759501065E+02 0.  0.
         23    2    4    4    0    0 -0.44896973389E+02 -0.37416919488E+03 -0.98037336388E+02  0.39920358307E+03  0.87942349269E+02 0.  0.
          4    1    3    3  502    0 -0.73119409841E+00 -0.23621985341E+02 -0.81577802351E+01  0.25001644238E+02  0.00000000000E+00 0. -1.
         -3    1    3    3    0  502  0.14204692320E+03  0.68650997118E+02 -0.12675097191E+03  0.20237612674E+03  0.00000000000E+00 0.  1.
         11    1    5    5    0    0 -0.60547913665E+02  0.74112454576E+02 -0.19353140372E+03  0.21590069476E+03  0.00000000000E+00 0. -1.
        -11    1    5    5    0    0 -0.35870842045E+02  0.25502772853E+03 -0.64247774268E+03  0.69217303433E+03  0.00000000000E+00 0.  1.
          1    1    6    6  503    0  0.49164844232E+01 -0.99289543306E+02 -0.62915736032E+02  0.11764767346E+03  0.00000000000E+00 0. -1.
         -1    1    6    6    0  503 -0.49813457812E+02 -0.27487965157E+03 -0.35121600356E+02  0.28155590962E+03  0.00000000000E+00 0.  1.
<mgrwt>
<rscale>  0 0.11011362E+04</rscale>
<asrwt>0</asrwt>
<pdfrwt beam="1">  1        2 0.20027772E+00 0.11011362E+04</pdfrwt>
<pdfrwt beam="2">  1       -1 0.35823065E-01 0.11011362E+04</pdfrwt>
<totfact> 0.13873667E+02</totfact>
</mgrwt>
</event>
<event>
12    6  0.1395358E-007  0.5423318E+04  0.7818608E-02  0.7766330E-01
          2   -1    0    0  501    0  0.00000000000E+00  0.00000000000E+00  0.34425295835E+04  0.34425295835E+04  0.00000000000E+00 0. -1.
         -1   -1    0    0    0  501 -0.00000000000E+00 -0.00000000000E+00 -0.21359567758E+04  0.21359567758E+04  0.00000000000E+00 0.  1.
         24    2    1    2    0    0 -0.12936375916E+04 -0.11616102809E+04 -0.14027980364E+04  0.22354333237E+04  0.80518014550E+02 0.  0.
        254    2    1    2    0    0  0.12936375916E+04  0.11616102809E+04  0.27093708441E+04  0.33430530355E+04  0.90137481894E+03 0.  0.
         23    2    4    4    0    0  0.37804937949E+03  0.66236008321E+03  0.55398868293E+03  0.94693254954E+03  0.90197446754E+02 0.  0.
         23    2    4    4    0    0  0.91558821206E+03  0.49925019773E+03  0.21553821612E+04  0.23961204860E+04  0.90380244034E+02 0.  0.
          2    1    3    3  502    0 -0.91838693187E+03 -0.86752387669E+03 -0.10394893168E+04  0.16360226994E+04  0.00000000000E+00 0. -1.
         -1    1    3    3    0  502 -0.37525065968E+03 -0.29408640425E+03 -0.36330871964E+03  0.59941062430E+03  0.00000000000E+00 0.  1.
         11    1    5    5    0    0  0.26045208532E+02  0.63386023442E+02  0.22256543302E+02  0.72052026862E+02  0.00000000000E+00 0. -1.
        -11    1    5    5    0    0  0.35200417096E+03  0.59897405977E+03  0.53173213963E+03  0.87488052268E+03  0.00000000000E+00 0.  1.
          3    1    6    6  503    0  0.21151365659E+03  0.14161747617E+03  0.45660130427E+03  0.52276025819E+03  0.00000000000E+00 0. -1.
         -3    1    6    6    0  503  0.70407455547E+03  0.35763272156E+03  0.16987808570E+04  0.18733602278E+04  0.00000000000E+00 0.  1.
<mgrwt>
<rscale>  0 0.54233179E+04</rscale>
<asrwt>0</asrwt>
<pdfrwt beam="1">  1        2 0.52961993E+00 0.54233179E+04</pdfrwt>
<pdfrwt beam="2">  1       -1 0.32860874E+00 0.54233179E+04</pdfrwt>
<totfact> 0.15304928E-02</totfact>
</mgrwt>
</event>
<event>
12    6  0.1395358E-007  0.4232184E+04  0.7818608E-02  0.7959278E-01
          2   -1    0    0  501    0  0.00000000000E+00  0.00000000000E+00  0.18856851255E+04  0.18856851255E+04  0.00000000000E+00 0. -1.
         -1   -1    0    0    0  501 -0.00000000000E+00 -0.00000000000E+00 -0.23746521381E+04  0.23746521381E+04  0.00000000000E+00 0.  1.
         24    2    1    2    0    0  0.72582979242E+02  0.19721746231E+04  0.19663081047E+03  0.19849443016E+04  0.81235288774E+02 0.  0.
        254    2    1    2    0    0 -0.72582979242E+02 -0.19721746231E+04 -0.68559782303E+03  0.22753929620E+04  0.90145866441E+03 0.  0.
         23    2    4    4    0    0  0.10053820706E+03 -0.51730146504E+03  0.18812051455E+03  0.56703281581E+03  0.91804952998E+02 0.  0.
         23    2    4    4    0    0 -0.17312118630E+03 -0.14548731580E+04 -0.87371833758E+03  0.17083601461E+04  0.92107569917E+02 0.  0.
          4    1    3    3  502    0  0.30093395518E+02  0.13862781712E+04  0.10722374663E+03  0.13907443015E+04  0.00000000000E+00 0. -1.
         -3    1    3    3    0  502  0.42489583724E+02  0.58589645188E+03  0.89407063842E+02  0.59420000010E+03  0.00000000000E+00 0.  1.
         11    1    5    5    0    0  0.48680518318E+02 -0.78536612901E+02  0.43667074972E+02  0.10219885452E+03  0.00000000000E+00 0. -1.
        -11    1    5    5    0    0  0.51857688743E+02 -0.43876485214E+03  0.14445343958E+03  0.46483396128E+03  0.00000000000E+00 0.  1.
          2    1    6    6  503    0 -0.32117279231E+02 -0.34198593414E+03 -0.16134180405E+03  0.37949581883E+03  0.00000000000E+00 0. -1.
         -2    1    6    6    0  503 -0.14100390707E+03 -0.11128872239E+04 -0.71237653353E+03  0.13288643273E+04  0.00000000000E+00 0.  1.
<mgrwt>
<rscale>  0 0.42321844E+04</rscale>
<asrwt>0</asrwt>
<pdfrwt beam="1">  1        2 0.29010540E+00 0.42321844E+04</pdfrwt>
<pdfrwt beam="2">  1       -1 0.36533110E+00 0.42321844E+04</pdfrwt>
<totfact> 0.83672601E-02</totfact>
</mgrwt>
</event>
<event>
12    6  0.1395358E-007  0.2630665E+04  0.7818608E-02  0.8357859E-01
         -1   -1    0    0    0  501 -0.00000000000E+00  0.00000000000E+00  0.63723905225E+03  0.63723905225E+03  0.00000000000E+00 0.  1.
          2   -1    0    0  501    0  0.00000000000E+00 -0.00000000000E+00 -0.27149934890E+04  0.27149934890E+04  0.00000000000E+00 0. -1.
         24    2    1    2    0    0 -0.71177078056E+03  0.11451865518E+03  0.24136933112E+03  0.76233743380E+03  0.56276482910E+02 0.  0.
        254    2    1    2    0    0  0.71177078056E+03 -0.11451865518E+03 -0.23191237679E+04  0.25898951075E+04  0.89971631665E+03 0.  0.
         23    2    4    4    0    0  0.36750172185E+03  0.20800476860E+03 -0.33143792400E+03  0.54497764994E+03  0.93947017724E+02 0.  0.
         23    2    4    4    0    0  0.34426905870E+03 -0.32252342378E+03 -0.19876858439E+04  0.20449174575E+04  0.90828687327E+02 0.  0.
          2    1    3    3  502    0 -0.30424646776E+03  0.68198341037E+02  0.82795566200E+02  0.32260197247E+03  0.00000000000E+00 0. -1.
         -1    1    3    3    0  502 -0.40752431280E+03  0.46320314144E+02  0.15857376492E+03  0.43973546132E+03  0.00000000000E+00 0.  1.
         11    1    5    5    0    0  0.23933797212E+03  0.18457129085E+03 -0.22679630321E+03  0.37787006954E+03  0.00000000000E+00 0.  1.
        -11    1    5    5    0    0  0.12816374973E+03  0.23433477758E+02 -0.10464162079E+03  0.16710758040E+03  0.00000000000E+00 0. -1.
          4    1    6    6  503    0  0.28285522818E+03 -0.30600554378E+03 -0.17385481748E+04  0.17877908796E+04  0.00000000000E+00 0. -1.
         -4    1    6    6    0  503  0.61413830526E+02 -0.16517880000E+02 -0.24913766905E+03  0.25712657794E+03  0.00000000000E+00 0.  1.
<mgrwt>
<rscale>  0 0.26306652E+04</rscale>
<asrwt>0</asrwt>
<pdfrwt beam="1">  1        2 0.41769131E+00 0.26306652E+04</pdfrwt>
<pdfrwt beam="2">  1       -1 0.98036775E-01 0.26306652E+04</pdfrwt>
<totfact> 0.26017926E+00</totfact>
</mgrwt>
</event>
<event>
12    6  0.1395358E-007  0.3258198E+04  0.7818608E-02  0.8173614E-01
          2   -1    0    0  501    0  0.00000000000E+00  0.00000000000E+00  0.21051012971E+04  0.21051012971E+04  0.00000000000E+00 0. -1.
         -1   -1    0    0    0  501 -0.00000000000E+00 -0.00000000000E+00 -0.12607296223E+04  0.12607296223E+04  0.00000000000E+00 0.  1.
         24    2    1    2    0    0  0.71692373764E+03 -0.11775402767E+04 -0.23162175896E+03  0.13988430179E+04  0.50322963275E+02 0.  0.
        254    2    1    2    0    0 -0.71692373764E+03  0.11775402767E+04  0.10759934338E+04  0.19669879015E+04  0.90038813098E+03 0.  0.
         23    2    4    4    0    0 -0.87534684263E+03  0.95438756847E+03  0.10631646678E+04  0.16781307311E+04  0.93359060123E+02 0.  0.
         23    2    4    4    0    0  0.15842310499E+03  0.22315270819E+03  0.12828766003E+02  0.28885717041E+03  0.91536202092E+02 0.  0.
          2    1    3    3  502    0  0.24200135812E+03 -0.37535162525E+03 -0.54229546293E+02  0.44988258868E+03  0.00000000000E+00 0. -1.
         -1    1    3    3    0  502  0.47492237952E+03 -0.80218865141E+03 -0.17739221267E+03  0.94896042917E+03  0.00000000000E+00 0.  1.
         11    1    5    5    0    0 -0.28371345438E+02  0.56564897118E+02  0.39566717895E+02  0.74632740757E+02  0.00000000000E+00 0. -1.
        -11    1    5    5    0    0 -0.84697549719E+03  0.89782267135E+03  0.10235979499E+04  0.16034979903E+04  0.00000000000E+00 0.  1.
          4    1    6    6  503    0 -0.22208485875E+01  0.48234509680E+02 -0.12888030022E+02  0.49976008348E+02  0.00000000000E+00 0. -1.
         -4    1    6    6    0  503  0.16064395358E+03  0.17491819851E+03  0.25716796024E+02  0.23888116206E+03  0.00000000000E+00 0.  1.
<mgrwt>
<rscale>  0 0.32581980E+04</rscale>
<asrwt>0</asrwt>
<pdfrwt beam="1">  1        2 0.32386174E+00 0.32581980E+04</pdfrwt>
<pdfrwt beam="2">  1       -1 0.19395840E+00 0.32581980E+04</pdfrwt>
<totfact> 0.92222405E-01</totfact>
</mgrwt>
</event>
<event>
12    6  0.1395358E-007  0.2114826E+04  0.7818608E-02  0.8554740E-01
          2   -1    0    0  501    0  0.00000000000E+00  0.00000000000E+00  0.15906438842E+04  0.15906438842E+04  0.00000000000E+00 0. -1.
         -1   -1    0    0    0  501 -0.00000000000E+00 -0.00000000000E+00 -0.70293691410E+03  0.70293691410E+03  0.00000000000E+00 0.  1.
         24    2    1    2    0    0  0.37831925503E+03  0.76272697959E+03  0.51214782364E+03  0.99659511071E+03  0.77643527211E+02 0.  0.
        254    2    1    2    0    0 -0.37831925503E+03 -0.76272697959E+03  0.37555914643E+03  0.12969856876E+04  0.90346516101E+03 0.  0.
         23    2    4    4    0    0  0.22774050559E+03 -0.52630664348E+03  0.22810752018E+03  0.62371049753E+03  0.90096188120E+02 0.  0.
         23    2    4    4    0    0 -0.60605976062E+03 -0.23642033611E+03  0.14745162625E+03  0.67327519003E+03  0.91402902863E+02 0.  0.
          2    1    3    3  502    0  0.24101734860E+03  0.54394682747E+03  0.38544272262E+03  0.70889604729E+03  0.00000000000E+00 0. -1.
         -1    1    3    3    0  502  0.13730190643E+03  0.21878015211E+03  0.12670510102E+03  0.28769906342E+03  0.00000000000E+00 0.  1.
         11    1    5    5    0    0  0.62972640780E+02 -0.25382256228E+03  0.11646664663E+03  0.28627945505E+03  0.00000000000E+00 0.  1.
        -11    1    5    5    0    0  0.16476786481E+03 -0.27248408120E+03  0.11164087355E+03  0.33743104248E+03  0.00000000000E+00 0. -1.
          3    1    6    6  503    0 -0.46729486411E+03 -0.20319481662E+03  0.14788613741E+03  0.53058734734E+03  0.00000000000E+00 0. -1.
         -3    1    6    6    0  503 -0.13876489651E+03 -0.33225519493E+02 -0.43451116325E+00  0.14268784269E+03  0.00000000000E+00 0.  1.
<mgrwt>
<rscale>  0 0.21148260E+04</rscale>
<asrwt>0</asrwt>
<pdfrwt beam="1">  1        2 0.24471444E+00 0.21148260E+04</pdfrwt>
<pdfrwt beam="2">  1       -1 0.10814414E+00 0.21148260E+04</pdfrwt>
<totfact> 0.94019054E+00</totfact>
</mgrwt>
</event>
<event>
12    6  0.1395358E-007  0.3469684E+04  0.7818608E-02  0.8121012E-01
         -1   -1    0    0    0  501 -0.00000000000E+00  0.00000000000E+00  0.75959796778E+03  0.75959796778E+03  0.00000000000E+00 0.  1.
          2   -1    0    0  501    0  0.00000000000E+00 -0.00000000000E+00 -0.39621968457E+04  0.39621968457E+04  0.00000000000E+00 0. -1.
         24    2    1    2    0    0  0.13726988719E+04  0.75123610921E+03 -0.94038242865E+03  0.18273714863E+04  0.79432690594E+02 0.  0.
        254    2    1    2    0    0 -0.13726988719E+04 -0.75123610921E+03 -0.22622164493E+04  0.28944233272E+04  0.90078035548E+03 0.  0.
         23    2    4    4    0    0 -0.99828177693E+03 -0.13125097288E+03 -0.92252089772E+03  0.13686578972E+04  0.91576791882E+02 0.  0.
         23    2    4    4    0    0 -0.37441709495E+03 -0.61998513633E+03 -0.13396955516E+04  0.15257654300E+04  0.92769855770E+02 0.  0.
          2    1    3    3  502    0  0.14844737394E+03  0.94103940734E+02 -0.13250300472E+03  0.22011183691E+03  0.00000000000E+00 0. -1.
         -1    1    3    3    0  502  0.12242514979E+04  0.65713216847E+03 -0.80787942393E+03  0.16072596494E+04  0.00000000000E+00 0.  1.
         11    1    5    5    0    0 -0.42745459810E+03 -0.74592830973E+02 -0.34152926305E+03  0.55219902335E+03  0.00000000000E+00 0.  1.
        -11    1    5    5    0    0 -0.57082717883E+03 -0.56658141903E+02 -0.58099163467E+03  0.81645887385E+03  0.00000000000E+00 0. -1.
          3    1    6    6  503    0 -0.17686676991E+03 -0.37670974871E+03 -0.79572268755E+03  0.89797922279E+03  0.00000000000E+00 0. -1.
         -3    1    6    6    0  503 -0.19755032503E+03 -0.24327538762E+03 -0.54397286403E+03  0.62778620720E+03  0.00000000000E+00 0.  1.
<mgrwt>
<rscale>  0 0.34696839E+04</rscale>
<asrwt>0</asrwt>
<pdfrwt beam="1">  1        2 0.60956874E+00 0.34696839E+04</pdfrwt>
<pdfrwt beam="2">  1       -1 0.11686123E+00 0.34696839E+04</pdfrwt>
<totfact> 0.22599931E-01</totfact>
</mgrwt>
</event>
<event>
12    6  0.1395358E-007  0.1857459E+04  0.7818608E-02  0.8676327E-01
          2   -1    0    0  501    0  0.00000000000E+00  0.00000000000E+00  0.21682033655E+04  0.21682033655E+04  0.00000000000E+00 0. -1.
         -1   -1    0    0    0  501 -0.00000000000E+00 -0.00000000000E+00 -0.39781239066E+03  0.39781239066E+03  0.00000000000E+00 0.  1.
         24    2    1    2    0    0  0.71641852681E+02 -0.59682431086E+03  0.16239936427E+03  0.62781104307E+03  0.80257954075E+02 0.  0.
        254    2    1    2    0    0 -0.71641852681E+02  0.59682431086E+03  0.16079916106E+04  0.19382047131E+04  0.89981591289E+03 0.  0.
         23    2    4    4    0    0 -0.27082382688E+03  0.32351011962E+03  0.15155340714E+04  0.15758526503E+04  0.91998430787E+02 0.  0.
         23    2    4    4    0    0  0.19918197420E+03  0.27331419124E+03  0.92457539243E+02  0.36235206283E+03  0.91523302461E+02 0.  0.
          4    1    3    3  502    0  0.16686030071E+02 -0.42040049410E+03  0.12872193024E+03  0.43998219778E+03  0.00000000000E+00 0. -1.
         -1    1    3    3    0  502  0.54955822610E+02 -0.17642381676E+03  0.33677434033E+02  0.18782884529E+03  0.00000000000E+00 0.  1.
         11    1    5    5    0    0 -0.50455735657E+01 -0.43041767869E+01  0.60214748045E+02  0.60578871173E+02  0.00000000000E+00 0.  1.
        -11    1    5    5    0    0 -0.26577825331E+03  0.32781429641E+03  0.14553193233E+04  0.15152737791E+04  0.00000000000E+00 0. -1.
          4    1    6    6  503    0  0.12514525332E+03  0.18624257924E+03  0.16225704134E+02  0.22496867832E+03  0.00000000000E+00 0. -1.
         -4    1    6    6    0  503  0.74036720879E+02  0.87071612005E+02  0.76231835109E+02  0.13738338451E+03  0.00000000000E+00 0.  1.
<mgrwt>
<rscale>  0 0.18574587E+04</rscale>
<asrwt>0</asrwt>
<pdfrwt beam="1">  1        2 0.33356974E+00 0.18574587E+04</pdfrwt>
<pdfrwt beam="2">  1       -1 0.61201907E-01 0.18574587E+04</pdfrwt>
<totfact> 0.15592663E+01</totfact>
</mgrwt>
</event>
<event>
12    6  0.1395358E-007  0.2803310E+04  0.7818608E-02  0.8302241E-01
          2   -1    0    0  501    0  0.00000000000E+00  0.00000000000E+00  0.13260694449E+04  0.13260694449E+04  0.00000000000E+00 0. -1.
         -1   -1    0    0    0  501 -0.00000000000E+00 -0.00000000000E+00 -0.14815494192E+04  0.14815494192E+04  0.00000000000E+00 0.  1.
         24    2    1    2    0    0 -0.11231843311E+04  0.30769610790E+03  0.40186469344E+03  0.12347086277E+04  0.82402833114E+02 0.  0.
        254    2    1    2    0    0  0.11231843311E+04 -0.30769610790E+03 -0.55734466776E+03  0.15729102364E+04  0.89843953422E+03 0.  0.
         23    2    4    4    0    0  0.91029114262E+03 -0.40857896996E+03 -0.46703371878E+02  0.10032142089E+04  0.93224486787E+02 0.  0.
         23    2    4    4    0    0  0.21289318849E+03  0.10088286206E+03 -0.51064129588E+03  0.56969602752E+03  0.91094287160E+02 0.  0.
          2    1    3    3  502    0 -0.66985065527E+03  0.15777077712E+03  0.27101634898E+03  0.73962245767E+03  0.00000000000E+00 0. -1.
         -1    1    3    3    0  502 -0.45333367584E+03  0.14992533078E+03  0.13084834446E+03  0.49508616998E+03  0.00000000000E+00 0.  1.
         11    1    5    5    0    0  0.55028110271E+03 -0.28902582742E+03 -0.49989429114E+01  0.62158684860E+03  0.00000000000E+00 0.  1.
        -11    1    5    5    0    0  0.36001003990E+03 -0.11955314255E+03 -0.41704428967E+02  0.38162736029E+03  0.00000000000E+00 0. -1.
          1    1    6    6  503    0  0.54586268174E+02  0.52215355483E+02 -0.24752213190E+03  0.25879202036E+03  0.00000000000E+00 0. -1.
         -1    1    6    6    0  503  0.15830692032E+03  0.48667506581E+02 -0.26311916398E+03  0.31090400717E+03  0.00000000000E+00 0.  1.
<mgrwt>
<rscale>  0 0.28033105E+04</rscale>
<asrwt>0</asrwt>
<pdfrwt beam="1">  1        2 0.20401068E+00 0.28033105E+04</pdfrwt>
<pdfrwt beam="2">  1       -1 0.22793068E+00 0.28033105E+04</pdfrwt>
<totfact> 0.15412320E+00</totfact>
</mgrwt>
</event>
<event>
12    6  0.1395358E-007  0.1409851E+04  0.7818608E-02  0.8946719E-01
          2   -1    0    0  501    0  0.00000000000E+00  0.00000000000E+00  0.13002367355E+04  0.13002367355E+04  0.00000000000E+00 0. -1.
         -1   -1    0    0    0  501 -0.00000000000E+00 -0.00000000000E+00 -0.38217626414E+03  0.38217626414E+03  0.00000000000E+00 0.  1.
         24    2    1    2    0    0  0.18869528382E+03  0.33467024986E+03  0.95088064264E+02  0.40372609328E+03  0.79642527253E+02 0.  0.
        254    2    1    2    0    0 -0.18869528382E+03 -0.33467024986E+03  0.82297240710E+03  0.12786869064E+04  0.90008140487E+03 0.  0.
         23    2    4    4    0    0 -0.26475294833E+03  0.21029805981E+03  0.97046224381E+02  0.36319146025E+03  0.90391755848E+02 0.  0.
         23    2    4    4    0    0  0.76057664509E+02 -0.54496830968E+03  0.72592618272E+03  0.91549544611E+03  0.91585272909E+02 0.  0.
          4    1    3    3  502    0  0.28525289426E+02  0.11869350902E+02  0.16009036520E+02  0.34797455051E+02  0.00000000000E+00 0. -1.
         -3    1    3    3    0  502  0.16016999439E+03  0.32280089896E+03  0.79079027744E+02  0.36892863823E+03  0.00000000000E+00 0.  1.
         11    1    5    5    0    0 -0.64728767386E+02  0.19040093989E+02  0.46301030554E+02  0.81829847469E+02  0.00000000000E+00 0.  1.
        -11    1    5    5    0    0 -0.20002418094E+03  0.19125796582E+03  0.50745193828E+02  0.28136161279E+03  0.00000000000E+00 0. -1.
          2    1    6    6  503    0  0.69298469319E+02 -0.51334610601E+03  0.63798576988E+03  0.82179823860E+03  0.00000000000E+00 0. -1.
         -2    1    6    6    0  503  0.67591951900E+01 -0.31622203669E+02  0.87940412844E+02  0.93697207513E+02  0.00000000000E+00 0.  1.
<mgrwt>
<rscale>  0 0.14098505E+04</rscale>
<asrwt>0</asrwt>
<pdfrwt beam="1">  1        2 0.20003642E+00 0.14098505E+04</pdfrwt>
<pdfrwt beam="2">  1       -1 0.58796349E-01 0.14098505E+04</pdfrwt>
<totfact> 0.53714137E+01</totfact>
</mgrwt>
</event>
<event>
12    6  0.1395358E-007  0.2221891E+04  0.7818608E-02  0.8509372E-01
          2   -1    0    0  501    0  0.00000000000E+00  0.00000000000E+00  0.17377982259E+04  0.17377982259E+04  0.00000000000E+00 0. -1.
         -1   -1    0    0    0  501 -0.00000000000E+00 -0.00000000000E+00 -0.71020874243E+03  0.71020874243E+03  0.00000000000E+00 0.  1.
         24    2    1    2    0    0  0.76284614934E+03  0.12378686629E+02 -0.15080515961E+03  0.78181379902E+03  0.80019627146E+02 0.  0.
        254    2    1    2    0    0 -0.76284614934E+03 -0.12378686629E+02  0.11783946430E+04  0.16661931693E+04  0.89749555047E+03 0.  0.
         23    2    4    4    0    0  0.98747838825E+02  0.16118224732E+03  0.20138640222E+02  0.20914303448E+03  0.87203162307E+02 0.  0.
         23    2    4    4    0    0 -0.86159398816E+03 -0.17356093395E+03  0.11582560028E+04  0.14570501348E+04  0.94712876504E+02 0.  0.
          2    1    3    3  502    0  0.41798458027E+03 -0.14880607730E+02 -0.48416527849E+02  0.42104239929E+03  0.00000000000E+00 0. -1.
         -1    1    3    3    0  502  0.34486156907E+03  0.27259294359E+02 -0.10238863176E+03  0.36077139973E+03  0.00000000000E+00 0.  1.
         11    1    5    5    0    0  0.32938813192E+02  0.72023665799E+01  0.24425735431E+02  0.41634793745E+02  0.00000000000E+00 0. -1.
        -11    1    5    5    0    0  0.65809025633E+02  0.15397988074E+03 -0.42870952089E+01  0.16750824073E+03  0.00000000000E+00 0.  1.
          4    1    6    6  503    0 -0.41043284563E+03 -0.53565733209E+02  0.48246417186E+03  0.63568552419E+03  0.00000000000E+00 0. -1.
         -4    1    6    6    0  503 -0.45116114254E+03 -0.11999520074E+03  0.67579183096E+03  0.82136461059E+03  0.00000000000E+00 0.  1.
<mgrwt>
<rscale>  0 0.22218906E+04</rscale>
<asrwt>0</asrwt>
<pdfrwt beam="1">  1        2 0.26735357E+00 0.22218906E+04</pdfrwt>
<pdfrwt beam="2">  1       -1 0.10926288E+00 0.22218906E+04</pdfrwt>
<totfact> 0.75267153E+00</totfact>
</mgrwt>
</event>
<event>
12    6  0.1395358E-007  0.2646900E+04  0.7818608E-02  0.8352443E-01
         -1   -1    0    0    0  501 -0.00000000000E+00  0.00000000000E+00  0.85801831545E+03  0.85801831545E+03  0.00000000000E+00 0.  1.
          2   -1    0    0  501    0  0.00000000000E+00 -0.00000000000E+00 -0.20413553844E+04  0.20413553844E+04  0.00000000000E+00 0. -1.
         24    2    1    2    0    0 -0.13647863239E+03 -0.79504337341E+03 -0.14463078484E+04  0.16588308314E+04  0.95879882887E+02 0.  0.
        254    2    1    2    0    0  0.13647863239E+03  0.79504337341E+03  0.26297077950E+03  0.12405428685E+04  0.90502629517E+03 0.  0.
         23    2    4    4    0    0 -0.41955225538E+02  0.90466146004E+03  0.37696888381E+03  0.98508763579E+03  0.90108338081E+02 0.  0.
         23    2    4    4    0    0  0.17843385793E+03 -0.10961808663E+03 -0.11399810431E+03  0.25545523268E+03  0.91689920628E+02 0.  0.
          2    1    3    3  502    0 -0.12547212447E+03 -0.71723297248E+03 -0.13559550968E+04  0.15390843431E+04  0.00000000000E+00 0. -1.
         -1    1    3    3    0  502 -0.11006507922E+02 -0.77810400924E+02 -0.90352751646E+02  0.11974648821E+03  0.00000000000E+00 0.  1.
         11    1    5    5    0    0  0.14306486266E+02  0.58951077133E+03  0.25612333584E+03  0.64290496049E+03  0.00000000000E+00 0. -1.
        -11    1    5    5    0    0 -0.56261711803E+02  0.31515068871E+03  0.12084554798E+03  0.34218267530E+03  0.00000000000E+00 0.  1.
          4    1    6    6  503    0  0.81016210720E+02 -0.90560198414E+02 -0.95348403922E+02  0.15445418112E+03  0.00000000000E+00 0. -1.
         -4    1    6    6    0  503  0.97417647207E+02 -0.19057888220E+02 -0.18649700390E+02  0.10100105156E+03  0.00000000000E+00 0.  1.
<mgrwt>
<rscale>  0 0.26469003E+04</rscale>
<asrwt>0</asrwt>
<pdfrwt beam="1">  1        2 0.31405467E+00 0.26469003E+04</pdfrwt>
<pdfrwt beam="2">  1       -1 0.13200282E+00 0.26469003E+04</pdfrwt>
<totfact> 0.30984133E+00</totfact>
</mgrwt>
</event>
<event>
12    6  0.1395358E-007  0.1970366E+04  0.7818608E-02  0.8620602E-01
         -1   -1    0    0    0  501 -0.00000000000E+00  0.00000000000E+00  0.10746959886E+04  0.10746959886E+04  0.00000000000E+00 0.  1.
          2   -1    0    0  501    0  0.00000000000E+00 -0.00000000000E+00 -0.90312592059E+03  0.90312592059E+03  0.00000000000E+00 0. -1.
         24    2    1    2    0    0  0.69807856319E+03 -0.40925978900E+02  0.41006485143E+03  0.81384477751E+03  0.72121587346E+02 0.  0.
        254    2    1    2    0    0 -0.69807856319E+03  0.40925978900E+02 -0.23849478344E+03  0.11639771317E+04  0.89943003352E+03 0.  0.
         23    2    4    4    0    0  0.85922872607E+02 -0.17056315360E+02 -0.34274308485E+03  0.36529699687E+03  0.91079173123E+02 0.  0.
         23    2    4    4    0    0 -0.78400143580E+03  0.57982294260E+02  0.10424830141E+03  0.79868013481E+03  0.94879142095E+02 0.  0.
          2    1    3    3  502    0  0.23833106431E+03 -0.34943075951E+02  0.10999947535E+03  0.26480672074E+03  0.00000000000E+00 0. -1.
         -1    1    3    3    0  502  0.45974749888E+03 -0.59829029488E+01  0.30006537609E+03  0.54903805677E+03  0.00000000000E+00 0.  1.
         11    1    5    5    0    0  0.86010400435E+02 -0.40902912212E+02 -0.21219541354E+03  0.23258918879E+03  0.00000000000E+00 0. -1.
        -11    1    5    5    0    0 -0.87527827829E-01  0.23846596853E+02 -0.13054767131E+03  0.13270780808E+03  0.00000000000E+00 0.  1.
          2    1    6    6  503    0 -0.10448652950E+03 -0.23393499277E+02  0.22871434462E+02  0.10948878102E+03  0.00000000000E+00 0.  1.
         -2    1    6    6    0  503 -0.67951490630E+03  0.81375793537E+02  0.81376866951E+02  0.68919135379E+03  0.00000000000E+00 0. -1.
<mgrwt>
<rscale>  0 0.19703663E+04</rscale>
<asrwt>0</asrwt>
<pdfrwt beam="1">  1        2 0.13894245E+00 0.19703663E+04</pdfrwt>
<pdfrwt beam="2">  1       -1 0.16533784E+00 0.19703663E+04</pdfrwt>
<totfact> 0.82609962E+00</totfact>
</mgrwt>
</event>
<event>
12    6  0.1395358E-007  0.1746330E+04  0.7818608E-02  0.8735373E-01
          2   -1    0    0  501    0  0.00000000000E+00  0.00000000000E+00  0.11719123123E+04  0.11719123123E+04  0.00000000000E+00 0. -1.
         -1   -1    0    0    0  501 -0.00000000000E+00 -0.00000000000E+00 -0.65057522331E+03  0.65057522331E+03  0.00000000000E+00 0.  1.
         24    2    1    2    0    0  0.39740036826E+02 -0.48371662363E+03 -0.24429013146E+03  0.54922344296E+03  0.80047982218E+02 0.  0.
        254    2    1    2    0    0 -0.39740036826E+02  0.48371662363E+03  0.76562722046E+03  0.12732640927E+04  0.89412267975E+03 0.  0.
         23    2    4    4    0    0  0.34477788279E+03  0.24270703805E+03  0.67607688102E+03  0.80188544409E+03  0.90342800612E+02 0.  0.
         23    2    4    4    0    0 -0.38451791962E+03  0.24100958559E+03  0.89550339440E+02  0.47137864857E+03  0.90768475703E+02 0.  0.
          2    1    3    3  502    0  0.36740468015E+02 -0.46917721536E+03 -0.21716769550E+03  0.51830389673E+03  0.00000000000E+00 0. -1.
         -1    1    3    3    0  502  0.29995688109E+01 -0.14539408277E+02 -0.27122435965E+02  0.30919546225E+02  0.00000000000E+00 0.  1.
         11    1    5    5    0    0  0.28429808759E+03  0.20754277134E+03  0.61688863444E+03  0.71024713434E+03  0.00000000000E+00 0.  1.
        -11    1    5    5    0    0  0.60479795206E+02  0.35164266702E+02  0.59188246578E+02  0.91638309750E+02  0.00000000000E+00 0. -1.
          4    1    6    6  503    0 -0.10822949826E+03  0.34939648299E+02 -0.54249656791E+01  0.11385883175E+03  0.00000000000E+00 0.  1.
         -4    1    6    6    0  503 -0.27628842136E+03  0.20606993729E+03  0.94975305119E+02  0.35751981682E+03  0.00000000000E+00 0. -1.
<mgrwt>
<rscale>  0 0.17463300E+04</rscale>
<asrwt>0</asrwt>
<pdfrwt beam="1">  1        2 0.18029420E+00 0.17463300E+04</pdfrwt>
<pdfrwt beam="2">  1       -1 0.10008850E+00 0.17463300E+04</pdfrwt>
<totfact> 0.20253256E+01</totfact>
</mgrwt>
</event>
<event>
12    6  0.1395358E-007  0.2215895E+04  0.7818608E-02  0.8511841E-01
          2   -1    0    0  501    0  0.00000000000E+00  0.00000000000E+00  0.14378490504E+04  0.14378490504E+04  0.00000000000E+00 0. -1.
         -1   -1    0    0    0  501 -0.00000000000E+00 -0.00000000000E+00 -0.85373921170E+03  0.85373921170E+03  0.00000000000E+00 0.  1.
         24    2    1    2    0    0  0.76940195499E+03 -0.24337905559E+03  0.70762860950E+03  0.10762744418E+04  0.80098015207E+02 0.  0.
        254    2    1    2    0    0 -0.76940195499E+03  0.24337905559E+03 -0.12351877083E+03  0.12153138203E+04  0.90028776621E+03 0.  0.
         23    2    4    4    0    0 -0.55249172551E+03  0.38858411021E+03  0.27169740397E+03  0.73309606953E+03  0.85823367284E+02 0.  0.
         23    2    4    4    0    0 -0.21691022948E+03 -0.14520505463E+03 -0.39521617480E+03  0.48221775075E+03  0.90573609683E+02 0.  0.
          2    1    3    3  502    0  0.63811465486E+03 -0.17480918429E+03  0.60019345830E+03  0.89329768333E+03  0.00000000000E+00 0. -1.
         -1    1    3    3    0  502  0.13128730012E+03 -0.68569871296E+02  0.10743515120E+03  0.18297675846E+03  0.00000000000E+00 0.  1.
         11    1    5    5    0    0 -0.17564319041E+03  0.81789802913E+02  0.97276795954E+02  0.21680146962E+03  0.00000000000E+00 0. -1.
        -11    1    5    5    0    0 -0.37684853510E+03  0.30679430730E+03  0.17442060802E+03  0.51629459991E+03  0.00000000000E+00 0.  1.
          4    1    6    6  503    0 -0.24654237129E+01 -0.43928631495E+01 -0.59443629417E+02  0.59656689809E+02  0.00000000000E+00 0. -1.
         -4    1    6    6    0  503 -0.21444480576E+03 -0.14081219148E+03 -0.33577254538E+03  0.42256106094E+03  0.00000000000E+00 0.  1.
<mgrwt>
<rscale>  0 0.22158954E+04</rscale>
<asrwt>0</asrwt>
<pdfrwt beam="1">  1        2 0.22120755E+00 0.22158954E+04</pdfrwt>
<pdfrwt beam="2">  1       -1 0.13134449E+00 0.22158954E+04</pdfrwt>
<totfact> 0.70753453E+00</totfact>
</mgrwt>
</event>
<event>
12    6  0.1395358E-007  0.1301451E+04  0.7818608E-02  0.9028415E-01
          2   -1    0    0  501    0  0.00000000000E+00  0.00000000000E+00  0.15321782508E+04  0.15321782508E+04  0.00000000000E+00 0. -1.
         -1   -1    0    0    0  501 -0.00000000000E+00 -0.00000000000E+00 -0.27636714565E+03  0.27636714565E+03  0.00000000000E+00 0.  1.
         24    2    1    2    0    0  0.17899107763E+03  0.27946448030E+03  0.32316156753E+03  0.47003201557E+03  0.79740173700E+02 0.  0.
        254    2    1    2    0    0 -0.17899107763E+03 -0.27946448030E+03  0.93264953767E+03  0.13385133809E+04  0.90091326396E+03 0.  0.
         23    2    4    4    0    0  0.10130326087E+03 -0.46647148368E+03  0.85087949487E+03  0.97994595668E+03  0.91870384091E+02 0.  0.
         23    2    4    4    0    0 -0.28029433850E+03  0.18700700337E+03  0.81770042794E+02  0.35856742425E+03  0.91365870683E+02 0.  0.
          4    1    3    3  502    0  0.24046857761E+02  0.62091606951E+02  0.10930543302E+03  0.12798943984E+03  0.00000000000E+00 0. -1.
         -3    1    3    3    0  502  0.15494421987E+03  0.21737287335E+03  0.21385613451E+03  0.34204257573E+03  0.00000000000E+00 0.  1.
         11    1    5    5    0    0  0.72825301111E+02 -0.29387702942E+03  0.62294593866E+03  0.69262462806E+03  0.00000000000E+00 0. -1.
        -11    1    5    5    0    0  0.28477959757E+02 -0.17259445426E+03  0.22793355622E+03  0.28732132862E+03  0.00000000000E+00 0.  1.
          3    1    6    6  503    0 -0.25045745725E+03  0.15763396693E+03  0.38621875515E+02  0.29844439129E+03  0.00000000000E+00 0. -1.
         -3    1    6    6    0  503 -0.29836881251E+02  0.29373036441E+02  0.43148167279E+02  0.60123032958E+02  0.00000000000E+00 0.  1.
<mgrwt>
<rscale>  0 0.13014511E+04</rscale>
<asrwt>0</asrwt>
<pdfrwt beam="1">  1        2 0.23571973E+00 0.13014511E+04</pdfrwt>
<pdfrwt beam="2">  1       -1 0.42518023E-01 0.13014511E+04</pdfrwt>
<totfact> 0.73975556E+01</totfact>
</mgrwt>
</event>
<event>
12    6  0.1395358E-007  0.2637452E+04  0.7818608E-02  0.8355590E-01
          2   -1    0    0  501    0  0.00000000000E+00  0.00000000000E+00  0.18500337362E+04  0.18500337362E+04  0.00000000000E+00 0. -1.
         -1   -1    0    0    0  501 -0.00000000000E+00 -0.00000000000E+00 -0.94000321634E+03  0.94000321634E+03  0.00000000000E+00 0.  1.
         24    2    1    2    0    0  0.24366210324E+03  0.11319842417E+04  0.28123538354E+03  0.11941357973E+04  0.78149967267E+02 0.  0.
        254    2    1    2    0    0 -0.24366210324E+03 -0.11319842417E+04  0.62879513637E+03  0.15959011553E+04  0.90042080715E+03 0.  0.
         23    2    4    4    0    0 -0.31154099076E+01 -0.10290242549E+03  0.50980831302E+03  0.52832696001E+03  0.92877584471E+02 0.  0.
         23    2    4    4    0    0 -0.24054669333E+03 -0.10290818162E+04  0.11898682335E+03  0.10675741953E+04  0.93191749579E+02 0.  0.
          2    1    3    3  502    0  0.13765721522E+03  0.57768359706E+03  0.10628875279E+03  0.60329523965E+03  0.00000000000E+00 0. -1.
         -1    1    3    3    0  502  0.10600488802E+03  0.55430064465E+03  0.17494663076E+03  0.59084055764E+03  0.00000000000E+00 0.  1.
         11    1    5    5    0    0  0.22310232065E+02 -0.11090386920E+02  0.25631447313E+03  0.25752252769E+03  0.00000000000E+00 0.  1.
        -11    1    5    5    0    0 -0.25425641973E+02 -0.91812038573E+02  0.25349383990E+03  0.27080443232E+03  0.00000000000E+00 0. -1.
          1    1    6    6  503    0 -0.79238506416E+02 -0.54269187983E+03  0.65889014634E+02  0.55238988005E+03  0.00000000000E+00 0. -1.
         -1    1    6    6    0  503 -0.16130818692E+03 -0.48638993638E+03  0.53097808715E+02  0.51518431524E+03  0.00000000000E+00 0.  1.
<mgrwt>
<rscale>  0 0.26374515E+04</rscale>
<asrwt>0</asrwt>
<pdfrwt beam="1">  1        2 0.28462057E+00 0.26374515E+04</pdfrwt>
<pdfrwt beam="2">  1       -1 0.14461588E+00 0.26374515E+04</pdfrwt>
<totfact> 0.31257003E+00</totfact>
</mgrwt>
</event>
<event>
12    6  0.1395358E-007  0.1349939E+04  0.7818608E-02  0.8990874E-01
         -1   -1    0    0    0  501 -0.00000000000E+00  0.00000000000E+00  0.53097873779E+03  0.53097873779E+03  0.00000000000E+00 0.  1.
          2   -1    0    0  501    0  0.00000000000E+00 -0.00000000000E+00 -0.85800741517E+03  0.85800741517E+03  0.00000000000E+00 0. -1.
         24    2    1    2    0    0 -0.26519458997E+03  0.25699606711E+03 -0.74272805965E+02  0.38465827966E+03  0.77912729043E+02 0.  0.
        254    2    1    2    0    0  0.26519458997E+03 -0.25699606711E+03 -0.25275587142E+03  0.10043278733E+04  0.89911834455E+03 0.  0.
         23    2    4    4    0    0  0.37513215176E+03 -0.12574457960E+01  0.22325598075E+03  0.44573389900E+03  0.90054224366E+02 0.  0.
         23    2    4    4    0    0 -0.10993756178E+03 -0.25573862131E+03 -0.47601185217E+03  0.55859397430E+03  0.89170818119E+02 0.  0.
          2    1    3    3  502    0 -0.10006019843E+03  0.13297771706E+03 -0.62624265876E+02  0.17781145975E+03  0.00000000000E+00 0. -1.
         -1    1    3    3    0  502 -0.16513439154E+03  0.12401835005E+03 -0.11648540089E+02  0.20684681991E+03  0.00000000000E+00 0.  1.
         11    1    5    5    0    0  0.16886019965E+03  0.72402708713E+01  0.15207293366E+03  0.22735955159E+03  0.00000000000E+00 0.  1.
        -11    1    5    5    0    0  0.20627195210E+03 -0.84977166673E+01  0.71183047097E+02  0.21837434741E+03  0.00000000000E+00 0. -1.
          4    1    6    6  503    0 -0.59911029095E+02 -0.15484183868E+03 -0.19651536447E+03  0.25726176336E+03  0.00000000000E+00 0. -1.
         -4    1    6    6    0  503 -0.50026532688E+02 -0.10089678263E+03 -0.27949648770E+03  0.30133221095E+03  0.00000000000E+00 0.  1.
<mgrwt>
<rscale>  0 0.13499388E+04</rscale>
<asrwt>0</asrwt>
<pdfrwt beam="1">  1        2 0.13200114E+00 0.13499388E+04</pdfrwt>
<pdfrwt beam="2">  1       -1 0.81689037E-01 0.13499388E+04</pdfrwt>
<totfact> 0.52131737E+01</totfact>
</mgrwt>
</event>
<event>
12    6  0.1395358E-007  0.2847057E+04  0.7818608E-02  0.8288806E-01
          2   -1    0    0  501    0  0.00000000000E+00  0.00000000000E+00  0.29615909594E+04  0.29615909594E+04  0.00000000000E+00 0. -1.
         -1   -1    0    0    0  501 -0.00000000000E+00 -0.00000000000E+00 -0.68423801654E+03  0.68423801654E+03  0.00000000000E+00 0.  1.
         24    2    1    2    0    0  0.68689461192E+03 -0.20126247434E+03 -0.33246550365E+03  0.79330325296E+03  0.80411122228E+02 0.  0.
        254    2    1    2    0    0 -0.68689461192E+03  0.20126247434E+03  0.26098184465E+04  0.28525257230E+04  0.90189793493E+03 0.  0.
         23    2    4    4    0    0 -0.29124303229E+03  0.42180373997E+03  0.21028404630E+04  0.21663011862E+04  0.90453953166E+02 0.  0.
         23    2    4    4    0    0 -0.39565157964E+03 -0.22054126563E+03  0.50697798352E+03  0.68622453677E+03  0.93267447593E+02 0.  0.
          2    1    3    3  502    0  0.57550594898E+03 -0.16162880649E+03 -0.24405546804E+03  0.64567332288E+03  0.00000000000E+00 0. -1.
         -1    1    3    3    0  502  0.11138866294E+03 -0.39633667851E+02 -0.88410035611E+02  0.14762993008E+03  0.00000000000E+00 0.  1.
         11    1    5    5    0    0 -0.16862977955E+03  0.16923998734E+03  0.90576828894E+03  0.93674669421E+03  0.00000000000E+00 0. -1.
        -11    1    5    5    0    0 -0.12261325273E+03  0.25256375263E+03  0.11970721741E+04  0.12295544920E+04  0.00000000000E+00 0.  1.
          1    1    6    6  503    0 -0.23928164197E+02 -0.33263085565E+02  0.19985378293E+02  0.45589530033E+02  0.00000000000E+00 0. -1.
         -1    1    6    6    0  503 -0.37172341544E+03 -0.18727818007E+03  0.48699260523E+03  0.64063500674E+03  0.00000000000E+00 0.  1.
<mgrwt>
<rscale>  0 0.28470568E+04</rscale>
<asrwt>0</asrwt>
<pdfrwt beam="1">  1        2 0.45562937E+00 0.28470568E+04</pdfrwt>
<pdfrwt beam="2">  1       -1 0.10526739E+00 0.28470568E+04</pdfrwt>
<totfact> 0.15334391E+00</totfact>
</mgrwt>
</event>
<event>
12    6  0.1395358E-007  0.1441646E+04  0.7818608E-02  0.8924213E-01
          2   -1    0    0  501    0  0.00000000000E+00  0.00000000000E+00  0.26177727565E+04  0.26177727565E+04  0.00000000000E+00 0. -1.
         -1   -1    0    0    0  501 -0.00000000000E+00 -0.00000000000E+00 -0.19848388490E+03  0.19848388490E+03  0.00000000000E+00 0.  1.
         24    2    1    2    0    0  0.12948188225E+03 -0.36780511726E+03  0.11268553421E+04  0.11944827019E+04  0.70283718739E+02 0.  0.
        254    2    1    2    0    0 -0.12948188225E+03  0.36780511726E+03  0.12924335295E+04  0.16217739395E+04  0.89873250771E+03 0.  0.
         23    2    4    4    0    0 -0.43838730719E+03 -0.51306429303E+02  0.56652108725E+03  0.72385599001E+03  0.90584607846E+02 0.  0.
         23    2    4    4    0    0  0.30890542495E+03  0.41911154657E+03  0.72591244225E+03  0.89791794945E+03  0.90723316177E+02 0.  0.
          4    1    3    3  502    0  0.86496258420E+02 -0.24550205026E+03  0.84629551026E+03  0.88542021102E+03  0.00000000000E+00 0. -1.
         -3    1    3    3    0  502  0.42985623827E+02 -0.12230306701E+03  0.28055983183E+03  0.30906249092E+03  0.00000000000E+00 0.  1.
         11    1    5    5    0    0 -0.44269197833E+03 -0.49755915662E+02  0.56371364469E+03  0.71848793451E+03  0.00000000000E+00 0.  1.
        -11    1    5    5    0    0  0.43046711391E+01 -0.15505136407E+01  0.28074425656E+01  0.53680555069E+01  0.00000000000E+00 0. -1.
          4    1    6    6  503    0  0.27461372832E+03  0.34584540246E+03  0.65713807059E+03  0.79173997373E+03  0.00000000000E+00 0. -1.
         -4    1    6    6    0  503  0.34291696628E+02  0.73266144106E+02  0.68774371657E+02  0.10617797571E+03  0.00000000000E+00 0.  1.
<mgrwt>
<rscale>  0 0.14416459E+04</rscale>
<asrwt>0</asrwt>
<pdfrwt beam="1">  1        2 0.40273424E+00 0.14416459E+04</pdfrwt>
<pdfrwt beam="2">  1       -1 0.30535984E-01 0.14416459E+04</pdfrwt>
<totfact> 0.32611519E+01</totfact>
</mgrwt>
</event>
<event>
12    6  0.1395358E-007  0.1956342E+04  0.7818608E-02  0.8627309E-01
          2   -1    0    0  501    0  0.00000000000E+00  0.00000000000E+00  0.38164021999E+04  0.38164021999E+04  0.00000000000E+00 0. -1.
         -1   -1    0    0    0  501 -0.00000000000E+00 -0.00000000000E+00 -0.25071218289E+03  0.25071218289E+03  0.00000000000E+00 0.  1.
         24    2    1    2    0    0 -0.66357996621E+03 -0.19608803194E+03  0.71997601459E+03  0.10021375239E+04  0.84411298683E+02 0.  0.
        254    2    1    2    0    0  0.66357996621E+03  0.19608803194E+03  0.28457140024E+04  0.30649768589E+04  0.90399451010E+03 0.  0.
         23    2    4    4    0    0  0.97173542432E+02  0.43720132296E+03  0.74185660816E+03  0.87124379083E+03  0.90148887151E+02 0.  0.
         23    2    4    4    0    0  0.56640642378E+03 -0.24111329102E+03  0.21038573942E+04  0.21937330681E+04  0.85422377704E+02 0.  0.
          2    1    3    3  502    0 -0.45773817150E+02 -0.10748513625E+02  0.84342233072E+02  0.96562856012E+02  0.00000000000E+00 0. -1.
         -1    1    3    3    0  502 -0.61780614906E+03 -0.18533951831E+03  0.63563378151E+03  0.90557466786E+03  0.00000000000E+00 0.  1.
         11    1    5    5    0    0  0.37684791217E+02  0.17827813791E+03  0.22006603429E+03  0.28571366330E+03  0.00000000000E+00 0. -1.
        -11    1    5    5    0    0  0.59488751215E+02  0.25892318504E+03  0.52179057387E+03  0.58553012754E+03  0.00000000000E+00 0.  1.
          3    1    6    6  503    0  0.39620735133E+03 -0.18019736975E+03  0.16112125593E+04  0.16689689238E+04  0.00000000000E+00 0. -1.
         -3    1    6    6    0  503  0.17019907245E+03 -0.60915921267E+02  0.49264483490E+03  0.52476414423E+03  0.00000000000E+00 0.  1.
<mgrwt>
<rscale>  0 0.19563420E+04</rscale>
<asrwt>0</asrwt>
<pdfrwt beam="1">  1        2 0.58713876E+00 0.19563420E+04</pdfrwt>
<pdfrwt beam="2">  1       -1 0.38571108E-01 0.19563420E+04</pdfrwt>
<totfact> 0.33269752E+00</totfact>
</mgrwt>
</event>
<event>
12    6  0.1395358E-007  0.1627675E+04  0.7818608E-02  0.8803724E-01
         -1   -1    0    0    0  501 -0.00000000000E+00  0.00000000000E+00  0.79988489738E+03  0.79988489738E+03  0.00000000000E+00 0.  1.
          2   -1    0    0  501    0  0.00000000000E+00 -0.00000000000E+00 -0.82803355285E+03  0.82803355285E+03  0.00000000000E+00 0. -1.
         24    2    1    2    0    0 -0.12088400207E+03  0.26454011223E+03 -0.48963321375E+03  0.57493835385E+03  0.78860724015E+02 0.  0.
        254    2    1    2    0    0  0.12088400207E+03 -0.26454011223E+03  0.46148455827E+03  0.10529800964E+04  0.90066901406E+03 0.  0.
         23    2    4    4    0    0  0.21424584986E+03  0.13937166651E+03 -0.14854096596E+03  0.30974773916E+03  0.92485121711E+02 0.  0.
         23    2    4    4    0    0 -0.93361847788E+02 -0.40391177875E+03  0.61002552424E+03  0.74323235721E+03  0.91662625695E+02 0.  0.
          2    1    3    3  502    0 -0.80701682660E+02  0.19639405059E+03 -0.41507548205E+03  0.46623067305E+03  0.00000000000E+00 0. -1.
         -1    1    3    3    0  502 -0.40182319411E+02  0.68146061644E+02 -0.74557731698E+02  0.10870768081E+03  0.00000000000E+00 0.  1.
         11    1    5    5    0    0  0.13236112654E+02  0.26452139936E+02 -0.51941927026E+02  0.59773523976E+02  0.00000000000E+00 0.  1.
        -11    1    5    5    0    0  0.20100973721E+03  0.11291952658E+03 -0.96599038939E+02  0.24997421519E+03  0.00000000000E+00 0. -1.
          2    1    6    6  503    0 -0.55770117390E+02 -0.15644933008E+03  0.17452873068E+03  0.24092940192E+03  0.00000000000E+00 0. -1.
         -2    1    6    6    0  503 -0.37591730398E+02 -0.24746244867E+03  0.43549679356E+03  0.50230295529E+03  0.00000000000E+00 0.  1.
<mgrwt>
<rscale>  0 0.16276751E+04</rscale>
<asrwt>0</asrwt>
<pdfrwt beam="1">  1        2 0.12738978E+00 0.16276751E+04</pdfrwt>
<pdfrwt beam="2">  1       -1 0.12305921E+00 0.16276751E+04</pdfrwt>
<totfact> 0.20907339E+01</totfact>
</mgrwt>
</event>
<event>
12    6  0.1395358E-007  0.1992930E+04  0.7818608E-02  0.8609933E-01
         -1   -1    0    0    0  501 -0.00000000000E+00  0.00000000000E+00  0.53432322185E+03  0.53432322185E+03  0.00000000000E+00 0.  1.
          2   -1    0    0  501    0  0.00000000000E+00 -0.00000000000E+00 -0.18583185773E+04  0.18583185773E+04  0.00000000000E+00 0. -1.
         24    2    1    2    0    0 -0.18280052329E+03  0.25794808875E+03 -0.13981807693E+04  0.14356403154E+04  0.78742642835E+02 0.  0.
        254    2    1    2    0    0  0.18280052329E+03 -0.25794808875E+03  0.74185413833E+02  0.95700148376E+03  0.90021948240E+03 0.  0.
         23    2    4    4    0    0  0.44193102300E+02 -0.56336932176E+03  0.16434967863E+03  0.59750279212E+03  0.10325089214E+03 0.  0.
         23    2    4    4    0    0  0.13860742099E+03  0.30542123301E+03 -0.90164264795E+02  0.35949869164E+03  0.92820083598E+02 0.  0.
          4    1    3    3  502    0 -0.12953234007E+03  0.21429011111E+03 -0.11996128305E+04  0.12254671852E+04  0.00000000000E+00 0. -1.
         -3    1    3    3    0  502 -0.53268183222E+02  0.43657977641E+02 -0.19856793881E+03  0.21017313025E+03  0.00000000000E+00 0.  1.
         11    1    5    5    0    0  0.14303697763E+01 -0.57832449938E-01 -0.70088478666E+01  0.71535481201E+01  0.00000000000E+00 0. -1.
        -11    1    5    5    0    0  0.42762732524E+02 -0.56331148931E+03  0.17135852649E+03  0.59034924400E+03  0.00000000000E+00 0.  1.
          1    1    6    6  503    0  0.42517775698E+02  0.69763958822E+02  0.16851508564E+02  0.83419089792E+02  0.00000000000E+00 0. -1.
         -1    1    6    6    0  503  0.96089645292E+02  0.23565727419E+03 -0.10701577336E+03  0.27607960185E+03  0.00000000000E+00 0.  1.
<mgrwt>
<rscale>  0 0.19929303E+04</rscale>
<asrwt>0</asrwt>
<pdfrwt beam="1">  1        2 0.28589516E+00 0.19929303E+04</pdfrwt>
<pdfrwt beam="2">  1       -1 0.82203573E-01 0.19929303E+04</pdfrwt>
<totfact> 0.12476325E+01</totfact>
</mgrwt>
</event>
<event>
12    6  0.1395358E-007  0.2841214E+04  0.7818608E-02  0.8290586E-01
         -1   -1    0    0    0  501 -0.00000000000E+00  0.00000000000E+00  0.31587633656E+04  0.31587633656E+04  0.00000000000E+00 0.  1.
          2   -1    0    0  501    0  0.00000000000E+00 -0.00000000000E+00 -0.63889701991E+03  0.63889701991E+03  0.00000000000E+00 0. -1.
         24    2    1    2    0    0  0.12661171026E+04 -0.15788076814E+03  0.10347150692E+04  0.16446107939E+04  0.78297731442E+02 0.  0.
        254    2    1    2    0    0 -0.12661171026E+04  0.15788076814E+03  0.14851512765E+04  0.21530495916E+04  0.89552742860E+03 0.  0.
         23    2    4    4    0    0 -0.13107363959E+04  0.32932779350E+03  0.13190822262E+04  0.18908698007E+04  0.94466864946E+02 0.  0.
         23    2    4    4    0    0  0.44619293335E+02 -0.17144702536E+03  0.16606905030E+03  0.26217979089E+03  0.98865309608E+02 0.  0.
          4    1    3    3  502    0  0.65000586972E+03 -0.99425634787E+02  0.57753809775E+03  0.87518189074E+03  0.00000000000E+00 0. -1.
         -3    1    3    3    0  502  0.61611123284E+03 -0.58455133350E+02  0.45717697143E+03  0.76942890318E+03  0.00000000000E+00 0.  1.
         11    1    5    5    0    0 -0.65920860633E+03  0.17291179693E+03  0.73029139161E+03  0.99888937968E+03  0.00000000000E+00 0. -1.
        -11    1    5    5    0    0 -0.65152778957E+03  0.15641599657E+03  0.58879083456E+03  0.89198042099E+03  0.00000000000E+00 0.  1.
          4    1    6    6  503    0  0.47137938877E+02 -0.15131434614E+03  0.87507037431E+02  0.18104004592E+03  0.00000000000E+00 0. -1.
         -4    1    6    6    0  503 -0.25186455419E+01 -0.20132679223E+02  0.78562012866E+02  0.81139744969E+02  0.00000000000E+00 0.  1.
<mgrwt>
<rscale>  0 0.28412142E+04</rscale>
<asrwt>0</asrwt>
<pdfrwt beam="1">  1        2 0.98291851E-01 0.28412142E+04</pdfrwt>
<pdfrwt beam="2">  1       -1 0.48596359E+00 0.28412142E+04</pdfrwt>
<totfact> 0.83493402E-02</totfact>
</mgrwt>
</event>
<event>
12    6  0.1395358E-007  0.1873938E+04  0.7818608E-02  0.8667939E-01
         -1   -1    0    0    0  501 -0.00000000000E+00  0.00000000000E+00  0.81421208752E+03  0.81421208752E+03  0.00000000000E+00 0.  1.
          2   -1    0    0  501    0  0.00000000000E+00 -0.00000000000E+00 -0.10782335507E+04  0.10782335507E+04  0.00000000000E+00 0. -1.
         24    2    1    2    0    0 -0.19743155876E+03  0.65957030791E+03  0.10307096490E+03  0.70076540666E+03  0.80226678168E+02 0.  0.
        254    2    1    2    0    0  0.19743155876E+03 -0.65957030791E+03 -0.36709242805E+03  0.11916802315E+04  0.90074009125E+03 0.  0.
         23    2    4    4    0    0  0.23339353471E+03 -0.13333069916E+03 -0.55656596596E+03  0.62372509566E+03  0.83771732156E+02 0.  0.
         23    2    4    4    0    0 -0.35961975949E+02 -0.52623960875E+03  0.18947353791E+03  0.56795513586E+03  0.91931633570E+02 0.  0.
          4    1    3    3  502    0 -0.15277797996E+03  0.58314655083E+03  0.72741510633E+02  0.60720041030E+03  0.00000000000E+00 0. -1.
         -3    1    3    3    0  502 -0.44653578803E+02  0.76423757084E+02  0.30329454272E+02  0.93564996356E+02  0.00000000000E+00 0.  1.
         11    1    5    5    0    0  0.11637927576E+03 -0.36181734426E+02 -0.17774222371E+03  0.21551230086E+03  0.00000000000E+00 0.  1.
        -11    1    5    5    0    0  0.11701425895E+03 -0.97148964730E+02 -0.37882374225E+03  0.40821279480E+03  0.00000000000E+00 0. -1.
          3    1    6    6  503    0 -0.46682396034E+02 -0.49225488414E+03  0.15453520219E+03  0.51804946268E+03  0.00000000000E+00 0. -1.
         -3    1    6    6    0  503  0.10720420085E+02 -0.33984724609E+02  0.34938335716E+02  0.49905673186E+02  0.00000000000E+00 0.  1.
<mgrwt>
<rscale>  0 0.18739379E+04</rscale>
<asrwt>0</asrwt>
<pdfrwt beam="1">  1        2 0.16588209E+00 0.18739379E+04</pdfrwt>
<pdfrwt beam="2">  1       -1 0.12526340E+00 0.18739379E+04</pdfrwt>
<totfact> 0.13394370E+01</totfact>
</mgrwt>
</event>
<event>
12    6  0.1395358E-007  0.3186098E+04  0.7818608E-02  0.8192498E-01
         -1   -1    0    0    0  501 -0.00000000000E+00  0.00000000000E+00  0.10208503724E+04  0.10208503724E+04  0.00000000000E+00 0.  1.
          2   -1    0    0  501    0  0.00000000000E+00 -0.00000000000E+00 -0.24859721673E+04  0.24859721673E+04  0.00000000000E+00 0. -1.
         24    2    1    2    0    0  0.66558372187E+03  0.92259726446E+03 -0.16900923542E+04  0.20389530709E+04  0.82036921106E+02 0.  0.
        254    2    1    2    0    0 -0.66558372187E+03 -0.92259726446E+03  0.22497055925E+03  0.14678694688E+04  0.89991200779E+03 0.  0.
         23    2    4    4    0    0 -0.44443361940E+03 -0.44482899260E+02 -0.15490432553E+03  0.48167045830E+03  0.92255677086E+02 0.  0.
         23    2    4    4    0    0 -0.22115010247E+03 -0.87811436520E+03  0.37987488478E+03  0.98619901052E+03  0.91056872731E+02 0.  0.
          4    1    3    3  502    0  0.35776984500E+03  0.42859216998E+03 -0.84782769261E+03  0.10151365950E+04  0.00000000000E+00 0. -1.
         -3    1    3    3    0  502  0.30781387687E+03  0.49400509448E+03 -0.84226466157E+03  0.10238164759E+04  0.00000000000E+00 0.  1.
         11    1    5    5    0    0 -0.14317023570E+03 -0.33749724010E+01 -0.94764526097E+02  0.17172484455E+03  0.00000000000E+00 0. -1.
        -11    1    5    5    0    0 -0.30126338370E+03 -0.41107926859E+02 -0.60139799432E+02  0.30994561376E+03  0.00000000000E+00 0.  1.
          1    1    6    6  503    0 -0.52679157048E+02 -0.91969820574E+02  0.39169640598E+02  0.11299470000E+03  0.00000000000E+00 0. -1.
         -1    1    6    6    0  503 -0.16847094542E+03 -0.78614454463E+03  0.34070524418E+03  0.87320431052E+03  0.00000000000E+00 0.  1.
<mgrwt>
<rscale>  0 0.31860983E+04</rscale>
<asrwt>0</asrwt>
<pdfrwt beam="1">  1        2 0.38245726E+00 0.31860983E+04</pdfrwt>
<pdfrwt beam="2">  1       -1 0.15705390E+00 0.31860983E+04</pdfrwt>
<totfact> 0.10455939E+00</totfact>
</mgrwt>
</event>
<event>
12    6  0.1395358E-007  0.1562513E+04  0.7818608E-02  0.8843914E-01
         -1   -1    0    0    0  501 -0.00000000000E+00  0.00000000000E+00  0.39170840716E+03  0.39170840716E+03  0.00000000000E+00 0.  1.
          2   -1    0    0  501    0  0.00000000000E+00 -0.00000000000E+00 -0.15582043815E+04  0.15582043815E+04  0.00000000000E+00 0. -1.
         24    2    1    2    0    0  0.82367452284E+02  0.49816711796E+03 -0.25851458665E+03  0.57651649875E+03  0.10289123968E+03 0.  0.
        254    2    1    2    0    0 -0.82367452284E+02 -0.49816711796E+03 -0.90798138765E+03  0.13733962899E+04  0.89823843945E+03 0.  0.
         23    2    4    4    0    0  0.25389695659E+03  0.76445283098E+01  0.89003165055E+01  0.27027946964E+03  0.91922101244E+02 0.  0.
         23    2    4    4    0    0 -0.33626440887E+03 -0.50581164627E+03 -0.91688170416E+03  0.11031168202E+04  0.85296456465E+02 0.  0.
          2    1    3    3  502    0  0.80088688470E+02  0.35611879694E+03 -0.23054085749E+03  0.43172199681E+03  0.00000000000E+00 0. -1.
         -1    1    3    3    0  502  0.22787638148E+01  0.14204832102E+03 -0.27973729165E+02  0.14479450194E+03  0.00000000000E+00 0.  1.
         11    1    5    5    0    0  0.17709628176E+03 -0.28265737202E+02 -0.20589086564E+02  0.18051580374E+03  0.00000000000E+00 0. -1.
        -11    1    5    5    0    0  0.76800674826E+02  0.35910265512E+02  0.29489403069E+02  0.89763665902E+02  0.00000000000E+00 0.  1.
          1    1    6    6  503    0 -0.27543480014E+03 -0.34538851906E+03 -0.66348885058E+03  0.79710414192E+03  0.00000000000E+00 0. -1.
         -1    1    6    6    0  503 -0.60829608735E+02 -0.16042312721E+03 -0.25339285358E+03  0.30601267831E+03  0.00000000000E+00 0.  1.
<mgrwt>
<rscale>  0 0.15625130E+04</rscale>
<asrwt>0</asrwt>
<pdfrwt beam="1">  1        2 0.23972375E+00 0.15625130E+04</pdfrwt>
<pdfrwt beam="2">  1       -1 0.60262833E-01 0.15625130E+04</pdfrwt>
<totfact> 0.36010045E+01</totfact>
</mgrwt>
</event>
<event>
12    6  0.1395358E-007  0.1586006E+04  0.7818608E-02  0.8829191E-01
          2   -1    0    0  501    0  0.00000000000E+00  0.00000000000E+00  0.16205249480E+04  0.16205249480E+04  0.00000000000E+00 0. -1.
         -1   -1    0    0    0  501 -0.00000000000E+00 -0.00000000000E+00 -0.38805576311E+03  0.38805576311E+03  0.00000000000E+00 0.  1.
         24    2    1    2    0    0  0.18637223838E+03  0.15742911381E+03  0.10262166173E+04  0.10579689669E+04  0.81604241491E+02 0.  0.
        254    2    1    2    0    0 -0.18637223838E+03 -0.15742911381E+03  0.20625256757E+03  0.95061174418E+03  0.89532342169E+03 0.  0.
         23    2    4    4    0    0 -0.40928846700E+03 -0.34159324724E+03 -0.64058137490E+02  0.54472624606E+03  0.91761878736E+02 0.  0.
         23    2    4    4    0    0  0.22291622862E+03  0.18416413343E+03  0.27031070506E+03  0.40588549812E+03  0.89816965479E+02 0.  0.
          2    1    3    3  502    0  0.38111008468E+02  0.77458485938E+02  0.42017372032E+03  0.42895013843E+03  0.00000000000E+00 0. -1.
         -1    1    3    3    0  502  0.14826122991E+03  0.79970627876E+02  0.60604289699E+03  0.62901882851E+03  0.00000000000E+00 0.  1.
         11    1    5    5    0    0 -0.32378205507E+02 -0.53233509844E+02  0.13797912987E+02  0.63816433345E+02  0.00000000000E+00 0. -1.
        -11    1    5    5    0    0 -0.37691026149E+03 -0.28835973740E+03 -0.77856050477E+02  0.48090981272E+03  0.00000000000E+00 0.  1.
          4    1    6    6  503    0  0.18303187859E+03  0.11520329139E+03  0.23304978894E+03  0.31793815602E+03  0.00000000000E+00 0.  1.
         -4    1    6    6    0  503  0.39884350025E+02  0.68960842040E+02  0.37260916120E+02  0.87947342097E+02  0.00000000000E+00 0. -1.
<mgrwt>
<rscale>  0 0.15860064E+04</rscale>
<asrwt>0</asrwt>
<pdfrwt beam="1">  1        2 0.24931153E+00 0.15860064E+04</pdfrwt>
<pdfrwt beam="2">  1       -1 0.59700887E-01 0.15860064E+04</pdfrwt>
<totfact> 0.33787280E+01</totfact>
</mgrwt>
</event>
<event>
12    6  0.1395358E-007  0.2089942E+04  0.7818608E-02  0.8565687E-01
          2   -1    0    0  501    0  0.00000000000E+00  0.00000000000E+00  0.19804400287E+04  0.19804400287E+04  0.00000000000E+00 0. -1.
         -1   -1    0    0    0  501 -0.00000000000E+00 -0.00000000000E+00 -0.55137436790E+03  0.55137436790E+03  0.00000000000E+00 0.  1.
         24    2    1    2    0    0 -0.62620469563E+03 -0.12040253004E+03 -0.96460153629E+02  0.64973210258E+03  0.78855271362E+02 0.  0.
        254    2    1    2    0    0  0.62620469563E+03  0.12040253004E+03  0.15255258145E+04  0.18820822940E+04  0.89909713653E+03 0.  0.
         23    2    4    4    0    0  0.74372639451E+03 -0.13234866289E+03  0.13210892584E+04  0.15245740091E+04  0.91673127034E+02 0.  0.
         23    2    4    4    0    0 -0.11752169888E+03  0.25275119293E+03  0.20443655610E+03  0.35750828495E+03  0.91232412566E+02 0.  0.
          4    1    3    3  502    0 -0.45982000605E+02 -0.89641647788E+00  0.11890461137E+02  0.47502957889E+02  0.00000000000E+00 0. -1.
         -3    1    3    3    0  502 -0.58022269502E+03 -0.11950611356E+03 -0.10835061477E+03  0.60222914469E+03  0.00000000000E+00 0.  1.
         11    1    5    5    0    0  0.12073689880E+03 -0.78730746377E+00  0.26824156931E+03  0.29416246887E+03  0.00000000000E+00 0.  1.
        -11    1    5    5    0    0  0.62298949570E+03 -0.13156135542E+03  0.10528476890E+04  0.12304115402E+04  0.00000000000E+00 0. -1.
          1    1    6    6  503    0 -0.26611874680E+02  0.15346266448E+03  0.13458071251E+03  0.20584204974E+03  0.00000000000E+00 0. -1.
         -1    1    6    6    0  503 -0.90909824198E+02  0.99288528451E+02  0.69855843588E+02  0.15166623520E+03  0.00000000000E+00 0.  1.
<mgrwt>
<rscale>  0 0.20899415E+04</rscale>
<asrwt>0</asrwt>
<pdfrwt beam="1">  1        2 0.30468308E+00 0.20899415E+04</pdfrwt>
<pdfrwt beam="2">  1       -1 0.84826827E-01 0.20899415E+04</pdfrwt>
<totfact> 0.98912860E+00</totfact>
</mgrwt>
</event>
<event>
12    6  0.1395358E-007  0.1187421E+04  0.7818608E-02  0.9123939E-01
          2   -1    0    0  501    0  0.00000000000E+00  0.00000000000E+00  0.28260802344E+04  0.28260802344E+04  0.00000000000E+00 0. -1.
         -1   -1    0    0    0  501 -0.00000000000E+00 -0.00000000000E+00 -0.12472821273E+03  0.12472821273E+03  0.00000000000E+00 0.  1.
         24    2    1    2    0    0  0.53862185830E+02 -0.16684999179E+03  0.10066126500E+04  0.10248456746E+04  0.79369860217E+02 0.  0.
        254    2    1    2    0    0 -0.53862185830E+02  0.16684999179E+03  0.16947393717E+04  0.19259627725E+04  0.89802617367E+03 0.  0.
         23    2    4    4    0    0 -0.43580902227E+03  0.21132918968E+03  0.11542513347E+04  0.12551160561E+04  0.91818519481E+02 0.  0.
         23    2    4    4    0    0  0.38194683644E+03 -0.44479197887E+02  0.54048803699E+03  0.67084671640E+03  0.10023080297E+03 0.  0.
          4    1    3    3  502    0 -0.75801521425E+01 -0.97996271570E+02  0.59038199708E+03  0.59850783656E+03  0.00000000000E+00 0. -1.
         -3    1    3    3    0  502  0.61442337973E+02 -0.68853720220E+02  0.41623065291E+03  0.42633783799E+03  0.00000000000E+00 0.  1.
         11    1    5    5    0    0 -0.31637520653E+03  0.19420385274E+03  0.83390494496E+03  0.91280110920E+03  0.00000000000E+00 0.  1.
        -11    1    5    5    0    0 -0.11943381574E+03  0.17125336942E+02  0.32034638970E+03  0.34231494694E+03  0.00000000000E+00 0. -1.
          4    1    6    6  503    0  0.28121629920E+03  0.75349551943E+01  0.34836352858E+03  0.44776838938E+03  0.00000000000E+00 0. -1.
         -4    1    6    6    0  503  0.10073053724E+03 -0.52014153081E+02  0.19212450841E+03  0.22307832702E+03  0.00000000000E+00 0.  1.
<mgrwt>
<rscale>  0 0.11874206E+04</rscale>
<asrwt>0</asrwt>
<pdfrwt beam="1">  1        2 0.43478153E+00 0.11874206E+04</pdfrwt>
<pdfrwt beam="2">  1       -1 0.19188958E-01 0.11874206E+04</pdfrwt>
<totfact> 0.55627957E+01</totfact>
</mgrwt>
</event>
<event>
12    6  0.1395358E-007  0.1826699E+04  0.7818608E-02  0.8692229E-01
          2   -1    0    0  501    0  0.00000000000E+00  0.00000000000E+00  0.83446496438E+03  0.83446496438E+03  0.00000000000E+00 0. -1.
         -1   -1    0    0    0  501 -0.00000000000E+00 -0.00000000000E+00 -0.99969132685E+03  0.99969132685E+03  0.00000000000E+00 0.  1.
         24    2    1    2    0    0  0.44215349254E+01 -0.65267010785E+03  0.15833162383E+03  0.67668542546E+03  0.82682781007E+02 0.  0.
        254    2    1    2    0    0 -0.44215349254E+01  0.65267010785E+03 -0.32355798630E+03  0.11574708658E+04  0.89947274276E+03 0.  0.
         23    2    4    4    0    0  0.18805818421E+03 -0.16158855140E+03 -0.28625724506E+02  0.26570950486E+03  0.91133793280E+02 0.  0.
         23    2    4    4    0    0 -0.19247971914E+03  0.81425865925E+03 -0.29493226179E+03  0.89176136091E+03  0.90485796305E+02 0.  0.
          2    1    3    3  502    0 -0.31969937813E+02 -0.12686319206E+03  0.32750707149E+02  0.13486643482E+03  0.00000000000E+00 0. -1.
         -3    1    3    3    0  502  0.36391472738E+02 -0.52580691579E+03  0.12558091668E+03  0.54181899064E+03  0.00000000000E+00 0.  1.
         11    1    5    5    0    0  0.13246796880E+03 -0.54394313185E+02 -0.10240852007E+02  0.14356663649E+03  0.00000000000E+00 0. -1.
        -11    1    5    5    0    0  0.55590215412E+02 -0.10719423821E+03 -0.18384872500E+02  0.12214286837E+03  0.00000000000E+00 0.  1.
          4    1    6    6  503    0 -0.18901823474E+03  0.73487015802E+03 -0.24266216843E+03  0.79664733113E+03  0.00000000000E+00 0. -1.
         -4    1    6    6    0  503 -0.34614844002E+01  0.79388501226E+02 -0.52270093358E+02  0.95114029779E+02  0.00000000000E+00 0.  1.
<mgrwt>
<rscale>  0 0.18266991E+04</rscale>
<asrwt>0</asrwt>
<pdfrwt beam="1">  1        2 0.12837923E+00 0.18266991E+04</pdfrwt>
<pdfrwt beam="2">  1       -1 0.15379867E+00 0.18266991E+04</pdfrwt>
<totfact> 0.11408514E+01</totfact>
</mgrwt>
</event>
<event>
12    6  0.1395358E-007  0.3554941E+04  0.7818608E-02  0.8100892E-01
          2   -1    0    0  501    0  0.00000000000E+00  0.00000000000E+00  0.31413730667E+04  0.31413730667E+04  0.00000000000E+00 0. -1.
         -1   -1    0    0    0  501 -0.00000000000E+00 -0.00000000000E+00 -0.10057392279E+04  0.10057392279E+04  0.00000000000E+00 0.  1.
         24    2    1    2    0    0 -0.15984764924E+04 -0.44381333895E+03  0.87719989464E+03  0.18783709729E+04  0.81856460222E+02 0.  0.
        254    2    1    2    0    0  0.15984764924E+04  0.44381333895E+03  0.12584339442E+04  0.22687413217E+04  0.90079621254E+03 0.  0.
         23    2    4    4    0    0  0.33304042564E+03  0.65260944437E+02 -0.10639477168E+03  0.36725377772E+03  0.91545474110E+02 0.  0.
         23    2    4    4    0    0  0.12654360667E+04  0.37855239452E+03  0.13648287159E+04  0.19014875440E+04  0.90923604980E+02 0.  0.
          4    1    3    3  502    0 -0.43615780698E+03 -0.15735040089E+03  0.25772683730E+03  0.53048647854E+03  0.00000000000E+00 0. -1.
         -3    1    3    3    0  502 -0.11623186854E+04 -0.28646293807E+03  0.61947305734E+03  0.13478844943E+04  0.00000000000E+00 0.  1.
         11    1    5    5    0    0  0.31909037697E+02  0.37147658761E+02 -0.17773170172E+02  0.52096264896E+02  0.00000000000E+00 0. -1.
        -11    1    5    5    0    0  0.30113138795E+03  0.28113285676E+02 -0.88621601508E+02  0.31515751283E+03  0.00000000000E+00 0.  1.
          4    1    6    6  503    0  0.50225107573E+03  0.10624760415E+03  0.50983877336E+03  0.72351936483E+03  0.00000000000E+00 0. -1.
         -4    1    6    6    0  503  0.76318499099E+03  0.27230479037E+03  0.85498994255E+03  0.11779681792E+04  0.00000000000E+00 0.  1.
<mgrwt>
<rscale>  0 0.35549414E+04</rscale>
<asrwt>0</asrwt>
<pdfrwt beam="1">  1        2 0.48328816E+00 0.35549414E+04</pdfrwt>
<pdfrwt beam="2">  1       -1 0.15472911E+00 0.35549414E+04</pdfrwt>
<totfact> 0.42119954E-01</totfact>
</mgrwt>
</event>
<event>
12    6  0.1395358E-007  0.1362784E+04  0.7818608E-02  0.8981207E-01
         -1   -1    0    0    0  501 -0.00000000000E+00  0.00000000000E+00  0.28832061288E+03  0.28832061288E+03  0.00000000000E+00 0.  1.
          2   -1    0    0  501    0  0.00000000000E+00 -0.00000000000E+00 -0.16103436197E+04  0.16103436197E+04  0.00000000000E+00 0. -1.
         24    2    1    2    0    0  0.23740889294E+03  0.93983877255E+02 -0.75985001640E+03  0.80580135264E+03  0.82145120744E+02 0.  0.
        254    2    1    2    0    0 -0.23740889294E+03 -0.93983877255E+02 -0.56217299041E+03  0.10928628799E+04  0.90172881264E+03 0.  0.
         23    2    4    4    0    0 -0.58589345447E+02 -0.44703017481E+03 -0.50690693705E+03  0.68456656501E+03  0.91695422526E+02 0.  0.
         23    2    4    4    0    0 -0.17881954749E+03  0.35304629756E+03 -0.55266053363E+02  0.40829631492E+03  0.83865519350E+02 0.  0.
          2    1    3    3  502    0  0.67175826876E+02  0.64143666371E+02 -0.32026760567E+03  0.33346415234E+03  0.00000000000E+00 0. -1.
         -1    1    3    3    0  502  0.17023306606E+03  0.29840210884E+02 -0.43958241073E+03  0.47233720030E+03  0.00000000000E+00 0.  1.
         11    1    5    5    0    0  0.19325751078E+02 -0.15638066185E+03 -0.20187618630E+03  0.25609059071E+03  0.00000000000E+00 0. -1.
        -11    1    5    5    0    0 -0.77915096525E+02 -0.29064951296E+03 -0.30503075075E+03  0.42847597430E+03  0.00000000000E+00 0.  1.
          4    1    6    6  503    0 -0.70510205565E+02  0.99193525855E+02  0.17297005955E+02  0.12292367988E+03  0.00000000000E+00 0. -1.
         -4    1    6    6    0  503 -0.10830934192E+03  0.25385277170E+03 -0.72563059318E+02  0.28537263503E+03  0.00000000000E+00 0.  1.
<mgrwt>
<rscale>  0 0.13627843E+04</rscale>
<asrwt>0</asrwt>
<pdfrwt beam="1">  1        2 0.24774517E+00 0.13627843E+04</pdfrwt>
<pdfrwt beam="2">  1       -1 0.44357018E-01 0.13627843E+04</pdfrwt>
<totfact> 0.61545865E+01</totfact>
</mgrwt>
</event>
<event>
12    6  0.1395358E-007  0.1977097E+04  0.7818608E-02  0.8617404E-01
          2   -1    0    0  501    0  0.00000000000E+00  0.00000000000E+00  0.12395829509E+04  0.12395829509E+04  0.00000000000E+00 0. -1.
         -1   -1    0    0    0  501 -0.00000000000E+00 -0.00000000000E+00 -0.78835200848E+03  0.78835200848E+03  0.00000000000E+00 0.  1.
         24    2    1    2    0    0  0.51994560069E+03  0.49701860971E+02  0.77439612307E+03  0.93737257437E+03  0.78512961321E+02 0.  0.
        254    2    1    2    0    0 -0.51994560069E+03 -0.49701860971E+02 -0.32316518066E+03  0.10905623850E+04  0.90115308294E+03 0.  0.
         23    2    4    4    0    0  0.23216180600E+03  0.22158428865E+02  0.27488960586E+02  0.25252776105E+03  0.92868331583E+02 0.  0.
         23    2    4    4    0    0 -0.75210740670E+03 -0.71860289836E+02 -0.35065414125E+03  0.83803462394E+03  0.92272702846E+02 0.  0.
          2    1    3    3  502    0  0.39752154863E+03  0.10080136227E+02  0.61748755975E+03  0.73444937008E+03  0.00000000000E+00 0. -1.
         -1    1    3    3    0  502  0.12242405207E+03  0.39621724744E+02  0.15690856332E+03  0.20292320429E+03  0.00000000000E+00 0.  1.
         11    1    5    5    0    0  0.30798208848E+02 -0.29843715380E+02  0.11961844705E+01  0.42902306153E+02  0.00000000000E+00 0. -1.
        -11    1    5    5    0    0  0.20136359715E+03  0.52002144245E+02  0.26292776115E+02  0.20962545490E+03  0.00000000000E+00 0.  1.
          3    1    6    6  503    0 -0.56375445187E+03 -0.13989055449E+02 -0.26769909405E+03  0.62424160437E+03  0.00000000000E+00 0. -1.
         -3    1    6    6    0  503 -0.18835295483E+03 -0.57871234386E+02 -0.82955047202E+02  0.21379301957E+03  0.00000000000E+00 0.  1.
<mgrwt>
<rscale>  0 0.19770966E+04</rscale>
<asrwt>0</asrwt>
<pdfrwt beam="1">  1        2 0.19070507E+00 0.19770966E+04</pdfrwt>
<pdfrwt beam="2">  1       -1 0.12128492E+00 0.19770966E+04</pdfrwt>
<totfact> 0.11482056E+01</totfact>
</mgrwt>
</event>
<event>
12    6  0.1395358E-007  0.3808540E+04  0.7818608E-02  0.8044325E-01
         -1   -1    0    0    0  501 -0.00000000000E+00  0.00000000000E+00  0.14166659780E+04  0.14166659780E+04  0.00000000000E+00 0.  1.
          2   -1    0    0  501    0  0.00000000000E+00 -0.00000000000E+00 -0.25597032494E+04  0.25597032494E+04  0.00000000000E+00 0. -1.
         24    2    1    2    0    0 -0.10330160539E+04  0.14618144323E+04 -0.38630441914E+03  0.18332332484E+04  0.86541531507E+02 0.  0.
        254    2    1    2    0    0  0.10330160539E+04 -0.14618144323E+04 -0.75673285228E+03  0.21431359791E+04  0.90352842411E+03 0.  0.
         23    2    4    4    0    0 -0.11628546173E+03 -0.54023570500E+02  0.31428153290E+02  0.16018436657E+03  0.90721814881E+02 0.  0.
         23    2    4    4    0    0  0.11493015156E+04 -0.14077908618E+04 -0.78816100557E+03  0.19829516125E+04  0.90167858001E+02 0.  0.
          2    1    3    3  502    0 -0.59744000756E+03  0.78088478075E+03 -0.18989483961E+03  0.10013868651E+04  0.00000000000E+00 0. -1.
         -1    1    3    3    0  502 -0.43557604632E+03  0.68092965152E+03 -0.19640957952E+03  0.83184638328E+03  0.00000000000E+00 0.  1.
         11    1    5    5    0    0 -0.68822326451E+02 -0.30275285317E+02 -0.28251358259E+02  0.80319641201E+02  0.00000000000E+00 0. -1.
        -11    1    5    5    0    0 -0.47463135277E+02 -0.23748285183E+02  0.59679511550E+02  0.79864725369E+02  0.00000000000E+00 0.  1.
          4    1    6    6  503    0  0.93752481509E+03 -0.10904027799E+04 -0.62169890691E+03  0.15666654181E+04  0.00000000000E+00 0. -1.
         -4    1    6    6    0  503  0.21177670052E+03 -0.31738808189E+03 -0.16646209866E+03  0.41628619446E+03  0.00000000000E+00 0.  1.
<mgrwt>
<rscale>  0 0.38085401E+04</rscale>
<asrwt>0</asrwt>
<pdfrwt beam="1">  1        2 0.39380050E+00 0.38085401E+04</pdfrwt>
<pdfrwt beam="2">  1       -1 0.21794861E+00 0.38085401E+04</pdfrwt>
<totfact> 0.33233448E-01</totfact>
</mgrwt>
</event>
<event>
12    6  0.1395358E-007  0.1943872E+04  0.7818608E-02  0.8633321E-01
          2   -1    0    0  501    0  0.00000000000E+00  0.00000000000E+00  0.96296062205E+03  0.96296062205E+03  0.00000000000E+00 0. -1.
         -1   -1    0    0    0  501 -0.00000000000E+00 -0.00000000000E+00 -0.98099528976E+03  0.98099528976E+03  0.00000000000E+00 0.  1.
         24    2    1    2    0    0  0.34723879458E+03  0.28617147333E+03  0.60638247265E+03  0.75939166831E+03  0.80666660735E+02 0.  0.
        254    2    1    2    0    0 -0.34723879458E+03 -0.28617147333E+03 -0.62441714036E+03  0.11845642435E+04  0.90045921018E+03 0.  0.
         23    2    4    4    0    0  0.12430507595E+03 -0.42218332822E+03 -0.49417356063E+03  0.66808138708E+03  0.91840716538E+02 0.  0.
         23    2    4    4    0    0 -0.47154387052E+03  0.13601185489E+03 -0.13024357973E+03  0.51648285642E+03  0.94542606318E+02 0.  0.
          4    1    3    3  502    0  0.30353326283E+03  0.24970086228E+03  0.56802842134E+03  0.69075266899E+03  0.00000000000E+00 0. -1.
         -3    1    3    3    0  502  0.43705531750E+02  0.36470611048E+02  0.38354051311E+02  0.68638999320E+02  0.00000000000E+00 0.  1.
         11    1    5    5    0    0  0.79082449648E+02 -0.36748293307E+03 -0.44058930822E+03  0.57915168864E+03  0.00000000000E+00 0.  1.
        -11    1    5    5    0    0  0.45222626300E+02 -0.54700395148E+02 -0.53584252404E+02  0.88929698440E+02  0.00000000000E+00 0. -1.
          3    1    6    6  503    0 -0.15439751496E+03  0.15636073764E+02 -0.62633163819E+01  0.15531358138E+03  0.00000000000E+00 0. -1.
         -3    1    6    6    0  503 -0.31714635556E+03  0.12037578113E+03 -0.12398026335E+03  0.36116927504E+03  0.00000000000E+00 0.  1.
<mgrwt>
<rscale>  0 0.19438723E+04</rscale>
<asrwt>0</asrwt>
<pdfrwt beam="1">  1        2 0.14814779E+00 0.19438723E+04</pdfrwt>
<pdfrwt beam="2">  1       -1 0.15092235E+00 0.19438723E+04</pdfrwt>
<totfact> 0.97278882E+00</totfact>
</mgrwt>
</event>
<event>
12    6  0.1395358E-007  0.1505454E+04  0.7818608E-02  0.8880834E-01
         -1   -1    0    0    0  501 -0.00000000000E+00  0.00000000000E+00  0.29030874811E+03  0.29030874811E+03  0.00000000000E+00 0.  1.
          2   -1    0    0  501    0  0.00000000000E+00 -0.00000000000E+00 -0.19517083531E+04  0.19517083531E+04  0.00000000000E+00 0. -1.
         24    2    1    2    0    0  0.49147556648E+02 -0.44865458358E+03 -0.78051397968E+03  0.90519524221E+03  0.80435914583E+02 0.  0.
        254    2    1    2    0    0 -0.49147556648E+02  0.44865458358E+03 -0.88088562536E+03  0.13368218590E+04  0.89856929625E+03 0.  0.
         23    2    4    4    0    0 -0.15086013219E+03  0.13221303695E+03  0.13923034256E+03  0.26025044061E+03  0.90034087553E+02 0.  0.
         23    2    4    4    0    0  0.10171257555E+03  0.31644154663E+03 -0.10201159679E+04  0.10765714184E+04  0.88818525793E+02 0.  0.
          2    1    3    3  502    0  0.15952064536E+02 -0.10028004818E+03 -0.24802041084E+03  0.26800126981E+03  0.00000000000E+00 0. -1.
         -1    1    3    3    0  502  0.33195492112E+02 -0.34837453539E+03 -0.53249356885E+03  0.63719397241E+03  0.00000000000E+00 0.  1.
         11    1    5    5    0    0 -0.15664030607E+03  0.13880293178E+03  0.12572564424E+03  0.24415031636E+03  0.00000000000E+00 0. -1.
        -11    1    5    5    0    0  0.57801738812E+01 -0.65898948329E+01  0.13504698326E+02  0.16100124250E+02  0.00000000000E+00 0.  1.
          1    1    6    6  503    0  0.11341386850E+03  0.25051489249E+03 -0.76929427073E+03  0.81696639582E+03  0.00000000000E+00 0. -1.
         -1    1    6    6    0  503 -0.11701292952E+02  0.65926654138E+02 -0.25082169719E+03  0.25960502261E+03  0.00000000000E+00 0.  1.
<mgrwt>
<rscale>  0 0.15054541E+04</rscale>
<asrwt>0</asrwt>
<pdfrwt beam="1">  1        2 0.30026281E+00 0.15054541E+04</pdfrwt>
<pdfrwt beam="2">  1       -1 0.44662886E-01 0.15054541E+04</pdfrwt>
<totfact> 0.38846185E+01</totfact>
</mgrwt>
</event>
<event>
12    6  0.1395358E-007  0.1113658E+04  0.7818608E-02  0.9191981E-01
         -1   -1    0    0    0  501 -0.00000000000E+00  0.00000000000E+00  0.16146709301E+03  0.16146709301E+03  0.00000000000E+00 0.  1.
          2   -1    0    0  501    0  0.00000000000E+00 -0.00000000000E+00 -0.19202587410E+04  0.19202587410E+04  0.00000000000E+00 0. -1.
         24    2    1    2    0    0  0.14899883021E+03 -0.30602931602E+01 -0.13074346031E+03  0.21548488797E+03  0.84438544098E+02 0.  0.
        254    2    1    2    0    0 -0.14899883021E+03  0.30602931602E+01 -0.16280481876E+04  0.18662409460E+04  0.90005797062E+03 0.  0.
         23    2    4    4    0    0 -0.66693257872E+02  0.43012830489E+03 -0.10196455254E+04  0.11130142140E+04  0.98312225583E+02 0.  0.
         23    2    4    4    0    0 -0.82305572341E+02 -0.42706801173E+03 -0.60840266220E+03  0.75322673201E+03  0.89640485037E+02 0.  0.
          4    1    3    3  502    0  0.21626381207E+02 -0.22968689635E+02 -0.61566160735E+02  0.69178415820E+02  0.00000000000E+00 0. -1.
         -3    1    3    3    0  502  0.12737244901E+03  0.19908396475E+02 -0.69177299578E+02  0.14630647215E+03  0.00000000000E+00 0.  1.
         11    1    5    5    0    0  0.94545086416E+01  0.14888277111E+03 -0.43332183789E+03  0.45828297203E+03  0.00000000000E+00 0. -1.
        -11    1    5    5    0    0 -0.76147766514E+02  0.28124553379E+03 -0.58632368754E+03  0.65473124195E+03  0.00000000000E+00 0.  1.
          1    1    6    6  503    0  0.98697510979E+01 -0.14964165898E+02 -0.50075746280E+02  0.53187579502E+02  0.00000000000E+00 0. -1.
         -1    1    6    6    0  503 -0.92175323439E+02 -0.41210384583E+03 -0.55832691592E+03  0.70003915251E+03  0.00000000000E+00 0.  1.
<mgrwt>
<rscale>  0 0.11136581E+04</rscale>
<asrwt>0</asrwt>
<pdfrwt beam="1">  1        2 0.29542441E+00 0.11136581E+04</pdfrwt>
<pdfrwt beam="2">  1       -1 0.24841092E-01 0.11136581E+04</pdfrwt>
<totfact> 0.11858249E+02</totfact>
</mgrwt>
</event>
<event>
12    6  0.1395358E-007  0.1621909E+04  0.7818608E-02  0.8807200E-01
         -1   -1    0    0    0  501 -0.00000000000E+00  0.00000000000E+00  0.34579660305E+03  0.34579660305E+03  0.00000000000E+00 0.  1.
          2   -1    0    0  501    0  0.00000000000E+00 -0.00000000000E+00 -0.19018333905E+04  0.19018333905E+04  0.00000000000E+00 0. -1.
         24    2    1    2    0    0  0.44519490656E+03 -0.14422235702E+02 -0.76847672498E+02  0.45909035218E+03  0.80323601695E+02 0.  0.
        254    2    1    2    0    0 -0.44519490656E+03  0.14422235702E+02 -0.14791891149E+04  0.17885396413E+04  0.90136957196E+03 0.  0.
         23    2    4    4    0    0  0.24615942703E+03  0.55736538450E+02 -0.65610929285E+03  0.70893890037E+03  0.91727504445E+02 0.  0.
         23    2    4    4    0    0 -0.69135433358E+03 -0.41314302748E+02 -0.82307982207E+03  0.10796007410E+04  0.91649769361E+02 0.  0.
          4    1    3    3  502    0  0.22369389429E+03 -0.33710086703E+02 -0.69403162640E+02  0.23662655657E+03  0.00000000000E+00 0. -1.
         -3    1    3    3    0  502  0.22150101227E+03  0.19287851001E+02 -0.74445098583E+01  0.22246379561E+03  0.00000000000E+00 0.  1.
         11    1    5    5    0    0 -0.32390617298E+01  0.50845859018E+00  0.13914105872E+01  0.35617515985E+01  0.00000000000E+00 0.  1.
        -11    1    5    5    0    0  0.24939848875E+03  0.55228079860E+02 -0.65750070343E+03  0.70537714878E+03  0.00000000000E+00 0. -1.
          3    1    6    6  503    0 -0.47289169926E+03 -0.59939782132E+02 -0.60662800759E+03  0.77150299825E+03  0.00000000000E+00 0. -1.
         -3    1    6    6    0  503 -0.21846263433E+03  0.18625479384E+02 -0.21645181447E+03  0.30809774272E+03  0.00000000000E+00 0.  1.
<mgrwt>
<rscale>  0 0.16219094E+04</rscale>
<asrwt>0</asrwt>
<pdfrwt beam="1">  1        2 0.29258975E+00 0.16219094E+04</pdfrwt>
<pdfrwt beam="2">  1       -1 0.53199478E-01 0.16219094E+04</pdfrwt>
<totfact> 0.29440392E+01</totfact>
</mgrwt>
</event>
<event>
12    6  0.1395358E-007  0.3261311E+04  0.7818608E-02  0.8172810E-01
          2   -1    0    0  501    0  0.00000000000E+00  0.00000000000E+00  0.23979042861E+04  0.23979042861E+04  0.00000000000E+00 0. -1.
         -1   -1    0    0    0  501 -0.00000000000E+00 -0.00000000000E+00 -0.11089004713E+04  0.11089004713E+04  0.00000000000E+00 0.  1.
         24    2    1    2    0    0 -0.11250565145E+04 -0.77693103752E+03  0.12728185447E+04  0.18702009992E+04  0.90613088444E+02 0.  0.
        254    2    1    2    0    0  0.11250565145E+04  0.77693103752E+03  0.16185270009E+02  0.16366037582E+04  0.89935304564E+03 0.  0.
         23    2    4    4    0    0  0.10070672811E+03 -0.10355353438E+03  0.20894609755E+03  0.26979951503E+03  0.90929242076E+02 0.  0.
         23    2    4    4    0    0  0.10243497864E+04  0.88048457190E+03 -0.19276082754E+03  0.13668042432E+04  0.80321456912E+02 0.  0.
          2    1    3    3  502    0 -0.10135511518E+04 -0.71339163677E+03  0.11843762071E+04  0.17143396876E+04  0.00000000000E+00 0. -1.
         -1    1    3    3    0  502 -0.11150536271E+03 -0.63539400757E+02  0.88442337678E+02  0.15586131161E+03  0.00000000000E+00 0.  1.
         11    1    5    5    0    0  0.26420840385E+02 -0.69514599327E+02  0.45811859610E+02  0.87344529349E+02  0.00000000000E+00 0. -1.
        -11    1    5    5    0    0  0.74285887722E+02 -0.34038935048E+02  0.16313423794E+03  0.18245498569E+03  0.00000000000E+00 0.  1.
          4    1    6    6  503    0  0.58093066834E+03  0.53708713405E+03 -0.85170084533E+02  0.79573674936E+03  0.00000000000E+00 0. -1.
         -4    1    6    6    0  503  0.44341911802E+03  0.34339743784E+03 -0.10759074301E+03  0.57106749384E+03  0.00000000000E+00 0.  1.
<mgrwt>
<rscale>  0 0.32613109E+04</rscale>
<asrwt>0</asrwt>
<pdfrwt beam="1">  1        2 0.36890835E+00 0.32613109E+04</pdfrwt>
<pdfrwt beam="2">  1       -1 0.17060007E+00 0.32613109E+04</pdfrwt>
<totfact> 0.92459111E-01</totfact>
</mgrwt>
</event>
<event>
12    6  0.1395358E-007  0.2334882E+04  0.7818608E-02  0.8464293E-01
         -1   -1    0    0    0  501 -0.00000000000E+00  0.00000000000E+00  0.62219346849E+03  0.62219346849E+03  0.00000000000E+00 0.  1.
          2   -1    0    0  501    0  0.00000000000E+00 -0.00000000000E+00 -0.21905066720E+04  0.21905066720E+04  0.00000000000E+00 0. -1.
         24    2    1    2    0    0 -0.98912947166E+03  0.75949223817E+02 -0.65327501685E+03  0.11905696691E+04  0.80885679150E+02 0.  0.
        254    2    1    2    0    0  0.98912947166E+03 -0.75949223817E+02 -0.91503818665E+03  0.16221304713E+04  0.89992610071E+03 0.  0.
         23    2    4    4    0    0 -0.18650585207E+02 -0.17384041958E+03  0.68010284539E+02  0.20798976075E+03  0.89810945683E+02 0.  0.
         23    2    4    4    0    0  0.10077800569E+04  0.97891195767E+02 -0.98304847119E+03  0.14141407106E+04  0.90588760008E+02 0.  0.
          4    1    3    3  502    0 -0.69436163532E+03  0.33819250614E+02 -0.49450568429E+03  0.85312232071E+03  0.00000000000E+00 0. -1.
         -3    1    3    3    0  502 -0.29476783634E+03  0.42129973203E+02 -0.15876933256E+03  0.33744734841E+03  0.00000000000E+00 0.  1.
         11    1    5    5    0    0  0.33378422351E+02 -0.47786509328E+02  0.73989078708E+01  0.58757241172E+02  0.00000000000E+00 0. -1.
        -11    1    5    5    0    0 -0.52029007559E+02 -0.12605391026E+03  0.60611376668E+02  0.14923251958E+03  0.00000000000E+00 0.  1.
          3    1    6    6  503    0  0.18580841570E+03  0.52320351746E+02 -0.17343712482E+03  0.25950457186E+03  0.00000000000E+00 0. -1.
         -3    1    6    6    0  503  0.82197164116E+03  0.45570844021E+02 -0.80961134637E+03  0.11546361387E+04  0.00000000000E+00 0.  1.
<mgrwt>
<rscale>  0 0.23348824E+04</rscale>
<asrwt>0</asrwt>
<pdfrwt beam="1">  1        2 0.33700102E+00 0.23348824E+04</pdfrwt>
<pdfrwt beam="2">  1       -1 0.95722073E-01 0.23348824E+04</pdfrwt>
<totfact> 0.56600774E+00</totfact>
</mgrwt>
</event>
<event>
12    6  0.1395358E-007  0.2250965E+04  0.7818608E-02  0.8497510E-01
          2   -1    0    0  501    0  0.00000000000E+00  0.00000000000E+00  0.16093735574E+04  0.16093735574E+04  0.00000000000E+00 0. -1.
         -1   -1    0    0    0  501 -0.00000000000E+00 -0.00000000000E+00 -0.78708312238E+03  0.78708312238E+03  0.00000000000E+00 0.  1.
         24    2    1    2    0    0  0.12398353630E+03 -0.67144770687E+03 -0.34589588572E+03  0.76958581876E+03  0.80027672282E+02 0.  0.
        254    2    1    2    0    0 -0.12398353630E+03  0.67144770687E+03  0.11681863207E+04  0.16268708610E+04  0.90323616962E+03 0.  0.
         23    2    4    4    0    0  0.27610215987E+03  0.27313357653E+03  0.91991756982E+03  0.10028837715E+04  0.93237173625E+02 0.  0.
         23    2    4    4    0    0 -0.40008569617E+03  0.39831413034E+03  0.24826875091E+03  0.62398708951E+03  0.94867299376E+02 0.  0.
          2    1    3    3  502    0  0.94162425434E+02 -0.60072031849E+03 -0.32754990749E+03  0.69066663834E+03  0.00000000000E+00 0. -1.
         -1    1    3    3    0  502  0.29821110870E+02 -0.70727388384E+02 -0.18345978227E+02  0.78919180421E+02  0.00000000000E+00 0.  1.
         11    1    5    5    0    0  0.11294161912E+03  0.15610153675E+03  0.53689885556E+03  0.57042429840E+03  0.00000000000E+00 0. -1.
        -11    1    5    5    0    0  0.16316054075E+03  0.11703203978E+03  0.38301871427E+03  0.43245947310E+03  0.00000000000E+00 0.  1.
          1    1    6    6  503    0 -0.95686054256E+02  0.57671386789E+02  0.20748951144E+02  0.11363242850E+03  0.00000000000E+00 0. -1.
         -1    1    6    6    0  503 -0.30439964192E+03  0.34064274355E+03  0.22751979976E+03  0.51035466101E+03  0.00000000000E+00 0.  1.
<mgrwt>
<rscale>  0 0.22509649E+04</rscale>
<asrwt>0</asrwt>
<pdfrwt beam="1">  1        2 0.24759593E+00 0.22509649E+04</pdfrwt>
<pdfrwt beam="2">  1       -1 0.12108971E+00 0.22509649E+04</pdfrwt>
<totfact> 0.69159971E+00</totfact>
</mgrwt>
</event>
<event>
12    6  0.1395358E-007  0.3241724E+04  0.7818608E-02  0.8177884E-01
          2   -1    0    0  501    0  0.00000000000E+00  0.00000000000E+00  0.18603713119E+04  0.18603713119E+04  0.00000000000E+00 0. -1.
         -1   -1    0    0    0  501 -0.00000000000E+00 -0.00000000000E+00 -0.14121876478E+04  0.14121876478E+04  0.00000000000E+00 0.  1.
         24    2    1    2    0    0 -0.13977327113E+04 -0.36224900733E+03 -0.18387804084E+03  0.14576257434E+04  0.77334327982E+02 0.  0.
        254    2    1    2    0    0  0.13977327113E+04  0.36224900733E+03  0.63206170497E+03  0.18149332163E+04  0.89977747535E+03 0.  0.
         23    2    4    4    0    0  0.11244295530E+04  0.62663484583E+03  0.36443543871E+03  0.13415542670E+04  0.99707636641E+02 0.  0.
         23    2    4    4    0    0  0.27330315839E+03 -0.26438583850E+03  0.26762626627E+03  0.47337894930E+03  0.88709206204E+02 0.  0.
          4    1    3    3  502    0 -0.50026353444E+03 -0.96734242554E+02 -0.45994227014E+02  0.51160198054E+03  0.00000000000E+00 0. -1.
         -3    1    3    3    0  502 -0.89746917690E+03 -0.26551476478E+03 -0.13788381383E+03  0.94602376287E+03  0.00000000000E+00 0.  1.
         11    1    5    5    0    0  0.87137339050E+03  0.53150108647E+03  0.28204472158E+03  0.10589306944E+04  0.00000000000E+00 0. -1.
        -11    1    5    5    0    0  0.25305616245E+03  0.95133759361E+02  0.82390717128E+02  0.28262357261E+03  0.00000000000E+00 0.  1.
          4    1    6    6  503    0  0.63176806643E+02 -0.10549293833E+03  0.54395177535E+02  0.13445781597E+03  0.00000000000E+00 0. -1.
         -4    1    6    6    0  503  0.21012635175E+03 -0.15889290017E+03  0.21323108873E+03  0.33892113334E+03  0.00000000000E+00 0.  1.
<mgrwt>
<rscale>  0 0.32417239E+04</rscale>
<asrwt>0</asrwt>
<pdfrwt beam="1">  1        2 0.28621097E+00 0.32417239E+04</pdfrwt>
<pdfrwt beam="2">  1       -1 0.21725964E+00 0.32417239E+04</pdfrwt>
<totfact> 0.87570103E-01</totfact>
</mgrwt>
</event>
<event>
12    6  0.1395358E-007  0.1712138E+04  0.7818608E-02  0.8754472E-01
          2   -1    0    0  501    0  0.00000000000E+00  0.00000000000E+00  0.55562706388E+03  0.55562706388E+03  0.00000000000E+00 0. -1.
         -1   -1    0    0    0  501 -0.00000000000E+00 -0.00000000000E+00 -0.13189681136E+04  0.13189681136E+04  0.00000000000E+00 0.  1.
         24    2    1    2    0    0  0.51086945212E+03  0.33238330732E+03 -0.17411681230E+03  0.63870285597E+03  0.78475561856E+02 0.  0.
        254    2    1    2    0    0 -0.51086945212E+03 -0.33238330732E+03 -0.58922423742E+03  0.12358923215E+04  0.89932105964E+03 0.  0.
         23    2    4    4    0    0 -0.84446513265E+02 -0.13629921847E+03  0.22558207262E+03  0.29125400082E+03  0.90735499928E+02 0.  0.
         23    2    4    4    0    0 -0.42642293885E+03 -0.19608408884E+03 -0.81480631004E+03  0.94463832069E+03  0.90259300686E+02 0.  0.
          4    1    3    3  502    0  0.36098853763E+03  0.20224841527E+03 -0.14293557436E+03  0.43777588353E+03  0.00000000000E+00 0. -1.
         -3    1    3    3    0  502  0.14988091448E+03  0.13013489204E+03 -0.31181237935E+02  0.20092697244E+03  0.00000000000E+00 0.  1.
         11    1    5    5    0    0 -0.18497072048E+02 -0.96782018976E+02  0.16961323109E+03  0.19615695000E+03  0.00000000000E+00 0.  1.
        -11    1    5    5    0    0 -0.65949441218E+02 -0.39517199498E+02  0.55968841529E+02  0.95097050823E+02  0.00000000000E+00 0. -1.
          4    1    6    6  503    0 -0.20597412749E+03 -0.45507213649E+02 -0.36557219280E+03  0.42206548761E+03  0.00000000000E+00 0.  1.
         -4    1    6    6    0  503 -0.22044881137E+03 -0.15057687519E+03 -0.44923411724E+03  0.52257283308E+03  0.00000000000E+00 0. -1.
<mgrwt>
<rscale>  0 0.17121383E+04</rscale>
<asrwt>0</asrwt>
<pdfrwt beam="1">  1        2 0.85481088E-01 0.17121383E+04</pdfrwt>
<pdfrwt beam="2">  1       -1 0.20291817E+00 0.17121383E+04</pdfrwt>
<totfact> 0.84881501E+00</totfact>
</mgrwt>
</event>
<event>
12    6  0.1395358E-007  0.2609697E+04  0.7818608E-02  0.8364915E-01
         -1   -1    0    0    0  501 -0.00000000000E+00  0.00000000000E+00  0.19614338910E+04  0.19614338910E+04  0.00000000000E+00 0.  1.
          2   -1    0    0  501    0  0.00000000000E+00 -0.00000000000E+00 -0.86805355952E+03  0.86805355952E+03  0.00000000000E+00 0. -1.
         24    2    1    2    0    0  0.74745730343E+02  0.87831311244E+03  0.12870086920E+04  0.15620250583E+04  0.80684954554E+02 0.  0.
        254    2    1    2    0    0 -0.74745730343E+02 -0.87831311244E+03 -0.19362836049E+03  0.12674623922E+04  0.88991467343E+03 0.  0.
         23    2    4    4    0    0  0.17221215904E+03 -0.51013044833E+03  0.27919090873E+03  0.61329031064E+03  0.91034826142E+02 0.  0.
         23    2    4    4    0    0 -0.24695788939E+03 -0.36818266411E+03 -0.47281926922E+03  0.65417208157E+03  0.88523317093E+02 0.  0.
          4    1    3    3  502    0  0.26151410252E+02  0.34453786543E+03  0.43632122825E+03  0.55656666375E+03  0.00000000000E+00 0. -1.
         -3    1    3    3    0  502  0.48594320090E+02  0.53377524701E+03  0.85068746371E+03  0.10054583946E+04  0.00000000000E+00 0.  1.
         11    1    5    5    0    0  0.16681937727E+03 -0.38801184846E+03  0.19735367894E+03  0.46618705877E+03  0.00000000000E+00 0. -1.
        -11    1    5    5    0    0  0.53927817755E+01 -0.12211859987E+03  0.81837229793E+02  0.14710325187E+03  0.00000000000E+00 0.  1.
          4    1    6    6  503    0 -0.12598001149E+03 -0.25478729034E+03 -0.26808273525E+03  0.39071201613E+03  0.00000000000E+00 0.  1.
         -4    1    6    6    0  503 -0.12097787789E+03 -0.11339537377E+03 -0.20473653398E+03  0.26346006543E+03  0.00000000000E+00 0. -1.
<mgrwt>
<rscale>  0 0.26096970E+04</rscale>
<asrwt>0</asrwt>
<pdfrwt beam="1">  1        2 0.13354670E+00 0.26096970E+04</pdfrwt>
<pdfrwt beam="2">  1       -1 0.30175906E+00 0.26096970E+04</pdfrwt>
<totfact> 0.99971916E-01</totfact>
</mgrwt>
</event>
<event>
12    6  0.1395358E-007  0.1845854E+04  0.7818608E-02  0.8682288E-01
         -1   -1    0    0    0  501 -0.00000000000E+00  0.00000000000E+00  0.85478341230E+03  0.85478341230E+03  0.00000000000E+00 0.  1.
          2   -1    0    0  501    0  0.00000000000E+00 -0.00000000000E+00 -0.99650330150E+03  0.99650330150E+03  0.00000000000E+00 0. -1.
         24    2    1    2    0    0 -0.48640579806E+03 -0.48308867999E+03 -0.96340278002E+02  0.69706076834E+03  0.81529089743E+02 0.  0.
        254    2    1    2    0    0  0.48640579806E+03  0.48308867999E+03 -0.45379611200E+02  0.11542259455E+04  0.92747665790E+03 0.  0.
         23    2    4    4    0    0 -0.88535340538E+02  0.53262301798E+03 -0.13616749648E+03  0.56308634945E+03  0.83659213694E+02 0.  0.
         23    2    4    4    0    0  0.57494113859E+03 -0.49534337994E+02  0.90787885279E+02  0.59113959601E+03  0.90513083958E+02 0.  0.
          4    1    3    3  502    0 -0.24583320097E+03 -0.25555737532E+03 -0.90113886702E+02  0.36587436007E+03  0.00000000000E+00 0. -1.
         -3    1    3    3    0  502 -0.24057259709E+03 -0.22753130466E+03 -0.62263913004E+01  0.33118640827E+03  0.00000000000E+00 0.  1.
         11    1    5    5    0    0 -0.76278012284E+01  0.48772876054E+02  0.11669666070E+02  0.50726303792E+02  0.00000000000E+00 0.  1.
        -11    1    5    5    0    0 -0.80907539309E+02  0.48385014193E+03 -0.14783716255E+03  0.51236004566E+03  0.00000000000E+00 0. -1.
          1    1    6    6  503    0  0.35319187885E+03 -0.37639210705E+02  0.99615056532E+02  0.36889615471E+03  0.00000000000E+00 0. -1.
         -1    1    6    6    0  503  0.22174925974E+03 -0.11895127289E+02 -0.88271712537E+01  0.22224344130E+03  0.00000000000E+00 0.  1.
<mgrwt>
<rscale>  0 0.18458543E+04</rscale>
<asrwt>0</asrwt>
<pdfrwt beam="1">  1        2 0.15330820E+00 0.18458543E+04</pdfrwt>
<pdfrwt beam="2">  1       -1 0.13150514E+00 0.18458543E+04</pdfrwt>
<totfact> 0.13384290E+01</totfact>
</mgrwt>
</event>
<event>
12    6  0.1395358E-007  0.3063701E+04  0.7818608E-02  0.8225771E-01
          2   -1    0    0  501    0  0.00000000000E+00  0.00000000000E+00  0.14601919061E+04  0.14601919061E+04  0.00000000000E+00 0. -1.
         -3   -1    0    0    0  501 -0.00000000000E+00 -0.00000000000E+00 -0.16070257164E+04  0.16070257164E+04  0.00000000000E+00 0.  1.
         24    2    1    2    0    0 -0.11646337975E+04  0.34715180940E+03 -0.75730855293E+03  0.14338994642E+04  0.75267310511E+02 0.  0.
        254    2    1    2    0    0  0.11646337975E+04 -0.34715180940E+03  0.61047474258E+03  0.16333181583E+04  0.90452337389E+03 0.  0.
         23    2    4    4    0    0  0.66116039668E+03  0.25273430885E+03  0.18791471054E+03  0.73858059038E+03  0.95820921763E+02 0.  0.
         23    2    4    4    0    0  0.50347340084E+03 -0.59988611825E+03  0.42256003203E+03  0.89473756794E+03  0.93002766613E+02 0.  0.
          4    1    3    3  502    0 -0.74774825899E+03  0.18887514704E+03 -0.46107327694E+03  0.89854874475E+03  0.00000000000E+00 0. -1.
         -3    1    3    3    0  502 -0.41688553853E+03  0.15827666235E+03 -0.29623527599E+03  0.53535071945E+03  0.00000000000E+00 0.  1.
         11    1    5    5    0    0  0.95063723019E+02  0.66741199462E+02  0.52774539716E+02  0.12757997955E+03  0.00000000000E+00 0. -1.
        -11    1    5    5    0    0  0.56609667366E+03  0.18599310939E+03  0.13514017083E+03  0.61100061083E+03  0.00000000000E+00 0.  1.
          3    1    6    6  503    0  0.15357524085E+03 -0.12161994268E+03  0.11318010409E+03  0.22624433920E+03  0.00000000000E+00 0. -1.
         -3    1    6    6    0  503  0.34989815999E+03 -0.47826617557E+03  0.30937992794E+03  0.66849322874E+03  0.00000000000E+00 0.  1.
<mgrwt>
<rscale>  0 0.30637010E+04</rscale>
<asrwt>0</asrwt>
<pdfrwt beam="1">  1        2 0.22464491E+00 0.30637010E+04</pdfrwt>
<pdfrwt beam="2">  1       -3 0.24723472E+00 0.30637010E+04</pdfrwt>
<totfact> 0.54368516E-01</totfact>
</mgrwt>
</event>
<event>
12    6  0.1395358E-007  0.1930654E+04  0.7818608E-02  0.8639747E-01
         -1   -1    0    0    0  501 -0.00000000000E+00  0.00000000000E+00  0.59231046343E+03  0.59231046343E+03  0.00000000000E+00 0.  1.
          2   -1    0    0  501    0  0.00000000000E+00 -0.00000000000E+00 -0.15732560644E+04  0.15732560644E+04  0.00000000000E+00 0. -1.
         24    2    1    2    0    0  0.79203457814E+02  0.69300563056E+03 -0.70436742896E+03  0.99456077373E+03  0.80546048593E+02 0.  0.
        254    2    1    2    0    0 -0.79203457814E+02 -0.69300563056E+03 -0.27657817198E+03  0.11710057541E+04  0.89901557225E+03 0.  0.
         23    2    4    4    0    0 -0.18948205979E+03 -0.87624582712E+03 -0.27745430258E+03  0.94284491489E+03  0.90914481713E+02 0.  0.
         23    2    4    4    0    0  0.11027860198E+03  0.18324019657E+03  0.87613059866E+00  0.22816083919E+03  0.79487491104E+02 0.  0.
          2    1    3    3  502    0  0.69504366567E+02  0.58805820344E+03 -0.63571234120E+03  0.86877700727E+03  0.00000000000E+00 0. -1.
         -1    1    3    3    0  502  0.96990912469E+01  0.10494742712E+03 -0.68655087767E+02  0.12578376646E+03  0.00000000000E+00 0.  1.
         11    1    5    5    0    0 -0.14252834214E+03 -0.49519402163E+03 -0.18890585877E+03  0.54883227934E+03  0.00000000000E+00 0. -1.
        -11    1    5    5    0    0 -0.46953717650E+02 -0.38105180549E+03 -0.88548443807E+02  0.39401263555E+03  0.00000000000E+00 0.  1.
          1    1    6    6  503    0  0.12102939021E+03  0.14750860329E+03 -0.83470182168E+00  0.19080775159E+03  0.00000000000E+00 0. -1.
         -1    1    6    6    0  503 -0.10750788230E+02  0.35731593279E+02  0.17108324203E+01  0.37353087601E+02  0.00000000000E+00 0.  1.
<mgrwt>
<rscale>  0 0.19306538E+04</rscale>
<asrwt>0</asrwt>
<pdfrwt beam="1">  1        2 0.24203940E+00 0.19306538E+04</pdfrwt>
<pdfrwt beam="2">  1       -1 0.91124686E-01 0.19306538E+04</pdfrwt>
<totfact> 0.14438656E+01</totfact>
</mgrwt>
</event>
<event>
12    6  0.1395358E-007  0.1433994E+04  0.7818608E-02  0.8929573E-01
          2   -1    0    0  501    0  0.00000000000E+00  0.00000000000E+00  0.18411584522E+04  0.18411584522E+04  0.00000000000E+00 0. -1.
         -1   -1    0    0    0  501 -0.00000000000E+00 -0.00000000000E+00 -0.27921788342E+03  0.27921788342E+03  0.00000000000E+00 0.  1.
         24    2    1    2    0    0 -0.36541333777E+03  0.17557057750E+03  0.26393502842E+03  0.49056195851E+03  0.81470244919E+02 0.  0.
        254    2    1    2    0    0  0.36541333777E+03 -0.17557057750E+03  0.12980055403E+04  0.16298143771E+04  0.89840112752E+03 0.  0.
         23    2    4    4    0    0  0.24914326690E+03  0.13449078048E+03  0.10514743278E+02  0.29755943012E+03  0.90944582843E+02 0.  0.
         23    2    4    4    0    0  0.11627007086E+03 -0.31006135798E+03  0.12874907970E+04  0.13322549470E+04  0.87257756934E+02 0.  0.
          2    1    3    3  502    0 -0.17971912257E+03  0.10538156212E+03  0.17886765509E+03  0.27458673437E+03  0.00000000000E+00 0. -1.
         -1    1    3    3    0  502 -0.18569421520E+03  0.70189015374E+02  0.85067373329E+02  0.21597522414E+03  0.00000000000E+00 0.  1.
         11    1    5    5    0    0  0.15589572019E+03  0.61624321080E+02 -0.34137859841E+02  0.17107432887E+03  0.00000000000E+00 0. -1.
        -11    1    5    5    0    0  0.93247546713E+02  0.72866459400E+02  0.44652603119E+02  0.12648510125E+03  0.00000000000E+00 0.  1.
          2    1    6    6  503    0  0.93558727840E+02 -0.15130205337E+03  0.77990338535E+03  0.79993427067E+03  0.00000000000E+00 0. -1.
         -2    1    6    6    0  503  0.22711343024E+02 -0.15875930460E+03  0.50758741170E+03  0.53232067630E+03  0.00000000000E+00 0.  1.
<mgrwt>
<rscale>  0 0.14339935E+04</rscale>
<asrwt>0</asrwt>
<pdfrwt beam="1">  1        2 0.28325514E+00 0.14339935E+04</pdfrwt>
<pdfrwt beam="2">  1       -1 0.42956599E-01 0.14339935E+04</pdfrwt>
<totfact> 0.48361230E+01</totfact>
</mgrwt>
</event>
<event>
12    6  0.1395358E-007  0.2095350E+04  0.7818608E-02  0.8563295E-01
          2   -1    0    0  501    0  0.00000000000E+00  0.00000000000E+00  0.13826192349E+04  0.13826192349E+04  0.00000000000E+00 0. -1.
         -1   -1    0    0    0  501 -0.00000000000E+00 -0.00000000000E+00 -0.79387203162E+03  0.79387203162E+03  0.00000000000E+00 0.  1.
         24    2    1    2    0    0  0.42656773284E+03 -0.73322485049E+03  0.25698075984E+03  0.88992032157E+03  0.79626350807E+02 0.  0.
        254    2    1    2    0    0 -0.42656773284E+03  0.73322485049E+03  0.33176644341E+03  0.12865709449E+04  0.90863475129E+03 0.  0.
         23    2    4    4    0    0  0.20761063904E+03  0.17075340504E+03 -0.13548487308E+03  0.31429639361E+03  0.90372393057E+02 0.  0.
         23    2    4    4    0    0 -0.63417837188E+03  0.56247144545E+03  0.46725131650E+03  0.97227455130E+03  0.91856823563E+02 0.  0.
          2    1    3    3  502    0  0.32227428531E+03 -0.48934095815E+03  0.15861592684E+03  0.60702084029E+03  0.00000000000E+00 0. -1.
         -1    1    3    3    0  502  0.10429344753E+03 -0.24388389233E+03  0.98364832994E+02  0.28289948128E+03  0.00000000000E+00 0.  1.
         11    1    5    5    0    0  0.18748502142E+03  0.10700606204E+03 -0.92743678375E+02  0.23495174068E+03  0.00000000000E+00 0. -1.
        -11    1    5    5    0    0  0.20125617625E+02  0.63747342995E+02 -0.42741194706E+02  0.79344652930E+02  0.00000000000E+00 0.  1.
          1    1    6    6  503    0 -0.51830245508E+03  0.41125185792E+03  0.34891359669E+03  0.74800148632E+03  0.00000000000E+00 0. -1.
         -1    1    6    6    0  503 -0.11587591680E+03  0.15121958752E+03  0.11833771981E+03  0.22427306498E+03  0.00000000000E+00 0.  1.
<mgrwt>
<rscale>  0 0.20953498E+04</rscale>
<asrwt>0</asrwt>
<pdfrwt beam="1">  1        2 0.21271065E+00 0.20953498E+04</pdfrwt>
<pdfrwt beam="2">  1       -1 0.12213416E+00 0.20953498E+04</pdfrwt>
<totfact> 0.92218713E+00</totfact>
</mgrwt>
</event>
<event>
12    6  0.1395358E-007  0.2122273E+04  0.7818608E-02  0.8551495E-01
         -1   -1    0    0    0  501 -0.00000000000E+00  0.00000000000E+00  0.56751952889E+03  0.56751952889E+03  0.00000000000E+00 0.  1.
          2   -1    0    0  501    0  0.00000000000E+00 -0.00000000000E+00 -0.19840923936E+04  0.19840923936E+04  0.00000000000E+00 0. -1.
         24    2    1    2    0    0 -0.47516548727E+03 -0.56055346055E+03 -0.24258107767E+02  0.73950348616E+03  0.79211917142E+02 0.  0.
        254    2    1    2    0    0  0.47516548727E+03  0.56055346055E+03 -0.13923147569E+04  0.18121084363E+04  0.89732612810E+03 0.  0.
         23    2    4    4    0    0  0.80097247730E+02  0.68212642441E+03 -0.60890512826E+03  0.92237647946E+03  0.91109201888E+02 0.  0.
         23    2    4    4    0    0  0.39506823954E+03 -0.12157296386E+03 -0.78340962869E+03  0.88973195687E+03  0.83865423863E+02 0.  0.
          2    1    3    3  502    0 -0.22348084278E+03 -0.23955425812E+03 -0.46996884821E+02  0.33096621709E+03  0.00000000000E+00 0. -1.
         -1    1    3    3    0  502 -0.25168464449E+03 -0.32099920243E+03  0.22738777054E+02  0.40853726907E+03  0.00000000000E+00 0.  1.
         11    1    5    5    0    0  0.75171063929E+02  0.68354517430E+03 -0.60354774660E+03  0.91496151646E+03  0.00000000000E+00 0. -1.
        -11    1    5    5    0    0  0.49261838017E+01 -0.14187498961E+01 -0.53573816559E+01  0.74149630021E+01  0.00000000000E+00 0.  1.
          1    1    6    6  503    0  0.28508906235E+03 -0.57018184721E+02 -0.48918771686E+03  0.56906192034E+03  0.00000000000E+00 0. -1.
         -1    1    6    6    0  503  0.10997917719E+03 -0.64554779136E+02 -0.29422191183E+03  0.32067003653E+03  0.00000000000E+00 0.  1.
<mgrwt>
<rscale>  0 0.21222735E+04</rscale>
<asrwt>0</asrwt>
<pdfrwt beam="1">  1        2 0.30524498E+00 0.21222735E+04</pdfrwt>
<pdfrwt beam="2">  1       -1 0.87310699E-01 0.21222735E+04</pdfrwt>
<totfact> 0.92199735E+00</totfact>
</mgrwt>
</event>
<event>
12    6  0.1395358E-007  0.2011145E+04  0.7818608E-02  0.8601428E-01
          2   -1    0    0  501    0  0.00000000000E+00  0.00000000000E+00  0.32043558502E+04  0.32043558502E+04  0.00000000000E+00 0. -1.
         -1   -1    0    0    0  501 -0.00000000000E+00 -0.00000000000E+00 -0.31556296882E+03  0.31556296882E+03  0.00000000000E+00 0.  1.
         24    2    1    2    0    0 -0.53372856019E+03  0.52234445891E+03  0.64694692337E+03  0.99132807504E+03  0.80505409734E+02 0.  0.
        254    2    1    2    0    0  0.53372856019E+03 -0.52234445891E+03  0.22418459580E+04  0.25285907440E+04  0.90010440586E+03 0.  0.
         23    2    4    4    0    0  0.73379466122E+03 -0.57122270032E+03  0.16636082448E+04  0.19081416907E+04  0.93071702064E+02 0.  0.
         23    2    4    4    0    0 -0.20006610103E+03  0.48878241408E+02  0.57823771328E+03  0.62044905327E+03  0.90457986872E+02 0.  0.
          4    1    3    3  502    0 -0.27539494210E+03  0.29481468010E+03  0.39612603928E+03  0.56539712480E+03  0.00000000000E+00 0. -1.
         -3    1    3    3    0  502 -0.25833361809E+03  0.22752977880E+03  0.25082088410E+03  0.42593095024E+03  0.00000000000E+00 0.  1.
         11    1    5    5    0    0  0.63281914445E+03 -0.45503167361E+03  0.14236780422E+04  0.16230751866E+04  0.00000000000E+00 0.  1.
        -11    1    5    5    0    0  0.10097551677E+03 -0.11619102670E+03  0.23993020256E+03  0.28506650412E+03  0.00000000000E+00 0. -1.
          1    1    6    6  503    0 -0.13118604205E+03  0.73284154859E+02  0.42228718777E+03  0.44822629769E+03  0.00000000000E+00 0. -1.
         -1    1    6    6    0  503 -0.68880058986E+02 -0.24405913451E+02  0.15595052550E+03  0.17222275559E+03  0.00000000000E+00 0.  1.
<mgrwt>
<rscale>  0 0.20111450E+04</rscale>
<asrwt>0</asrwt>
<pdfrwt beam="1">  1        2 0.49297780E+00 0.20111450E+04</pdfrwt>
<pdfrwt beam="2">  1       -1 0.48548151E-01 0.20111450E+04</pdfrwt>
<totfact> 0.57979723E+00</totfact>
</mgrwt>
</event>
<event>
12    6  0.1395358E-007  0.2257376E+04  0.7818608E-02  0.8494919E-01
         -1   -1    0    0    0  501 -0.00000000000E+00  0.00000000000E+00  0.82561221607E+03  0.82561221607E+03  0.00000000000E+00 0.  1.
          2   -1    0    0  501    0  0.00000000000E+00 -0.00000000000E+00 -0.15430210603E+04  0.15430210603E+04  0.00000000000E+00 0. -1.
         24    2    1    2    0    0  0.78056667622E+03  0.16078762863E+03 -0.83236196943E+03  0.11550480782E+04  0.78566006274E+02 0.  0.
        254    2    1    2    0    0 -0.78056667622E+03 -0.16078762863E+03  0.11495312519E+03  0.12135851981E+04  0.90798558060E+03 0.  0.
         23    2    4    4    0    0 -0.66428116260E+03 -0.31116346763E+03 -0.26074713587E+03  0.78316949526E+03  0.85283192150E+02 0.  0.
         23    2    4    4    0    0 -0.11628551362E+03  0.15037583900E+03  0.37570026106E+03  0.43041570287E+03  0.89284811051E+02 0.  0.
          4    1    3    3  502    0  0.92159776312E+02 -0.39229099759E+01 -0.80704556179E+02  0.12256442788E+03  0.00000000000E+00 0. -1.
         -3    1    3    3    0  502  0.68840689991E+03  0.16471053861E+03 -0.75165741325E+03  0.10324836504E+04  0.00000000000E+00 0.  1.
         11    1    5    5    0    0 -0.51011390523E+03 -0.20571441996E+03 -0.17139747640E+03  0.57611779508E+03  0.00000000000E+00 0. -1.
        -11    1    5    5    0    0 -0.15416725737E+03 -0.10544904767E+03 -0.89349659469E+02  0.20705170018E+03  0.00000000000E+00 0.  1.
          2    1    6    6  503    0 -0.23378990862E+02  0.67298734142E+02  0.21839050049E+03  0.22971745153E+03  0.00000000000E+00 0. -1.
         -2    1    6    6    0  503 -0.92906522759E+02  0.83077104857E+02  0.15730976057E+03  0.20069825134E+03  0.00000000000E+00 0.  1.
<mgrwt>
<rscale>  0 0.22573764E+04</rscale>
<asrwt>0</asrwt>
<pdfrwt beam="1">  1        2 0.23738785E+00 0.22573764E+04</pdfrwt>
<pdfrwt beam="2">  1       -1 0.12701727E+00 0.22573764E+04</pdfrwt>
<totfact> 0.66887344E+00</totfact>
</mgrwt>
</event>
<event>
12    6  0.1395358E-007  0.1472561E+04  0.7818608E-02  0.8902907E-01
         -1   -1    0    0    0  501 -0.00000000000E+00  0.00000000000E+00  0.40378319709E+03  0.40378319709E+03  0.00000000000E+00 0.  1.
          2   -1    0    0  501    0  0.00000000000E+00 -0.00000000000E+00 -0.13425751618E+04  0.13425751618E+04  0.00000000000E+00 0. -1.
         24    2    1    2    0    0 -0.39674040232E+03  0.43375316220E+02 -0.55823131715E+03  0.69070289957E+03  0.78510681642E+02 0.  0.
        254    2    1    2    0    0  0.39674040232E+03 -0.43375316220E+02 -0.38056064758E+03  0.10556554593E+04  0.90016536117E+03 0.  0.
         23    2    4    4    0    0  0.65968221709E+03  0.73185340456E+02 -0.33417162186E+03  0.74853577801E+03  0.89991202285E+02 0.  0.
         23    2    4    4    0    0 -0.26294181478E+03 -0.11656065668E+03 -0.46389025716E+02  0.30711968133E+03  0.97189363166E+02 0.  0.
          2    1    3    3  502    0 -0.29687965361E+03  0.29962581079E+02 -0.47030141099E+03  0.55697280200E+03  0.00000000000E+00 0. -1.
         -1    1    3    3    0  502 -0.99860748714E+02  0.13412735141E+02 -0.87929906167E+02  0.13373009757E+03  0.00000000000E+00 0.  1.
         11    1    5    5    0    0  0.47471789272E+03  0.88396982936E+02 -0.21992921013E+03  0.53060339400E+03  0.00000000000E+00 0. -1.
        -11    1    5    5    0    0  0.18496432438E+03 -0.15211642480E+02 -0.11424241173E+03  0.21793238400E+03  0.00000000000E+00 0.  1.
          3    1    6    6  503    0 -0.23545707402E+03 -0.13054435166E+03 -0.55661385226E+02  0.27491826288E+03  0.00000000000E+00 0. -1.
         -3    1    6    6    0  503 -0.27484740751E+02  0.13983694985E+02  0.92723595100E+01  0.32201418454E+02  0.00000000000E+00 0.  1.
<mgrwt>
<rscale>  0 0.14725614E+04</rscale>
<asrwt>0</asrwt>
<pdfrwt beam="1">  1        2 0.20655003E+00 0.14725614E+04</pdfrwt>
<pdfrwt beam="2">  1       -1 0.62120491E-01 0.14725614E+04</pdfrwt>
<totfact> 0.45293197E+01</totfact>
</mgrwt>
</event>
<event>
12    6  0.1395358E-007  0.5445662E+04  0.7818608E-02  0.7763211E-01
         -1   -1    0    0    0  501 -0.00000000000E+00  0.00000000000E+00  0.29728786785E+04  0.29728786785E+04  0.00000000000E+00 0.  1.
          2   -1    0    0  501    0  0.00000000000E+00 -0.00000000000E+00 -0.24938146520E+04  0.24938146520E+04  0.00000000000E+00 0. -1.
         24    2    1    2    0    0 -0.16447114806E+04  0.18945969511E+04  0.10847463785E+04  0.27345988511E+04  0.82357206523E+02 0.  0.
        254    2    1    2    0    0  0.16447114806E+04 -0.18945969511E+04 -0.60568235197E+03  0.27320944794E+04  0.89605561834E+03 0.  0.
         23    2    4    4    0    0 -0.11814374152E+02 -0.39712647822E+03 -0.22243344078E+03  0.46453274593E+03  0.92005528790E+02 0.  0.
         23    2    4    4    0    0  0.16565258547E+04 -0.14974704729E+04 -0.38324891119E+03  0.22675617334E+04  0.91982402746E+02 0.  0.
          4    1    3    3  502    0 -0.96857897987E+03  0.11718107354E+04  0.67485257587E+03  0.16633435120E+04  0.00000000000E+00 0. -1.
         -3    1    3    3    0  502 -0.67613250070E+03  0.72278621570E+03  0.40989380263E+03  0.10712553391E+04  0.00000000000E+00 0.  1.
         11    1    5    5    0    0 -0.91462613005E+01 -0.39763511864E+03 -0.22791645370E+03  0.45841384309E+03  0.00000000000E+00 0. -1.
        -11    1    5    5    0    0 -0.26681128516E+01  0.50864042002E+00  0.54830129223E+01  0.61189028405E+01  0.00000000000E+00 0.  1.
          3    1    6    6  503    0  0.14112730596E+04 -0.13180856672E+04 -0.33372426063E+03  0.19596972615E+04  0.00000000000E+00 0. -1.
         -3    1    6    6    0  503  0.24525279509E+03 -0.17938480576E+03 -0.49524650558E+02  0.30786447189E+03  0.00000000000E+00 0.  1.
<mgrwt>
<rscale>  0 0.54456619E+04</rscale>
<asrwt>0</asrwt>
<pdfrwt beam="1">  1        2 0.38366379E+00 0.54456619E+04</pdfrwt>
<pdfrwt beam="2">  1       -1 0.45736595E+00 0.54456619E+04</pdfrwt>
<totfact> 0.81180347E-03</totfact>
</mgrwt>
</event>
<event>
12    6  0.1395358E-007  0.1149878E+04  0.7818608E-02  0.9157896E-01
          2   -1    0    0  501    0  0.00000000000E+00  0.00000000000E+00  0.17144115871E+04  0.17144115871E+04  0.00000000000E+00 0. -1.
         -1   -1    0    0    0  501 -0.00000000000E+00 -0.00000000000E+00 -0.19280938726E+03  0.19280938726E+03  0.00000000000E+00 0.  1.
         24    2    1    2    0    0 -0.44082683776E+02 -0.13382449612E+03  0.36206465618E+02  0.16557046320E+03  0.79059416656E+02 0.  0.
        254    2    1    2    0    0  0.44082683776E+02  0.13382449612E+03  0.14853957343E+04  0.17416505112E+04  0.89838395858E+03 0.  0.
         23    2    4    4    0    0 -0.26608531982E+03  0.10282317671E+03  0.95391999075E+02  0.31415211427E+03  0.90652712723E+02 0.  0.
         23    2    4    4    0    0  0.31016800359E+03  0.31001319412E+02  0.13900037352E+04  0.14274983969E+04  0.92065287396E+02 0.  0.
          4    1    3    3  502    0  0.17074382846E+02 -0.68382320552E+02  0.27200923716E+02  0.75548438532E+02  0.00000000000E+00 0. -1.
         -3    1    3    3    0  502 -0.61157066622E+02 -0.65442175567E+02  0.90055419021E+01  0.90022024670E+02  0.00000000000E+00 0.  1.
         11    1    5    5    0    0 -0.34680640375E+02 -0.15945032542E+02  0.36565599203E+01  0.38345290585E+02  0.00000000000E+00 0. -1.
        -11    1    5    5    0    0 -0.23140467944E+03  0.11876820925E+03  0.91735439155E+02  0.27580682369E+03  0.00000000000E+00 0.  1.
          3    1    6    6  503    0  0.40944882721E+02  0.37774832835E+02  0.23440856227E+03  0.24093732688E+03  0.00000000000E+00 0. -1.
         -3    1    6    6    0  503  0.26922312087E+03 -0.67735134233E+01  0.11555951729E+04  0.11865610701E+04  0.00000000000E+00 0.  1.
<mgrwt>
<rscale>  0 0.11498776E+04</rscale>
<asrwt>0</asrwt>
<pdfrwt beam="1">  1        2 0.26375562E+00 0.11498776E+04</pdfrwt>
<pdfrwt beam="2">  1       -1 0.29662984E-01 0.11498776E+04</pdfrwt>
<totfact> 0.11300333E+02</totfact>
</mgrwt>
</event>
<event>
12    6  0.1395358E-007  0.2280732E+04  0.7818608E-02  0.8485557E-01
         -1   -1    0    0    0  501 -0.00000000000E+00  0.00000000000E+00  0.10547597650E+04  0.10547597650E+04  0.00000000000E+00 0.  1.
          2   -1    0    0  501    0  0.00000000000E+00 -0.00000000000E+00 -0.12329200592E+04  0.12329200592E+04  0.00000000000E+00 0. -1.
         24    2    1    2    0    0  0.89975542546E+03  0.31149765783E+03 -0.20704750460E+03  0.97780948930E+03  0.81560478937E+02 0.  0.
        254    2    1    2    0    0 -0.89975542546E+03 -0.31149765783E+03  0.28887210379E+02  0.13098703349E+04  0.89907463918E+03 0.  0.
         23    2    4    4    0    0 -0.23846614544E+03  0.16936809928E+03  0.31464876578E+03  0.43890036912E+03  0.89877876207E+02 0.  0.
         23    2    4    4    0    0 -0.66128928002E+03 -0.48086575711E+03 -0.28576155540E+03  0.87096996577E+03  0.91616737007E+02 0.  0.
          2    1    3    3  502    0  0.50533878530E+03  0.13567979554E+03 -0.13025314512E+03  0.53920513412E+03  0.00000000000E+00 0. -1.
         -1    1    3    3    0  502  0.39441664016E+03  0.17581786229E+03 -0.76794359477E+02  0.43860435518E+03  0.00000000000E+00 0.  1.
         11    1    5    5    0    0 -0.24341790128E+03  0.16144917331E+03  0.31496005448E+03  0.42955552161E+03  0.00000000000E+00 0.  1.
        -11    1    5    5    0    0  0.49517558428E+01  0.79189259629E+01 -0.31128869575E+00  0.93448475100E+01  0.00000000000E+00 0. -1.
          1    1    6    6  503    0 -0.25405577596E+03 -0.13692354012E+03 -0.12207348573E+03  0.31335974383E+03  0.00000000000E+00 0. -1.
         -1    1    6    6    0  503 -0.40723350406E+03 -0.34394221699E+03 -0.16368806967E+03  0.55761022194E+03  0.00000000000E+00 0.  1.
<mgrwt>
<rscale>  0 0.22807319E+04</rscale>
<asrwt>0</asrwt>
<pdfrwt beam="1">  1        2 0.18968001E+00 0.22807319E+04</pdfrwt>
<pdfrwt beam="2">  1       -1 0.16227073E+00 0.22807319E+04</pdfrwt>
<totfact> 0.52641358E+00</totfact>
</mgrwt>
</event>
<event>
12    6  0.1395358E-007  0.4270836E+04  0.7818608E-02  0.7952033E-01
         -1   -1    0    0    0  501 -0.00000000000E+00  0.00000000000E+00  0.27536987787E+04  0.27536987787E+04  0.00000000000E+00 0.  1.
          2   -1    0    0  501    0  0.00000000000E+00 -0.00000000000E+00 -0.16559581354E+04  0.16559581354E+04  0.00000000000E+00 0. -1.
         24    2    1    2    0    0  0.96105915698E+03  0.17054521327E+04 -0.64227119400E+02  0.19602822415E+04  0.79872796087E+02 0.  0.
        254    2    1    2    0    0 -0.96105915698E+03 -0.17054521327E+04  0.11619677627E+04  0.24493746725E+04  0.90391676878E+03 0.  0.
         23    2    4    4    0    0 -0.78708057447E+03 -0.11803739818E+04  0.12358452505E+04  0.18837863237E+04  0.92514119578E+02 0.  0.
         23    2    4    4    0    0 -0.17397858251E+03 -0.52507815090E+03 -0.73877487894E+02  0.56558834887E+03  0.91960238336E+02 0.  0.
          4    1    3    3  502    0  0.65507503336E+03  0.12315851745E+04 -0.58236071458E+02  0.13961793514E+04  0.00000000000E+00 0. -1.
         -3    1    3    3    0  502  0.30598412362E+03  0.47386695823E+03 -0.59910479425E+01  0.56410289014E+03  0.00000000000E+00 0.  1.
         11    1    5    5    0    0 -0.63351081244E+03 -0.10105115532E+04  0.10297187847E+04  0.15756872546E+04  0.00000000000E+00 0. -1.
        -11    1    5    5    0    0 -0.15356976202E+03 -0.16986242858E+03  0.20612646586E+03  0.30809906910E+03  0.00000000000E+00 0.  1.
          2    1    6    6  503    0 -0.92142839284E+02 -0.15638463606E+03 -0.43829576800E+02  0.18672838304E+03  0.00000000000E+00 0. -1.
         -2    1    6    6    0  503 -0.81835743226E+02 -0.36869351484E+03 -0.30047911094E+02  0.37885996584E+03  0.00000000000E+00 0.  1.
<mgrwt>
<rscale>  0 0.42708359E+04</rscale>
<asrwt>0</asrwt>
<pdfrwt beam="1">  1        2 0.25476279E+00 0.42708359E+04</pdfrwt>
<pdfrwt beam="2">  1       -1 0.42364596E+00 0.42708359E+04</pdfrwt>
<totfact> 0.44876183E-02</totfact>
</mgrwt>
</event>
<event>
12    6  0.1395358E-007  0.1793903E+04  0.7818608E-02  0.8709548E-01
          2   -1    0    0  501    0  0.00000000000E+00  0.00000000000E+00  0.27899493335E+04  0.27899493335E+04  0.00000000000E+00 0. -1.
         -1   -1    0    0    0  501 -0.00000000000E+00 -0.00000000000E+00 -0.28836444974E+03  0.28836444974E+03  0.00000000000E+00 0.  1.
         24    2    1    2    0    0  0.10734877814E+03 -0.46385938949E+03  0.13501816692E+03  0.50163942512E+03  0.81993378117E+02 0.  0.
        254    2    1    2    0    0 -0.10734877814E+03  0.46385938949E+03  0.23665667168E+04  0.25766743581E+04  0.90106793812E+03 0.  0.
         23    2    4    4    0    0 -0.25756783272E+03  0.18609296852E+03  0.21672189244E+04  0.21922963693E+04  0.91398705001E+02 0.  0.
         23    2    4    4    0    0  0.15021905458E+03  0.27776642096E+03  0.19934779245E+03  0.38437798880E+03  0.91032669663E+02 0.  0.
          2    1    3    3  502    0  0.10990277589E+03 -0.44250176678E+03  0.14426734261E+03  0.47822536517E+03  0.00000000000E+00 0. -1.
         -1    1    3    3    0  502 -0.25539977486E+01 -0.21357622706E+02 -0.92491756947E+01  0.23414059946E+02  0.00000000000E+00 0.  1.
         11    1    5    5    0    0 -0.28510981081E+02  0.63602255815E+02  0.53910098470E+03  0.54358807446E+03  0.00000000000E+00 0. -1.
        -11    1    5    5    0    0 -0.22905685164E+03  0.12249071271E+03  0.16281179397E+04  0.16487082949E+04  0.00000000000E+00 0.  1.
          3    1    6    6  503    0  0.12998034421E+03  0.17197559125E+03  0.99185181352E+02  0.23729347667E+03  0.00000000000E+00 0. -1.
         -3    1    6    6    0  503  0.20238710369E+02  0.10579082971E+03  0.10016261110E+03  0.14708451213E+03  0.00000000000E+00 0.  1.
<mgrwt>
<rscale>  0 0.17939032E+04</rscale>
<asrwt>0</asrwt>
<pdfrwt beam="1">  1        2 0.42922296E+00 0.17939032E+04</pdfrwt>
<pdfrwt beam="2">  1       -1 0.44363763E-01 0.17939032E+04</pdfrwt>
<totfact> 0.12715976E+01</totfact>
</mgrwt>
</event>
<event>
12    6  0.1395358E-007  0.1956620E+04  0.7818608E-02  0.8627175E-01
          2   -1    0    0  501    0  0.00000000000E+00  0.00000000000E+00  0.59049949004E+03  0.59049949004E+03  0.00000000000E+00 0. -1.
         -1   -1    0    0    0  501 -0.00000000000E+00 -0.00000000000E+00 -0.16208157181E+04  0.16208157181E+04  0.00000000000E+00 0.  1.
         24    2    1    2    0    0 -0.23910721958E+03  0.70998457466E+03 -0.21404846494E+03  0.78329019287E+03  0.80476221280E+02 0.  0.
        254    2    1    2    0    0  0.23910721958E+03 -0.70998457466E+03 -0.81626776315E+03  0.14280250153E+04  0.90095062266E+03 0.  0.
         23    2    4    4    0    0  0.11744620666E+03 -0.24096259931E+02 -0.70000765270E+03  0.71601894126E+03  0.91094287426E+02 0.  0.
         23    2    4    4    0    0  0.12166101292E+03 -0.68588831473E+03 -0.11626011045E+03  0.71200607405E+03  0.90509965472E+02 0.  0.
          2    1    3    3  502    0 -0.42065205850E+02  0.21061301958E+03 -0.36504979155E+02  0.21785302170E+03  0.00000000000E+00 0. -1.
         -1    1    3    3    0  502 -0.19704201373E+03  0.49937155508E+03 -0.17754348579E+03  0.56543717117E+03  0.00000000000E+00 0.  1.
         11    1    5    5    0    0  0.99530808610E+02 -0.44583812981E+02 -0.64999310874E+03  0.65907900866E+03  0.00000000000E+00 0. -1.
        -11    1    5    5    0    0  0.17915398047E+02  0.20487553050E+02 -0.50014543958E+02  0.56939932600E+02  0.00000000000E+00 0.  1.
          4    1    6    6  503    0  0.13003859972E+03 -0.61251283887E+03 -0.85383454516E+02  0.63195913594E+03  0.00000000000E+00 0. -1.
         -4    1    6    6    0  503 -0.83775867960E+01 -0.73375475861E+02 -0.30876655932E+02  0.80046938105E+02  0.00000000000E+00 0.  1.
<mgrwt>
<rscale>  0 0.19566204E+04</rscale>
<asrwt>0</asrwt>
<pdfrwt beam="1">  1        2 0.90846076E-01 0.19566204E+04</pdfrwt>
<pdfrwt beam="2">  1       -1 0.24935626E+00 0.19566204E+04</pdfrwt>
<totfact> 0.37901247E+00</totfact>
</mgrwt>
</event>
<event>
12    6  0.1395358E-007  0.1146814E+04  0.7818608E-02  0.9160728E-01
          2   -1    0    0  501    0  0.00000000000E+00  0.00000000000E+00  0.20144101479E+04  0.20144101479E+04  0.00000000000E+00 0. -1.
         -1   -1    0    0    0  501 -0.00000000000E+00 -0.00000000000E+00 -0.16322167011E+03  0.16322167011E+03  0.00000000000E+00 0.  1.
         24    2    1    2    0    0 -0.97504921654E+02  0.12775931756E+03  0.61423455470E+03  0.63991381145E+03  0.79849514272E+02 0.  0.
        254    2    1    2    0    0  0.97504921654E+02 -0.12775931756E+03  0.12369539231E+04  0.15377180066E+04  0.89927304359E+03 0.  0.
         23    2    4    4    0    0  0.31704647541E+03 -0.82269920257E+02  0.70890923464E+02  0.34676724388E+03  0.89079689304E+02 0.  0.
         23    2    4    4    0    0 -0.21954155376E+03 -0.45489397304E+02  0.11660629997E+04  0.11909507627E+04  0.91613432223E+02 0.  0.
          4    1    3    3  502    0 -0.74277749805E+02  0.12629209391E+03  0.58197790181E+03  0.60013761363E+03  0.00000000000E+00 0. -1.
         -3    1    3    3    0  502 -0.23227171849E+02  0.14672236522E+01  0.32256652884E+02  0.39776197815E+02  0.00000000000E+00 0.  1.
         11    1    5    5    0    0  0.62946763583E+02 -0.54671609612E+02  0.95835231940E+01  0.83923321312E+02  0.00000000000E+00 0.  1.
        -11    1    5    5    0    0  0.25409971183E+03 -0.27598310645E+02  0.61307400270E+02  0.26284392257E+03  0.00000000000E+00 0. -1.
          1    1    6    6  503    0 -0.55117579753E+02 -0.24106400825E+02  0.53861791437E+03  0.54196708741E+03  0.00000000000E+00 0. -1.
         -1    1    6    6    0  503 -0.16442397400E+03 -0.21382996478E+02  0.62744508529E+03  0.64898367531E+03  0.00000000000E+00 0.  1.
<mgrwt>
<rscale>  0 0.11468137E+04</rscale>
<asrwt>0</asrwt>
<pdfrwt beam="1">  1        2 0.30990924E+00 0.11468137E+04</pdfrwt>
<pdfrwt beam="2">  1       -1 0.25111028E-01 0.11468137E+04</pdfrwt>
<totfact> 0.10302205E+02</totfact>
</mgrwt>
</event>
<event>
12    6  0.1395358E-007  0.2055263E+04  0.7818608E-02  0.8581210E-01
          2   -1    0    0  501    0  0.00000000000E+00  0.00000000000E+00  0.10466389839E+04  0.10466389839E+04  0.00000000000E+00 0. -1.
         -1   -1    0    0    0  501 -0.00000000000E+00 -0.00000000000E+00 -0.10089696398E+04  0.10089696398E+04  0.00000000000E+00 0.  1.
         24    2    1    2    0    0 -0.70814994819E+03 -0.15091980403E+03  0.41826768457E+03  0.83966950333E+03  0.76445290824E+02 0.  0.
        254    2    1    2    0    0  0.70814994819E+03  0.15091980403E+03 -0.38059834047E+03  0.12159391203E+04  0.89966644438E+03 0.  0.
         23    2    4    4    0    0  0.89085308523E+03  0.24063861343E+03 -0.33987490549E+03  0.98792332541E+03  0.94611752854E+02 0.  0.
         23    2    4    4    0    0 -0.18270313704E+03 -0.89718809398E+02 -0.40723434978E+02  0.22801579489E+03  0.94355198694E+02 0.  0.
          4    1    3    3  502    0 -0.61348313861E+03 -0.11423622614E+03  0.38301900395E+03  0.73219876680E+03  0.00000000000E+00 0. -1.
         -3    1    3    3    0  502 -0.94666809579E+02 -0.36683577895E+02  0.35248680618E+02  0.10747073652E+03  0.00000000000E+00 0.  1.
         11    1    5    5    0    0  0.59327999200E+03  0.17943976811E+03 -0.18452235647E+03  0.64670571307E+03  0.00000000000E+00 0. -1.
        -11    1    5    5    0    0  0.29757309323E+03  0.61198845319E+02 -0.15535254902E+03  0.34121761234E+03  0.00000000000E+00 0.  1.
          3    1    6    6  503    0 -0.15500088696E+03 -0.31020577707E+02 -0.17328602715E+02  0.15902148180E+03  0.00000000000E+00 0. -1.
         -3    1    6    6    0  503 -0.27702250074E+02 -0.58698231692E+02 -0.23394832263E+02  0.68994313096E+02  0.00000000000E+00 0.  1.
<mgrwt>
<rscale>  0 0.20552634E+04</rscale>
<asrwt>0</asrwt>
<pdfrwt beam="1">  1        2 0.16102138E+00 0.20552634E+04</pdfrwt>
<pdfrwt beam="2">  1       -1 0.15522610E+00 0.20552634E+04</pdfrwt>
<totfact> 0.78874575E+00</totfact>
</mgrwt>
</event>
<event>
12    6  0.1395358E-007  0.2571264E+04  0.7818608E-02  0.8378028E-01
          2   -1    0    0  501    0  0.00000000000E+00  0.00000000000E+00  0.43133917323E+04  0.43133917323E+04  0.00000000000E+00 0. -1.
         -1   -1    0    0    0  501 -0.00000000000E+00 -0.00000000000E+00 -0.38319014543E+03  0.38319014543E+03  0.00000000000E+00 0.  1.
         24    2    1    2    0    0 -0.74890560373E+03 -0.75812028506E+02  0.19395036240E+03  0.78142679448E+03  0.80025152934E+02 0.  0.
        254    2    1    2    0    0  0.74890560373E+03  0.75812028506E+02  0.37362512245E+04  0.39151550833E+04  0.89568914615E+03 0.  0.
         23    2    4    4    0    0 -0.62366736797E+02  0.28980641201E+03  0.73679204586E+03  0.79923577888E+03  0.89654587688E+02 0.  0.
         23    2    4    4    0    0  0.81127234052E+03 -0.21399438350E+03  0.29994591786E+04  0.31159193044E+04  0.90781829151E+02 0.  0.
          2    1    3    3  502    0 -0.30797322106E+03 -0.33878177077E+02  0.12058695019E+03  0.33247022171E+03  0.00000000000E+00 0. -1.
         -1    1    3    3    0  502 -0.44093238267E+03 -0.41933851430E+02  0.73363412213E+02  0.44895657277E+03  0.00000000000E+00 0.  1.
         11    1    5    5    0    0 -0.26865430527E+02  0.24430824565E+02  0.14862318758E+03  0.15299499479E+03  0.00000000000E+00 0.  1.
        -11    1    5    5    0    0 -0.35501306270E+02  0.26537558744E+03  0.58816885829E+03  0.64624078409E+03  0.00000000000E+00 0. -1.
          1    1    6    6  503    0  0.24259282681E+03 -0.37256181827E+02  0.76096421568E+03  0.79956603245E+03  0.00000000000E+00 0.  1.
         -1    1    6    6    0  503  0.56867951372E+03 -0.17673820168E+03  0.22384949629E+04  0.23163532719E+04  0.00000000000E+00 0. -1.
<mgrwt>
<rscale>  0 0.25712637E+04</rscale>
<asrwt>0</asrwt>
<pdfrwt beam="1">  1        2 0.66359870E+00 0.25712637E+04</pdfrwt>
<pdfrwt beam="2">  1       -1 0.58952333E-01 0.25712637E+04</pdfrwt>
<totfact> 0.54457424E-01</totfact>
</mgrwt>
</event>
<event>
12    6  0.1395358E-007  0.1877579E+04  0.7818608E-02  0.8666098E-01
         -1   -1    0    0    0  501 -0.00000000000E+00  0.00000000000E+00  0.13011729558E+04  0.13011729558E+04  0.00000000000E+00 0.  1.
          2   -1    0    0  501    0  0.00000000000E+00 -0.00000000000E+00 -0.67733149717E+03  0.67733149717E+03  0.00000000000E+00 0. -1.
         24    2    1    2    0    0 -0.85025152405E+01  0.70276167771E+03  0.52953387800E+02  0.70928399965E+03  0.79583053798E+02 0.  0.
        254    2    1    2    0    0  0.85025152405E+01 -0.70276167771E+03  0.57088807086E+03  0.12692204534E+04  0.88941615756E+03 0.  0.
         23    2    4    4    0    0  0.23695766311E+03  0.90977869665E+02  0.27901548245E+03  0.38804235643E+03  0.91111602256E+02 0.  0.
         23    2    4    4    0    0 -0.22845514787E+03 -0.79373954738E+03  0.29187258841E+03  0.88117809692E+03  0.95241834112E+02 0.  0.
          4    1    3    3  502    0  0.53843708757E+01  0.95953632889E+02 -0.19326352585E+02  0.98028562259E+02  0.00000000000E+00 0. -1.
         -3    1    3    3    0  502 -0.13886886116E+02  0.60680804482E+03  0.72279740385E+02  0.61125543739E+03  0.00000000000E+00 0.  1.
         11    1    5    5    0    0  0.21975322311E+03  0.10080786351E+03  0.27767729247E+03  0.36818254055E+03  0.00000000000E+00 0. -1.
        -11    1    5    5    0    0  0.17204439995E+02 -0.98299938463E+01  0.13381899849E+01  0.19859815885E+02  0.00000000000E+00 0.  1.
          4    1    6    6  503    0 -0.11657643491E+03 -0.42587158778E+03  0.10590323381E+03  0.45406185635E+03  0.00000000000E+00 0. -1.
         -4    1    6    6    0  503 -0.11187871296E+03 -0.36786795959E+03  0.18596935461E+03  0.42711624057E+03  0.00000000000E+00 0.  1.
<mgrwt>
<rscale>  0 0.18775787E+04</rscale>
<asrwt>0</asrwt>
<pdfrwt beam="1">  1        2 0.10420485E+00 0.18775787E+04</pdfrwt>
<pdfrwt beam="2">  1       -1 0.20018045E+00 0.18775787E+04</pdfrwt>
<totfact> 0.68658148E+00</totfact>
</mgrwt>
</event>
<event>
12    6  0.1395358E-007  0.3077424E+04  0.7818608E-02  0.8221961E-01
          2   -1    0    0  501    0  0.00000000000E+00  0.00000000000E+00  0.18716665200E+04  0.18716665200E+04  0.00000000000E+00 0. -1.
         -1   -1    0    0    0  501 -0.00000000000E+00 -0.00000000000E+00 -0.12649871809E+04  0.12649871809E+04  0.00000000000E+00 0.  1.
         24    2    1    2    0    0 -0.43397408703E+03  0.13316327370E+04  0.16554597528E+03  0.14125939907E+04  0.80231277900E+02 0.  0.
        254    2    1    2    0    0  0.43397408703E+03 -0.13316327370E+04  0.44113336380E+03  0.17240597102E+04  0.90344008387E+03 0.  0.
         23    2    4    4    0    0  0.57712661309E+03 -0.52112046949E+03  0.43744395161E+03  0.89641528113E+03  0.86956737420E+02 0.  0.
         23    2    4    4    0    0 -0.14315252606E+03 -0.81051226754E+03  0.36894121929E+01  0.82764442908E+03  0.86941978754E+02 0.  0.
          2    1    3    3  502    0 -0.33877253010E+03  0.95352417330E+03  0.14374783427E+03  0.10220756411E+04  0.00000000000E+00 0. -1.
         -1    1    3    3    0  502 -0.95201556938E+02  0.37810856373E+03  0.21798141016E+02  0.39051834958E+03  0.00000000000E+00 0.  1.
         11    1    5    5    0    0  0.30061014085E+03 -0.32338937992E+03  0.22500491831E+03  0.49555459950E+03  0.00000000000E+00 0. -1.
        -11    1    5    5    0    0  0.27651647224E+03 -0.19773108957E+03  0.21243903330E+03  0.40086068162E+03  0.00000000000E+00 0.  1.
          3    1    6    6  503    0 -0.53271044437E+02 -0.16312613239E+03 -0.25019938649E+02  0.17341838592E+03  0.00000000000E+00 0. -1.
         -3    1    6    6    0  503 -0.89881481618E+02 -0.64738613515E+03  0.28709350842E+02  0.65422604316E+03  0.00000000000E+00 0.  1.
<mgrwt>
<rscale>  0 0.30774237E+04</rscale>
<asrwt>0</asrwt>
<pdfrwt beam="1">  1        2 0.28794870E+00 0.30774237E+04</pdfrwt>
<pdfrwt beam="2">  1       -1 0.19461341E+00 0.30774237E+04</pdfrwt>
<totfact> 0.12499581E+00</totfact>
</mgrwt>
</event>
<event>
12    6  0.1395358E-007  0.1974692E+04  0.7818608E-02  0.8618545E-01
          2   -1    0    0  501    0  0.00000000000E+00  0.00000000000E+00  0.16317336840E+04  0.16317336840E+04  0.00000000000E+00 0. -1.
         -1   -1    0    0    0  501 -0.00000000000E+00 -0.00000000000E+00 -0.59743332931E+03  0.59743332931E+03  0.00000000000E+00 0.  1.
         24    2    1    2    0    0  0.94950538519E+02 -0.76798251583E+03  0.51600577814E+03  0.93327580822E+03  0.77000141192E+02 0.  0.
        254    2    1    2    0    0 -0.94950538519E+02  0.76798251583E+03  0.51829457659E+03  0.12958912051E+04  0.90105049693E+03 0.  0.
         23    2    4    4    0    0 -0.43262030134E+03  0.65273342522E+03  0.21063926750E+03  0.81603961626E+03  0.91271598942E+02 0.  0.
         23    2    4    4    0    0  0.33766976282E+03  0.11524909061E+03  0.30765530910E+03  0.47985158887E+03  0.91118255663E+02 0.  0.
          2    1    3    3  502    0 -0.44488364911E+00 -0.83870320840E+02  0.83265279092E+02  0.11818432782E+03  0.00000000000E+00 0. -1.
         -1    1    3    3    0  502  0.95395422168E+02 -0.68411219499E+03  0.43274049905E+03  0.81509148040E+03  0.00000000000E+00 0.  1.
         11    1    5    5    0    0 -0.52307525281E+01  0.44291663653E+02  0.16617300953E+02  0.47594610327E+02  0.00000000000E+00 0.  1.
        -11    1    5    5    0    0 -0.42738954881E+03  0.60844176157E+03  0.19402196655E+03  0.76844500594E+03  0.00000000000E+00 0. -1.
          3    1    6    6  503    0  0.18150478232E+03  0.14517079775E+02  0.16238662540E+03  0.24397571133E+03  0.00000000000E+00 0. -1.
         -3    1    6    6    0  503  0.15616498050E+03  0.10073201084E+03  0.14526868370E+03  0.23587587754E+03  0.00000000000E+00 0.  1.
<mgrwt>
<rscale>  0 0.19746920E+04</rscale>
<asrwt>0</asrwt>
<pdfrwt beam="1">  1        2 0.25103595E+00 0.19746920E+04</pdfrwt>
<pdfrwt beam="2">  1       -1 0.91912821E-01 0.19746920E+04</pdfrwt>
<totfact> 0.13088058E+01</totfact>
</mgrwt>
</event>
<event>
12    6  0.1395358E-007  0.2450724E+04  0.7818608E-02  0.8420754E-01
          2   -1    0    0  501    0  0.00000000000E+00  0.00000000000E+00  0.14674669074E+04  0.14674669074E+04  0.00000000000E+00 0. -1.
         -1   -1    0    0    0  501 -0.00000000000E+00 -0.00000000000E+00 -0.10231998146E+04  0.10231998146E+04  0.00000000000E+00 0.  1.
         24    2    1    2    0    0  0.82590555124E+03 -0.57721196255E+03 -0.13720627003E+03  0.10199126577E+04  0.78119393211E+02 0.  0.
        254    2    1    2    0    0 -0.82590555124E+03  0.57721196255E+03  0.58147336288E+03  0.14707540643E+04  0.89984032841E+03 0.  0.
         23    2    4    4    0    0 -0.93518461642E+02  0.14560891201E+02  0.52461321327E+03  0.54085512365E+03  0.91364758105E+02 0.  0.
         23    2    4    4    0    0 -0.73238708960E+03  0.56265107135E+03  0.56860149607E+02  0.92989894064E+03  0.92259883473E+02 0.  0.
          2    1    3    3  502    0  0.36612652218E+03 -0.29267101209E+03 -0.38829233825E+02  0.47033250043E+03  0.00000000000E+00 0. -1.
         -1    1    3    3    0  502  0.45977902906E+03 -0.28454095046E+03 -0.98377036205E+02  0.54958015731E+03  0.00000000000E+00 0.  1.
         11    1    5    5    0    0 -0.74958724202E+02 -0.26931119914E+02  0.24641354612E+03  0.25896666053E+03  0.00000000000E+00 0.  1.
        -11    1    5    5    0    0 -0.18559737439E+02  0.41492011115E+02  0.27819966715E+03  0.28188846312E+03  0.00000000000E+00 0. -1.
          4    1    6    6  503    0 -0.14971856765E+03  0.91766141436E+02 -0.20328917870E+02  0.17677652309E+03  0.00000000000E+00 0. -1.
         -4    1    6    6    0  503 -0.58266852195E+03  0.47088492991E+03  0.77189067478E+02  0.75312241755E+03  0.00000000000E+00 0.  1.
<mgrwt>
<rscale>  0 0.24507239E+04</rscale>
<asrwt>0</asrwt>
<pdfrwt beam="1">  1        2 0.22576414E+00 0.24507239E+04</pdfrwt>
<pdfrwt beam="2">  1       -1 0.15741536E+00 0.24507239E+04</pdfrwt>
<totfact> 0.41313532E+00</totfact>
</mgrwt>
</event>
<event>
12    6  0.1395358E-007  0.1486229E+04  0.7818608E-02  0.8893663E-01
         -1   -1    0    0    0  501 -0.00000000000E+00  0.00000000000E+00  0.71051676773E+03  0.71051676773E+03  0.00000000000E+00 0.  1.
          2   -1    0    0  501    0  0.00000000000E+00 -0.00000000000E+00 -0.77720738162E+03  0.77720738162E+03  0.00000000000E+00 0. -1.
         24    2    1    2    0    0  0.20539764928E+03  0.18420147463E+03 -0.39731230607E+03  0.49023257205E+03  0.79702751273E+02 0.  0.
        254    2    1    2    0    0 -0.20539764928E+03 -0.18420147463E+03  0.33062169217E+03  0.99749157730E+03  0.89975572566E+03 0.  0.
         23    2    4    4    0    0  0.16388070939E+03 -0.43510221287E+03  0.93190168845E+02  0.48373380997E+03  0.95619918328E+02 0.  0.
         23    2    4    4    0    0 -0.36927835866E+03  0.25090073824E+03  0.23743152333E+03  0.51375776733E+03  0.90860489728E+02 0.  0.
          4    1    3    3  502    0  0.95849177757E+02  0.35153304967E+02 -0.14780764704E+03  0.17963830397E+03  0.00000000000E+00 0. -1.
         -3    1    3    3    0  502  0.10954847152E+03  0.14904816966E+03 -0.24950465903E+03  0.31059426809E+03  0.00000000000E+00 0.  1.
         11    1    5    5    0    0  0.16744021576E+03 -0.33677056651E+03  0.79204523170E+02  0.38434879577E+03  0.00000000000E+00 0.  1.
        -11    1    5    5    0    0 -0.35595063713E+01 -0.98331646357E+02  0.13985645675E+02  0.99385014192E+02  0.00000000000E+00 0. -1.
          1    1    6    6  503    0 -0.23860088895E+03  0.10889295915E+03  0.12690148544E+03  0.29136239937E+03  0.00000000000E+00 0.  1.
         -1    1    6    6    0  503 -0.13067746972E+03  0.14200777910E+03  0.11053003789E+03  0.22239536796E+03  0.00000000000E+00 0. -1.
<mgrwt>
<rscale>  0 0.14862286E+04</rscale>
<asrwt>0</asrwt>
<pdfrwt beam="1">  1        2 0.11957037E+00 0.14862286E+04</pdfrwt>
<pdfrwt beam="2">  1       -1 0.10931027E+00 0.14862286E+04</pdfrwt>
<totfact> 0.30628667E+01</totfact>
</mgrwt>
</event>
<event>
12    6  0.1395358E-007  0.1510120E+04  0.7818608E-02  0.8877751E-01
         -1   -1    0    0    0  501 -0.00000000000E+00  0.00000000000E+00  0.35607628286E+03  0.35607628286E+03  0.00000000000E+00 0.  1.
          2   -1    0    0  501    0  0.00000000000E+00 -0.00000000000E+00 -0.16011059569E+04  0.16011059569E+04  0.00000000000E+00 0. -1.
         24    2    1    2    0    0 -0.27395461602E+03 -0.33919150014E+03 -0.66766982732E+03  0.80155512210E+03  0.81274904149E+02 0.  0.
        254    2    1    2    0    0  0.27395461602E+03  0.33919150014E+03 -0.57735984668E+03  0.11556271176E+04  0.90112576094E+03 0.  0.
         23    2    4    4    0    0  0.44195388564E+02  0.55780712312E+03 -0.59941983967E+03  0.82503255293E+03  0.90953560869E+02 0.  0.
         23    2    4    4    0    0  0.22975922745E+03 -0.21861562298E+03  0.22059992985E+02  0.33059456470E+03  0.90686436202E+02 0.  0.
          2    1    3    3  502    0 -0.18414426191E+03 -0.20913798027E+03 -0.49056250149E+03  0.56418026539E+03  0.00000000000E+00 0. -1.
         -1    1    3    3    0  502 -0.89810354105E+02 -0.13005351987E+03 -0.17710732583E+03  0.23737485671E+03  0.00000000000E+00 0.  1.
         11    1    5    5    0    0  0.42971988102E+02  0.32491330979E+03 -0.28902937608E+03  0.43698195715E+03  0.00000000000E+00 0. -1.
        -11    1    5    5    0    0  0.12234004627E+01  0.23289381332E+03 -0.31039046359E+03  0.38805059577E+03  0.00000000000E+00 0.  1.
          3    1    6    6  503    0  0.14962000909E+03 -0.17698773990E+03  0.47921267627E+02  0.23665852000E+03  0.00000000000E+00 0. -1.
         -3    1    6    6    0  503  0.80139218361E+02 -0.41627883074E+02 -0.25861274641E+02  0.93936044705E+02  0.00000000000E+00 0.  1.
<mgrwt>
<rscale>  0 0.15101203E+04</rscale>
<asrwt>0</asrwt>
<pdfrwt beam="1">  1        2 0.24632399E+00 0.15101203E+04</pdfrwt>
<pdfrwt beam="2">  1       -1 0.54780967E-01 0.15101203E+04</pdfrwt>
<totfact> 0.41242581E+01</totfact>
</mgrwt>
</event>
<event>
12    6  0.1395358E-007  0.1889103E+04  0.7818608E-02  0.8660300E-01
         -1   -1    0    0    0  501 -0.00000000000E+00  0.00000000000E+00  0.51913297435E+03  0.51913297435E+03  0.00000000000E+00 0.  1.
          2   -1    0    0  501    0  0.00000000000E+00 -0.00000000000E+00 -0.17185913653E+04  0.17185913653E+04  0.00000000000E+00 0. -1.
         24    2    1    2    0    0  0.33478188494E+03  0.63874623060E+03 -0.50491906574E+03  0.88380486619E+03  0.78052040106E+02 0.  0.
        254    2    1    2    0    0 -0.33478188494E+03 -0.63874623060E+03 -0.69453932525E+03  0.13539194735E+04  0.91139311432E+03 0.  0.
         23    2    4    4    0    0 -0.45921500179E+03 -0.72080610375E+03 -0.28097587090E+03  0.90414655581E+03  0.89964978079E+02 0.  0.
         23    2    4    4    0    0  0.12443311684E+03  0.82059873156E+02 -0.41356345435E+03  0.44977291770E+03  0.95097441459E+02 0.  0.
          4    1    3    3  502    0  0.23192445280E+03  0.37272944540E+03 -0.28137819317E+03  0.52143060791E+03  0.00000000000E+00 0. -1.
         -3    1    3    3    0  502  0.10285743214E+03  0.26601678520E+03 -0.22354087257E+03  0.36237425828E+03  0.00000000000E+00 0.  1.
         11    1    5    5    0    0 -0.89671794997E+02 -0.12695607177E+03 -0.16231409108E+02  0.15627646534E+03  0.00000000000E+00 0. -1.
        -11    1    5    5    0    0 -0.36954320679E+03 -0.59385003198E+03 -0.26474446179E+03  0.74787009047E+03  0.00000000000E+00 0.  1.
          2    1    6    6  503    0  0.13273244222E+03  0.85803057911E+02 -0.41095838182E+03  0.44030314280E+03  0.00000000000E+00 0.  1.
         -2    1    6    6    0  503 -0.82993253785E+01 -0.37431847548E+01 -0.26050725262E+01  0.94697749031E+01  0.00000000000E+00 0. -1.
<mgrwt>
<rscale>  0 0.18891029E+04</rscale>
<asrwt>0</asrwt>
<pdfrwt beam="1">  1        2 0.26439867E+00 0.18891029E+04</pdfrwt>
<pdfrwt beam="2">  1       -1 0.79866611E-01 0.18891029E+04</pdfrwt>
<totfact> 0.16004778E+01</totfact>
</mgrwt>
</event>
<event>
12    6  0.1395358E-007  0.1633922E+04  0.7818608E-02  0.8799975E-01
          2   -1    0    0  501    0  0.00000000000E+00  0.00000000000E+00  0.14077001620E+04  0.14077001620E+04  0.00000000000E+00 0. -1.
         -1   -1    0    0    0  501 -0.00000000000E+00 -0.00000000000E+00 -0.47412473555E+03  0.47412473555E+03  0.00000000000E+00 0.  1.
         24    2    1    2    0    0  0.16098043783E+03 -0.35486067132E+03  0.79961394916E+03  0.89341132595E+03  0.83429804220E+02 0.  0.
        254    2    1    2    0    0 -0.16098043783E+03  0.35486067132E+03  0.13396147726E+03  0.98841357157E+03  0.89842913669E+03 0.  0.
         23    2    4    4    0    0  0.16309886720E+03  0.38116354667E+03 -0.23488347996E+03  0.48708267745E+03  0.10095739555E+03 0.  0.
         23    2    4    4    0    0 -0.32407930504E+03 -0.26302875350E+02  0.36884495722E+03  0.50133089412E+03  0.97810151479E+02 0.  0.
          4    1    3    3  502    0  0.14016489822E+03 -0.23574513025E+03  0.60542454675E+03  0.66465092111E+03  0.00000000000E+00 0. -1.
         -3    1    3    3    0  502  0.20815539618E+02 -0.11911554107E+03  0.19418940241E+03  0.22876040484E+03  0.00000000000E+00 0.  1.
         11    1    5    5    0    0  0.64052154824E+02  0.18385710074E+03 -0.55025249653E+02  0.20232125476E+03  0.00000000000E+00 0.  1.
        -11    1    5    5    0    0  0.99046712379E+02  0.19730644594E+03 -0.17985823031E+03  0.28476142269E+03  0.00000000000E+00 0. -1.
          2    1    6    6  503    0 -0.11959547100E+01 -0.12467223729E+02  0.24328230351E+01  0.12758550196E+02  0.00000000000E+00 0. -1.
         -2    1    6    6    0  503 -0.32288335033E+03 -0.13835651621E+02  0.36641213418E+03  0.48857234393E+03  0.00000000000E+00 0.  1.
<mgrwt>
<rscale>  0 0.16339222E+04</rscale>
<asrwt>0</asrwt>
<pdfrwt beam="1">  1        2 0.21656925E+00 0.16339222E+04</pdfrwt>
<pdfrwt beam="2">  1       -1 0.72942268E-01 0.16339222E+04</pdfrwt>
<totfact> 0.29586923E+01</totfact>
</mgrwt>
</event>
<event>
12    6  0.1395358E-007  0.2904716E+04  0.7818608E-02  0.8271476E-01
          2   -1    0    0  501    0  0.00000000000E+00  0.00000000000E+00  0.35293787445E+04  0.35293787445E+04  0.00000000000E+00 0. -1.
         -1   -1    0    0    0  501 -0.00000000000E+00 -0.00000000000E+00 -0.59765314715E+03  0.59765314715E+03  0.00000000000E+00 0.  1.
         24    2    1    2    0    0  0.73876889583E+03  0.54876489612E+03 -0.19972899550E+01  0.92374705265E+03  0.79888894521E+02 0.  0.
        254    2    1    2    0    0 -0.73876889583E+03 -0.54876489612E+03  0.29337228874E+04  0.32032848390E+04  0.89854403763E+03 0.  0.
         23    2    4    4    0    0  0.16154982081E+03 -0.17936480365E+03  0.31399596662E+03  0.40715061555E+03  0.94382621799E+02 0.  0.
         23    2    4    4    0    0 -0.90031871663E+03 -0.36940009247E+03  0.26197269207E+04  0.27961342235E+04  0.91472600841E+02 0.  0.
          2    1    3    3  502    0  0.43392421795E+03  0.31288331923E+03 -0.39842095008E+02  0.53644532891E+03  0.00000000000E+00 0. -1.
         -1    1    3    3    0  502  0.30484467788E+03  0.23588157689E+03  0.37844805053E+02  0.38730172375E+03  0.00000000000E+00 0.  1.
         11    1    5    5    0    0  0.16295930883E+03 -0.13483827514E+03  0.23279717744E+03  0.31453397686E+03  0.00000000000E+00 0.  1.
        -11    1    5    5    0    0 -0.14094880209E+01 -0.44526528504E+02  0.81198789179E+02  0.92616638685E+02  0.00000000000E+00 0. -1.
          2    1    6    6  503    0 -0.51221005851E+03 -0.16327058324E+03  0.14020379307E+04  0.15015747688E+04  0.00000000000E+00 0. -1.
         -2    1    6    6    0  503 -0.38810865812E+03 -0.20612950923E+03  0.12176889901E+04  0.12945594547E+04  0.00000000000E+00 0.  1.
<mgrwt>
<rscale>  0 0.29047164E+04</rscale>
<asrwt>0</asrwt>
<pdfrwt beam="1">  1        2 0.54298133E+00 0.29047164E+04</pdfrwt>
<pdfrwt beam="2">  1       -1 0.91946640E-01 0.29047164E+04</pdfrwt>
<totfact> 0.87495352E-01</totfact>
</mgrwt>
</event>
<event>
12    6  0.1395358E-007  0.4092294E+04  0.7818608E-02  0.7986182E-01
          2   -1    0    0  501    0  0.00000000000E+00  0.00000000000E+00  0.36584819750E+04  0.36584819750E+04  0.00000000000E+00 0. -1.
         -1   -1    0    0    0  501 -0.00000000000E+00 -0.00000000000E+00 -0.11443863395E+04  0.11443863395E+04  0.00000000000E+00 0.  1.
         24    2    1    2    0    0  0.16422732328E+03  0.15629733823E+04 -0.15099124176E+03  0.15808477014E+04  0.80154179478E+02 0.  0.
        254    2    1    2    0    0 -0.16422732328E+03 -0.15629733823E+04  0.26650868772E+04  0.32220206131E+04  0.89937331568E+03 0.  0.
         23    2    4    4    0    0 -0.11866933961E+02 -0.14028774716E+04  0.15979667264E+04  0.21282372382E+04  0.87692981130E+02 0.  0.
         23    2    4    4    0    0 -0.15236038932E+03 -0.16009591072E+03  0.10671201508E+04  0.10937833750E+04  0.93660376930E+02 0.  0.
          4    1    3    3  502    0  0.48671169153E+02  0.20334646558E+03 -0.19301412771E+02  0.20997907587E+03  0.00000000000E+00 0. -1.
         -3    1    3    3    0  502  0.11555615412E+03  0.13596269167E+04 -0.13168982899E+03  0.13708686255E+04  0.00000000000E+00 0.  1.
         11    1    5    5    0    0 -0.22633365050E+02 -0.12765803956E+03  0.16832676350E+03  0.21246821783E+03  0.00000000000E+00 0.  1.
        -11    1    5    5    0    0  0.10766431089E+02 -0.12752194320E+04  0.14296399629E+04  0.19157690204E+04  0.00000000000E+00 0. -1.
          1    1    6    6  503    0 -0.98290120805E+02 -0.14987478065E+03  0.70094436753E+03  0.72349595997E+03  0.00000000000E+00 0. -1.
         -1    1    6    6    0  503 -0.54070268510E+02 -0.10221130072E+02  0.36617578328E+03  0.37028741498E+03  0.00000000000E+00 0.  1.
<mgrwt>
<rscale>  0 0.40922936E+04</rscale>
<asrwt>0</asrwt>
<pdfrwt beam="1">  1        2 0.56284337E+00 0.40922936E+04</pdfrwt>
<pdfrwt beam="2">  1       -1 0.17605944E+00 0.40922936E+04</pdfrwt>
<totfact> 0.12333962E-01</totfact>
</mgrwt>
</event>
<event>
12    6  0.1395358E-007  0.1323542E+04  0.7818608E-02  0.9011102E-01
          2   -1    0    0  501    0  0.00000000000E+00  0.00000000000E+00  0.11059916000E+04  0.11059916000E+04  0.00000000000E+00 0. -1.
         -1   -1    0    0    0  501 -0.00000000000E+00 -0.00000000000E+00 -0.39597134545E+03  0.39597134545E+03  0.00000000000E+00 0.  1.
         24    2    1    2    0    0  0.25926143391E+03 -0.19423306632E+03  0.33766061759E+03  0.47424095710E+03  0.77115611634E+02 0.  0.
        254    2    1    2    0    0 -0.25926143391E+03  0.19423306632E+03  0.37235963694E+03  0.10277219883E+04  0.90145316622E+03 0.  0.
         23    2    4    4    0    0 -0.14217531241E+03  0.40706570954E+03  0.55629984500E+03  0.70997766750E+03  0.93179715909E+02 0.  0.
         23    2    4    4    0    0 -0.11708612151E+03 -0.21283264322E+03 -0.18394020806E+03  0.31774432082E+03  0.90114146524E+02 0.  0.
          2    1    3    3  502    0  0.96304078135E+02 -0.72797306447E+02  0.18133156338E+03  0.21784182144E+03  0.00000000000E+00 0. -1.
         -1    1    3    3    0  502  0.16295735578E+03 -0.12143575987E+03  0.15632905420E+03  0.25639913566E+03  0.00000000000E+00 0.  1.
         11    1    5    5    0    0 -0.72155093590E+02  0.29203682315E+03  0.32910877225E+03  0.44587492369E+03  0.00000000000E+00 0.  1.
        -11    1    5    5    0    0 -0.70020218816E+02  0.11502888639E+03  0.22719107275E+03  0.26410274381E+03  0.00000000000E+00 0. -1.
          2    1    6    6  503    0 -0.22169778122E+01  0.76933817576E+01  0.69995302445E+00  0.80369800127E+01  0.00000000000E+00 0. -1.
         -2    1    6    6    0  503 -0.11486914369E+03 -0.22052602498E+03 -0.18464016108E+03  0.30970734081E+03  0.00000000000E+00 0.  1.
<mgrwt>
<rscale>  0 0.13235422E+04</rscale>
<asrwt>0</asrwt>
<pdfrwt beam="1">  1        2 0.17015255E+00 0.13235422E+04</pdfrwt>
<pdfrwt beam="2">  1       -1 0.60918669E-01 0.13235422E+04</pdfrwt>
<totfact> 0.65881614E+01</totfact>
</mgrwt>
</event>
<event>
12    6  0.1395358E-007  0.2933357E+04  0.7818608E-02  0.8263021E-01
         -1   -1    0    0    0  501 -0.00000000000E+00  0.00000000000E+00  0.30533249216E+04  0.30533249216E+04  0.00000000000E+00 0.  1.
          2   -1    0    0  501    0  0.00000000000E+00 -0.00000000000E+00 -0.70452568417E+03  0.70452568417E+03  0.00000000000E+00 0. -1.
         24    2    1    2    0    0 -0.30611402566E+03 -0.11259470924E+04  0.25290335500E+03  0.11966708719E+04  0.81230641741E+02 0.  0.
        254    2    1    2    0    0  0.30611402566E+03  0.11259470924E+04  0.20958958824E+04  0.25611797338E+04  0.89744048686E+03 0.  0.
         23    2    4    4    0    0 -0.19753322737E+03 -0.18350811325E+02  0.33134241549E+03  0.39673412002E+03  0.90851733607E+02 0.  0.
         23    2    4    4    0    0  0.50364725303E+03  0.11442979037E+04  0.17645534669E+04  0.21644456138E+04  0.89986829699E+02 0.  0.
          4    1    3    3  502    0  0.20855470851E+01 -0.33137463015E+02 -0.88780114385E+00  0.33214893535E+02  0.00000000000E+00 0. -1.
         -3    1    3    3    0  502 -0.30819957275E+03 -0.10928096294E+04  0.25379115615E+03  0.11634559784E+04  0.00000000000E+00 0.  1.
         11    1    5    5    0    0 -0.30366667681E+02 -0.53588097287E+01  0.70070722225E+01  0.31621992488E+02  0.00000000000E+00 0.  1.
        -11    1    5    5    0    0 -0.16716655968E+03 -0.12992001597E+02  0.32433534326E+03  0.36511212753E+03  0.00000000000E+00 0. -1.
          3    1    6    6  503    0  0.48518513730E+03  0.11287944913E+04  0.17195848606E+04  0.21134222754E+04  0.00000000000E+00 0. -1.
         -3    1    6    6    0  503  0.18462115732E+02  0.15503412399E+02  0.44968606277E+02  0.51023338422E+02  0.00000000000E+00 0.  1.
<mgrwt>
<rscale>  0 0.29333570E+04</rscale>
<asrwt>0</asrwt>
<pdfrwt beam="1">  1        2 0.10838857E+00 0.29333570E+04</pdfrwt>
<pdfrwt beam="2">  1       -1 0.46974229E+00 0.29333570E+04</pdfrwt>
<totfact> 0.94342574E-02</totfact>
</mgrwt>
</event>
<event>
12    6  0.1395358E-007  0.2196377E+04  0.7818608E-02  0.8519938E-01
          2   -1    0    0  501    0  0.00000000000E+00  0.00000000000E+00  0.22909879145E+04  0.22909879145E+04  0.00000000000E+00 0. -1.
         -1   -1    0    0    0  501 -0.00000000000E+00 -0.00000000000E+00 -0.52641832995E+03  0.52641832995E+03  0.00000000000E+00 0.  1.
         24    2    1    2    0    0 -0.25665152040E+03 -0.72666741297E+03  0.10941064828E+03  0.78247401795E+03  0.79870938550E+02 0.  0.
        254    2    1    2    0    0  0.25665152040E+03  0.72666741297E+03  0.16551589363E+04  0.20349322265E+04  0.89860031722E+03 0.  0.
         23    2    4    4    0    0  0.41513932797E+03  0.12964389891E+03  0.11462713906E+04  0.12293705221E+04  0.90915222115E+02 0.  0.
         23    2    4    4    0    0 -0.15848780757E+03  0.59702351405E+03  0.50888754574E+03  0.80556170442E+03  0.91693314589E+02 0.  0.
          4    1    3    3  502    0 -0.14573512328E+03 -0.34658337553E+03  0.86949151112E+02  0.38590013894E+03  0.00000000000E+00 0. -1.
         -3    1    3    3    0  502 -0.11091639712E+03 -0.38008403744E+03  0.22461497164E+02  0.39657387902E+03  0.00000000000E+00 0.  1.
         11    1    5    5    0    0  0.18575292312E+02  0.29595081528E+02  0.77311360807E+02  0.84840773482E+02  0.00000000000E+00 0. -1.
        -11    1    5    5    0    0  0.39656403566E+03  0.10004881739E+03  0.10689600298E+04  0.11445297486E+04  0.00000000000E+00 0.  1.
          1    1    6    6  503    0 -0.10272704919E+01  0.73063999305E+02  0.93306133059E+02  0.11851344964E+03  0.00000000000E+00 0. -1.
         -1    1    6    6    0  503 -0.15746053708E+03  0.52395951475E+03  0.41558141268E+03  0.68704825478E+03  0.00000000000E+00 0.  1.
<mgrwt>
<rscale>  0 0.21963770E+04</rscale>
<asrwt>0</asrwt>
<pdfrwt beam="1">  1        2 0.35245967E+00 0.21963770E+04</pdfrwt>
<pdfrwt beam="2">  1       -1 0.80987437E-01 0.21963770E+04</pdfrwt>
<totfact> 0.72526448E+00</totfact>
</mgrwt>
</event>
<event>
12    6  0.1395358E-007  0.1570610E+04  0.7818608E-02  0.8838809E-01
         -1   -1    0    0    0  501 -0.00000000000E+00  0.00000000000E+00  0.19690721603E+03  0.19690721603E+03  0.00000000000E+00 0.  1.
          2   -1    0    0  501    0  0.00000000000E+00 -0.00000000000E+00 -0.31319530196E+04  0.31319530196E+04  0.00000000000E+00 0. -1.
         24    2    1    2    0    0 -0.34985661907E+02  0.51076014690E+03 -0.13125780337E+04  0.14111507775E+04  0.79909311417E+02 0.  0.
        254    2    1    2    0    0  0.34985661907E+02 -0.51076014690E+03 -0.16224677699E+04  0.19177094582E+04  0.88493388305E+03 0.  0.
         23    2    4    4    0    0 -0.11843423663E+03 -0.12185852655E+03 -0.14396031763E+04  0.14523873158E+04  0.89974668499E+02 0.  0.
         23    2    4    4    0    0  0.15341989854E+03 -0.38890162035E+03 -0.18286459358E+03  0.46532214236E+03  0.91121353170E+02 0.  0.
          2    1    3    3  502    0 -0.19344945372E+02  0.27418021714E+03 -0.81206275501E+03  0.85731845685E+03  0.00000000000E+00 0. -1.
         -1    1    3    3    0  502 -0.15640716535E+02  0.23657992977E+03 -0.50051527869E+03  0.55383232064E+03  0.00000000000E+00 0.  1.
         11    1    5    5    0    0 -0.29483993253E+02 -0.87935688995E+02 -0.55752901347E+03  0.56519075728E+03  0.00000000000E+00 0. -1.
        -11    1    5    5    0    0 -0.88950243379E+02 -0.33922837559E+02 -0.88207416283E+03  0.88719655852E+03  0.00000000000E+00 0.  1.
          4    1    6    6  503    0  0.96858719390E+02 -0.26807486696E+03 -0.77674464361E+02  0.29543031028E+03  0.00000000000E+00 0. -1.
         -4    1    6    6    0  503  0.56561179149E+02 -0.12082675339E+03 -0.10519012922E+03  0.16989183208E+03  0.00000000000E+00 0.  1.
<mgrwt>
<rscale>  0 0.15706103E+04</rscale>
<asrwt>0</asrwt>
<pdfrwt beam="1">  1        2 0.48183892E+00 0.15706103E+04</pdfrwt>
<pdfrwt beam="2">  1       -1 0.30293418E-01 0.15706103E+04</pdfrwt>
<totfact> 0.15879700E+01</totfact>
</mgrwt>
</event>
<event>
12    6  0.1395358E-007  0.2776853E+04  0.7818608E-02  0.8310491E-01
         -1   -1    0    0    0  501 -0.00000000000E+00  0.00000000000E+00  0.74048582683E+03  0.74048582683E+03  0.00000000000E+00 0.  1.
          2   -1    0    0  501    0  0.00000000000E+00 -0.00000000000E+00 -0.26033295573E+04  0.26033295573E+04  0.00000000000E+00 0. -1.
         24    2    1    2    0    0  0.83715687150E+03 -0.72603830201E+03 -0.15072866036E+04  0.18724963148E+04  0.79789095375E+02 0.  0.
        254    2    1    2    0    0 -0.83715687150E+03  0.72603830201E+03 -0.35555712680E+03  0.14713190694E+04  0.90021980092E+03 0.  0.
         23    2    4    4    0    0 -0.10082993627E+04  0.51651666354E+03 -0.23109929499E+03  0.11598219376E+04  0.91230336268E+02 0.  0.
         23    2    4    4    0    0  0.17114249115E+03  0.20952163847E+03 -0.12445783181E+03  0.31149713181E+03  0.91387318380E+02 0.  0.
          4    1    3    3  502    0  0.46446417616E+03 -0.35012077761E+03 -0.78603363012E+03  0.97783454507E+03  0.00000000000E+00 0. -1.
         -3    1    3    3    0  502  0.37269269534E+03 -0.37591752440E+03 -0.72125297353E+03  0.89466176969E+03  0.00000000000E+00 0.  1.
         11    1    5    5    0    0 -0.38534487138E+03  0.24187659818E+03 -0.11379346360E+03  0.46898178110E+03  0.00000000000E+00 0.  1.
        -11    1    5    5    0    0 -0.62295449127E+03  0.27464006537E+03 -0.11730583139E+03  0.69084015646E+03  0.00000000000E+00 0. -1.
          3    1    6    6  503    0  0.55539814445E+02  0.13736797555E+03 -0.78520072087E+02  0.16769029016E+03  0.00000000000E+00 0. -1.
         -3    1    6    6    0  503  0.11560267671E+03  0.72153662917E+02 -0.45937759725E+02  0.14380684164E+03  0.00000000000E+00 0.  1.
<mgrwt>
<rscale>  0 0.27768534E+04</rscale>
<asrwt>0</asrwt>
<pdfrwt beam="1">  1        2 0.40051224E+00 0.27768534E+04</pdfrwt>
<pdfrwt beam="2">  1       -1 0.11392090E+00 0.27768534E+04</pdfrwt>
<totfact> 0.21074410E+00</totfact>
</mgrwt>
</event>
<event>
12    6  0.1395358E-007  0.1754562E+04  0.7818608E-02  0.8730843E-01
         -1   -1    0    0    0  501 -0.00000000000E+00  0.00000000000E+00  0.22746692702E+03  0.22746692702E+03  0.00000000000E+00 0.  1.
          2   -1    0    0  501    0  0.00000000000E+00 -0.00000000000E+00 -0.33834456377E+04  0.33834456377E+04  0.00000000000E+00 0. -1.
         24    2    1    2    0    0  0.47020250890E+03 -0.43977502072E+03 -0.11673596342E+04  0.13354652481E+04  0.79034455132E+02 0.  0.
        254    2    1    2    0    0 -0.47020250890E+03  0.43977502072E+03 -0.19886190764E+04  0.22754473166E+04  0.89920086249E+03 0.  0.
         23    2    4    4    0    0 -0.22379018064E+03 -0.15823328430E+03 -0.15260807459E+03  0.32670186519E+03  0.91241805536E+02 0.  0.
         23    2    4    4    0    0 -0.24641232826E+03  0.59800830502E+03 -0.18360110018E+04  0.19487454514E+04  0.91320682279E+02 0.  0.
          4    1    3    3  502    0  0.10965883737E+03 -0.64685404817E+02 -0.26094614223E+03  0.29034832763E+03  0.00000000000E+00 0. -1.
         -3    1    3    3    0  502  0.36054367153E+03 -0.37508961590E+03 -0.90641349197E+03  0.10451169205E+04  0.00000000000E+00 0.  1.
         11    1    5    5    0    0 -0.20612854116E+03 -0.16951265337E+03 -0.13378337377E+03  0.29853225325E+03  0.00000000000E+00 0. -1.
        -11    1    5    5    0    0 -0.17661639472E+02  0.11279369073E+02 -0.18824700819E+02  0.28169611933E+02  0.00000000000E+00 0.  1.
          4    1    6    6  503    0 -0.18817967780E+03  0.43910139169E+03 -0.14657982098E+04  0.15416828517E+04  0.00000000000E+00 0. -1.
         -4    1    6    6    0  503 -0.58232650466E+02  0.15890691332E+03 -0.37021279204E+03  0.40706259969E+03  0.00000000000E+00 0.  1.
<mgrwt>
<rscale>  0 0.17545620E+04</rscale>
<asrwt>0</asrwt>
<pdfrwt beam="1">  1        2 0.52053009E+00 0.17545620E+04</pdfrwt>
<pdfrwt beam="2">  1       -1 0.34994912E-01 0.17545620E+04</pdfrwt>
<totfact> 0.82563817E+00</totfact>
</mgrwt>
</event>
<event>
12    6  0.1395358E-007  0.1255586E+04  0.7818608E-02  0.9065546E-01
         -1   -1    0    0    0  501 -0.00000000000E+00  0.00000000000E+00  0.92022474267E+03  0.92022474267E+03  0.00000000000E+00 0.  1.
          2   -1    0    0  501    0  0.00000000000E+00 -0.00000000000E+00 -0.42829142127E+03  0.42829142127E+03  0.00000000000E+00 0. -1.
         24    2    1    2    0    0 -0.10538475988E+03 -0.18294263812E+03 -0.10541214944E+03  0.24941263967E+03  0.80752629184E+02 0.  0.
        254    2    1    2    0    0  0.10538475988E+03  0.18294263812E+03  0.59734547084E+03  0.10991035243E+04  0.89812749042E+03 0.  0.
         23    2    4    4    0    0  0.26427102126E+03  0.47611476723E+03  0.24075722875E+03  0.60262968186E+03  0.93134558671E+02 0.  0.
         23    2    4    4    0    0 -0.15888626138E+03 -0.29317212910E+03  0.35658824209E+03  0.49647384240E+03  0.90201776318E+02 0.  0.
          2    1    3    3  502    0 -0.42321934228E+02 -0.14679878052E+02 -0.33182475416E+02  0.55746942617E+02  0.00000000000E+00 0. -1.
         -1    1    3    3    0  502 -0.63062825654E+02 -0.16826276007E+03 -0.72229674024E+02  0.19366569706E+03  0.00000000000E+00 0.  1.
         11    1    5    5    0    0  0.11656205976E+03  0.12187916722E+03  0.74622565990E+02  0.18441738674E+03  0.00000000000E+00 0.  1.
        -11    1    5    5    0    0  0.14770896149E+03  0.35423560001E+03  0.16613466276E+03  0.41821229512E+03  0.00000000000E+00 0. -1.
          1    1    6    6  503    0 -0.73388932514E+02 -0.13205364724E+03  0.22719960140E+03  0.27284383819E+03  0.00000000000E+00 0. -1.
         -1    1    6    6    0  503 -0.85497328864E+02 -0.16111848186E+03  0.12938864070E+03  0.22363000421E+03  0.00000000000E+00 0.  1.
<mgrwt>
<rscale>  0 0.12555865E+04</rscale>
<asrwt>0</asrwt>
<pdfrwt beam="1">  1        2 0.65890988E-01 0.12555865E+04</pdfrwt>
<pdfrwt beam="2">  1       -1 0.14157304E+00 0.12555865E+04</pdfrwt>
<totfact> 0.33699653E+01</totfact>
</mgrwt>
</event>
<event>
12    6  0.1395358E-007  0.2100613E+04  0.7818608E-02  0.8560973E-01
         -1   -1    0    0    0  501 -0.00000000000E+00  0.00000000000E+00  0.81778631866E+03  0.81778631866E+03  0.00000000000E+00 0.  1.
          2   -1    0    0  501    0  0.00000000000E+00 -0.00000000000E+00 -0.13489385873E+04  0.13489385873E+04  0.00000000000E+00 0. -1.
         24    2    1    2    0    0  0.82113923346E+03  0.12696588980E+03 -0.42722691905E+03  0.93711165153E+03  0.72563277029E+02 0.  0.
        254    2    1    2    0    0 -0.82113923346E+03 -0.12696588980E+03 -0.10392534956E+03  0.12296132544E+04  0.90042117878E+03 0.  0.
         23    2    4    4    0    0 -0.92182095582E+03 -0.26804635392E+03  0.72015557456E+02  0.96712360832E+03  0.92407309344E+02 0.  0.
         23    2    4    4    0    0  0.10068172236E+03  0.14108046412E+03 -0.17594090702E+03  0.26248964607E+03  0.88910657169E+02 0.  0.
          2    1    3    3  502    0  0.67160121453E+03  0.13182693722E+03 -0.34775814499E+03  0.76769932925E+03  0.00000000000E+00 0. -1.
         -1    1    3    3    0  502  0.14953801894E+03 -0.48610474176E+01 -0.79468774059E+02  0.16941232228E+03  0.00000000000E+00 0.  1.
         11    1    5    5    0    0 -0.79439212881E+02 -0.34790684305E+01  0.23169951633E+02  0.82822334662E+02  0.00000000000E+00 0. -1.
        -11    1    5    5    0    0 -0.84238174294E+03 -0.26456728549E+03  0.48845605823E+02  0.88430127366E+03  0.00000000000E+00 0.  1.
          2    1    6    6  503    0  0.50412757150E+02  0.29553935362E+02 -0.10739007076E+03  0.12226000359E+03  0.00000000000E+00 0. -1.
         -2    1    6    6    0  503  0.50268965210E+02  0.11152652875E+03 -0.68550836258E+02  0.14022964248E+03  0.00000000000E+00 0.  1.
<mgrwt>
<rscale>  0 0.21006128E+04</rscale>
<asrwt>0</asrwt>
<pdfrwt beam="1">  1        2 0.20752901E+00 0.21006128E+04</pdfrwt>
<pdfrwt beam="2">  1       -1 0.12581328E+00 0.21006128E+04</pdfrwt>
<totfact> 0.89548388E+00</totfact>
</mgrwt>
</event>
<event>
12    6  0.1395358E-007  0.2573630E+04  0.7818608E-02  0.8377214E-01
          2   -1    0    0  501    0  0.00000000000E+00  0.00000000000E+00  0.28276105218E+04  0.28276105218E+04  0.00000000000E+00 0. -1.
         -1   -1    0    0    0  501 -0.00000000000E+00 -0.00000000000E+00 -0.58561576370E+03  0.58561576370E+03  0.00000000000E+00 0.  1.
         24    2    1    2    0    0 -0.51255493751E+03  0.92959100564E+03  0.14898985852E+04  0.18310022626E+04  0.76938220655E+02 0.  0.
        254    2    1    2    0    0  0.51255493751E+03 -0.92959100564E+03  0.75209617286E+03  0.15822240228E+04  0.90051774190E+03 0.  0.
         23    2    4    4    0    0  0.37758331599E+02  0.34065532879E+02 -0.14567758073E+03  0.17923539137E+03  0.91198771134E+02 0.  0.
         23    2    4    4    0    0  0.47479660591E+03 -0.96365653852E+03  0.89777375359E+03  0.14029886315E+04  0.91179198189E+02 0.  0.
          4    1    3    3  502    0 -0.35897343238E+03  0.66335524228E+03  0.11161393388E+04  0.13470965541E+04  0.00000000000E+00 0. -1.
         -3    1    3    3    0  502 -0.15358150514E+03  0.26623576336E+03  0.37375924646E+03  0.48390570851E+03  0.00000000000E+00 0.  1.
         11    1    5    5    0    0  0.46372865093E+02  0.17439994167E+02 -0.15168452697E+03  0.15957064810E+03  0.00000000000E+00 0.  1.
        -11    1    5    5    0    0 -0.86145334933E+01  0.16625538712E+02  0.60069462379E+01  0.19664743270E+02  0.00000000000E+00 0. -1.
          1    1    6    6  503    0  0.15713213829E+03 -0.22888995420E+03  0.22900166124E+03  0.35989287416E+03  0.00000000000E+00 0. -1.
         -1    1    6    6    0  503  0.31766446763E+03 -0.73476658432E+03  0.66877209235E+03  0.10430957573E+04  0.00000000000E+00 0.  1.
<mgrwt>
<rscale>  0 0.25736304E+04</rscale>
<asrwt>0</asrwt>
<pdfrwt beam="1">  1        2 0.43501699E+00 0.25736304E+04</pdfrwt>
<pdfrwt beam="2">  1       -1 0.90094735E-01 0.25736304E+04</pdfrwt>
<totfact> 0.27023772E+00</totfact>
</mgrwt>
</event>
<event>
12    6  0.1395358E-007  0.1378156E+04  0.7818608E-02  0.8969784E-01
          2   -1    0    0  501    0  0.00000000000E+00  0.00000000000E+00  0.46602183176E+03  0.46602183176E+03  0.00000000000E+00 0. -1.
         -3   -1    0    0    0  501 -0.00000000000E+00 -0.00000000000E+00 -0.10188969748E+04  0.10188969748E+04  0.00000000000E+00 0.  1.
         24    2    1    2    0    0  0.35395374155E+02 -0.24595972481E+03 -0.48351983304E+03  0.54886483281E+03  0.75578813237E+02 0.  0.
        254    2    1    2    0    0 -0.35395374155E+02  0.24595972481E+03 -0.69355310041E+02  0.93605397379E+03  0.89979879088E+03 0.  0.
         23    2    4    4    0    0  0.22670438898E+03  0.38603699842E+03  0.22418823028E+03  0.50880848512E+03  0.90588452919E+02 0.  0.
         23    2    4    4    0    0 -0.26209976313E+03 -0.14007727361E+03 -0.29354354032E+03  0.42724548866E+03  0.89738336861E+02 0.  0.
          4    1    3    3  502    0  0.55752675293E+02 -0.19028691763E+03 -0.34017513091E+03  0.39374686223E+03  0.00000000000E+00 0. -1.
         -3    1    3    3    0  502 -0.20357301138E+02 -0.55672807185E+02 -0.14334470213E+03  0.15511797058E+03  0.00000000000E+00 0.  1.
         11    1    5    5    0    0  0.25550117586E+02  0.81801505400E+02  0.11139005760E+02  0.86419744525E+02  0.00000000000E+00 0. -1.
        -11    1    5    5    0    0  0.20115427139E+03  0.30423549302E+03  0.21304922452E+03  0.42238874060E+03  0.00000000000E+00 0.  1.
          1    1    6    6  503    0 -0.11228087910E+03 -0.15212567569E+02 -0.84467621388E+02  0.14132656186E+03  0.00000000000E+00 0. -1.
         -1    1    6    6    0  503 -0.14981888403E+03 -0.12486470604E+03 -0.20907591894E+03  0.28591892681E+03  0.00000000000E+00 0.  1.
<mgrwt>
<rscale>  0 0.13781556E+04</rscale>
<asrwt>0</asrwt>
<pdfrwt beam="1">  1        2 0.71695668E-01 0.13781556E+04</pdfrwt>
<pdfrwt beam="2">  1       -3 0.15675338E+00 0.13781556E+04</pdfrwt>
<totfact> 0.11731504E+01</totfact>
</mgrwt>
</event>
<event>
12    6  0.1395358E-007  0.1693832E+04  0.7818608E-02  0.8764890E-01
          2   -1    0    0  501    0  0.00000000000E+00  0.00000000000E+00  0.17077971318E+04  0.17077971318E+04  0.00000000000E+00 0. -1.
         -1   -1    0    0    0  501 -0.00000000000E+00 -0.00000000000E+00 -0.41999547580E+03  0.41999547580E+03  0.00000000000E+00 0.  1.
         24    2    1    2    0    0  0.19168576826E+02 -0.59558175503E+03  0.60059657751E+03  0.84981723349E+03  0.79925090851E+02 0.  0.
        254    2    1    2    0    0 -0.19168576826E+02  0.59558175503E+03  0.68720507854E+03  0.12779753742E+04  0.89771107586E+03 0.  0.
         23    2    4    4    0    0  0.34116999191E+03  0.20459908741E+03  0.61058940160E+03  0.73482120320E+03  0.94260455033E+02 0.  0.
         23    2    4    4    0    0 -0.36033856874E+03  0.39098266762E+03  0.76615676935E+02  0.54315417095E+03  0.80219455054E+02 0.  0.
          2    1    3    3  502    0 -0.31351708296E+02 -0.24109582766E+03  0.24724297778E+03  0.34675527075E+03  0.00000000000E+00 0. -1.
         -1    1    3    3    0  502  0.50520285122E+02 -0.35448592738E+03  0.35335359973E+03  0.50306196274E+03  0.00000000000E+00 0.  1.
         11    1    5    5    0    0  0.31601661536E+03  0.21145805327E+03  0.58848890425E+03  0.70064270488E+03  0.00000000000E+00 0.  1.
        -11    1    5    5    0    0  0.25153376554E+02 -0.68589658585E+01  0.22100497351E+02  0.34178498327E+02  0.00000000000E+00 0. -1.
          3    1    6    6  503    0 -0.25882484266E+03  0.32939488814E+03  0.56022446469E+02  0.42264619485E+03  0.00000000000E+00 0. -1.
         -3    1    6    6    0  503 -0.10151372608E+03  0.61587779483E+02  0.20593230466E+02  0.12050797611E+03  0.00000000000E+00 0.  1.
<mgrwt>
<rscale>  0 0.16938324E+04</rscale>
<asrwt>0</asrwt>
<pdfrwt beam="1">  1        2 0.26273802E+00 0.16938324E+04</pdfrwt>
<pdfrwt beam="2">  1       -1 0.64614689E-01 0.16938324E+04</pdfrwt>
<totfact> 0.25572172E+01</totfact>
</mgrwt>
</event>
<event>
12    6  0.1395358E-007  0.2282944E+04  0.7818608E-02  0.8484677E-01
          2   -1    0    0  501    0  0.00000000000E+00  0.00000000000E+00  0.15233602093E+04  0.15233602093E+04  0.00000000000E+00 0. -1.
         -3   -1    0    0    0  501 -0.00000000000E+00 -0.00000000000E+00 -0.85531850964E+03  0.85531850964E+03  0.00000000000E+00 0.  1.
         24    2    1    2    0    0 -0.47504151660E+03 -0.31373810787E+02  0.11523526917E+04  0.12494637421E+04  0.81204423326E+02 0.  0.
        254    2    1    2    0    0  0.47504151660E+03  0.31373810787E+02 -0.48431099198E+03  0.11292149769E+04  0.90217546437E+03 0.  0.
         23    2    4    4    0    0  0.48031117546E+03  0.33820273581E+02 -0.72069999336E+03  0.87156154651E+03  0.91479028997E+02 0.  0.
         23    2    4    4    0    0 -0.52696588599E+01 -0.24464627944E+01  0.23638900138E+03  0.25765343035E+03  0.10233169457E+03 0.  0.
          4    1    3    3  502    0 -0.37235566020E+03 -0.63263979189E+00  0.95221253430E+03  0.10224274294E+04  0.00000000000E+00 0. -1.
         -1    1    3    3    0  502 -0.10268585640E+03 -0.30741170995E+02  0.20014015736E+03  0.22703631270E+03  0.00000000000E+00 0.  1.
         11    1    5    5    0    0  0.46613803505E+01 -0.11206118648E+02 -0.22019964090E+02  0.25143277043E+02  0.00000000000E+00 0. -1.
        -11    1    5    5    0    0  0.47564979511E+03  0.45026392229E+02 -0.69868002927E+03  0.84641826946E+03  0.00000000000E+00 0.  1.
          3    1    6    6  503    0  0.17156090324E+02  0.15436685756E+02  0.39049551625E+01  0.23406652412E+02  0.00000000000E+00 0. -1.
         -3    1    6    6    0  503 -0.22425749184E+02 -0.17883148550E+02  0.23248404622E+03  0.23424677794E+03  0.00000000000E+00 0.  1.
<mgrwt>
<rscale>  0 0.22829439E+04</rscale>
<asrwt>0</asrwt>
<pdfrwt beam="1">  1        2 0.23436311E+00 0.22829439E+04</pdfrwt>
<pdfrwt beam="2">  1       -3 0.13158746E+00 0.22829439E+04</pdfrwt>
<totfact> 0.31945150E+00</totfact>
</mgrwt>
</event>
<event>
12    6  0.1395358E-007  0.1449290E+04  0.7818608E-02  0.8918893E-01
         -1   -1    0    0    0  501 -0.00000000000E+00  0.00000000000E+00  0.46751483995E+03  0.46751483995E+03  0.00000000000E+00 0.  1.
          2   -1    0    0  501    0  0.00000000000E+00 -0.00000000000E+00 -0.11231945674E+04  0.11231945674E+04  0.00000000000E+00 0. -1.
         24    2    1    2    0    0 -0.28588686623E+02  0.42751157595E+03 -0.31645298778E+03  0.53837240068E+03  0.78223319829E+02 0.  0.
        254    2    1    2    0    0  0.28588686623E+02 -0.42751157595E+03 -0.33922673964E+03  0.10523370066E+04  0.89930803069E+03 0.  0.
         23    2    4    4    0    0 -0.85514503180E+02 -0.62109752188E+03  0.16133864864E+01  0.63373356417E+03  0.92416261544E+02 0.  0.
         23    2    4    4    0    0  0.11410318980E+03  0.19358594593E+03 -0.34084012613E+03  0.41860344247E+03  0.92529963163E+02 0.  0.
          2    1    3    3  502    0 -0.14509213451E+02  0.30332488534E+03 -0.26561959207E+03  0.40344797810E+03  0.00000000000E+00 0. -1.
         -3    1    3    3    0  502 -0.14079473172E+02  0.12418669061E+03 -0.50833395715E+02  0.13492442259E+03  0.00000000000E+00 0.  1.
         11    1    5    5    0    0 -0.95384920557E+02 -0.38476083295E+03  0.16227287893E+02  0.39673984739E+03  0.00000000000E+00 0. -1.
        -11    1    5    5    0    0  0.98704173770E+01 -0.23633668894E+03 -0.14613901406E+02  0.23699371678E+03  0.00000000000E+00 0.  1.
          3    1    6    6  503    0  0.24806822099E+02 -0.48171736866E+01 -0.30821964690E+02  0.39856957891E+02  0.00000000000E+00 0. -1.
         -3    1    6    6    0  503  0.89296367704E+02  0.19840311961E+03 -0.31001816144E+03  0.37874648458E+03  0.00000000000E+00 0.  1.
<mgrwt>
<rscale>  0 0.14492897E+04</rscale>
<asrwt>0</asrwt>
<pdfrwt beam="1">  1        2 0.17279916E+00 0.14492897E+04</pdfrwt>
<pdfrwt beam="2">  1       -1 0.71925360E-01 0.14492897E+04</pdfrwt>
<totfact> 0.45494425E+01</totfact>
</mgrwt>
</event>
<event>
12    6  0.1395358E-007  0.3573976E+04  0.7818608E-02  0.8096479E-01
          2   -1    0    0  501    0  0.00000000000E+00  0.00000000000E+00  0.27509191075E+04  0.27509191075E+04  0.00000000000E+00 0. -1.
         -1   -1    0    0    0  501 -0.00000000000E+00 -0.00000000000E+00 -0.11608217351E+04  0.11608217351E+04  0.00000000000E+00 0.  1.
         24    2    1    2    0    0 -0.15038620663E+04 -0.60406300584E+03  0.29378456165E+03  0.16489963929E+04  0.79915616131E+02 0.  0.
        254    2    1    2    0    0  0.15038620663E+04  0.60406300584E+03  0.12963128107E+04  0.22627444497E+04  0.90171631444E+03 0.  0.
         23    2    4    4    0    0  0.14921563498E+04  0.48383743353E+03  0.13787327236E+04  0.20903575011E+04  0.89784883769E+02 0.  0.
         23    2    4    4    0    0  0.11705716525E+02  0.12022557231E+03 -0.82419912828E+02  0.17238694851E+03  0.91285299741E+02 0.  0.
          2    1    3    3  502    0 -0.29210936812E+03 -0.13486717394E+03  0.86330435465E+02  0.33312157186E+03  0.00000000000E+00 0. -1.
         -1    1    3    3    0  502 -0.12117526982E+04 -0.46919583190E+03  0.20745412618E+03  0.13158748210E+04  0.00000000000E+00 0.  1.
         11    1    5    5    0    0  0.38788771951E+03  0.86746216859E+02  0.33297360141E+03  0.51851056722E+03  0.00000000000E+00 0. -1.
        -11    1    5    5    0    0  0.11042686302E+04  0.39709121667E+03  0.10457591222E+04  0.15718469339E+04  0.00000000000E+00 0.  1.
          4    1    6    6  503    0 -0.28362755646E+01 -0.82239412690E+01  0.10166706519E+02  0.13380567646E+02  0.00000000000E+00 0. -1.
         -4    1    6    6    0  503  0.14541992090E+02  0.12844951358E+03 -0.92586619347E+02  0.15900638086E+03  0.00000000000E+00 0.  1.
<mgrwt>
<rscale>  0 0.35739763E+04</rscale>
<asrwt>0</asrwt>
<pdfrwt beam="1">  1        2 0.42321832E+00 0.35739763E+04</pdfrwt>
<pdfrwt beam="2">  1       -1 0.17858796E+00 0.35739763E+04</pdfrwt>
<totfact> 0.48916205E-01</totfact>
</mgrwt>
</event>
<event>
12    6  0.1395358E-007  0.1835573E+04  0.7818608E-02  0.8687608E-01
          2   -1    0    0  501    0  0.00000000000E+00  0.00000000000E+00  0.15660997921E+04  0.15660997921E+04  0.00000000000E+00 0. -1.
         -1   -1    0    0    0  501 -0.00000000000E+00 -0.00000000000E+00 -0.53785349284E+03  0.53785349284E+03  0.00000000000E+00 0.  1.
         24    2    1    2    0    0 -0.59138585029E+03 -0.11981688001E+03  0.15892881255E+01  0.60851991976E+03  0.78744258523E+02 0.  0.
        254    2    1    2    0    0  0.59138585029E+03  0.11981688001E+03  0.10266570111E+04  0.14954333652E+04  0.90454575478E+03 0.  0.
         23    2    4    4    0    0  0.56226367201E+03  0.14613182678E+03  0.11761719637E+04  0.13150960637E+04  0.92748158068E+02 0.  0.
         23    2    4    4    0    0  0.29122178288E+02 -0.26314946768E+02 -0.14951495261E+03  0.18033730147E+03  0.92877572939E+02 0.  0.
          4    1    3    3  502    0 -0.40744878845E+02 -0.21128338963E+02  0.16862193425E+02  0.48896681140E+02  0.00000000000E+00 0. -1.
         -3    1    3    3    0  502 -0.55064097145E+03 -0.98688541050E+02 -0.15272905299E+02  0.55962323862E+03  0.00000000000E+00 0.  1.
         11    1    5    5    0    0  0.54920598684E+03  0.12556745969E+03  0.11379133695E+04  0.12697406190E+04  0.00000000000E+00 0. -1.
        -11    1    5    5    0    0  0.13057685170E+02  0.20564367090E+02  0.38258594177E+02  0.45355444703E+02  0.00000000000E+00 0.  1.
          1    1    6    6  503    0 -0.18405961646E+02 -0.44632583511E+02 -0.56746255781E+02  0.74504929234E+02  0.00000000000E+00 0. -1.
         -1    1    6    6    0  503  0.47528139933E+02  0.18317636743E+02 -0.92768696829E+02  0.10583237223E+03  0.00000000000E+00 0.  1.
<mgrwt>
<rscale>  0 0.18355732E+04</rscale>
<asrwt>0</asrwt>
<pdfrwt beam="1">  1        2 0.24093843E+00 0.18355732E+04</pdfrwt>
<pdfrwt beam="2">  1       -1 0.82746692E-01 0.18355732E+04</pdfrwt>
<totfact> 0.18131433E+01</totfact>
</mgrwt>
</event>
<event>
12    6  0.1395358E-007  0.1902243E+04  0.7818608E-02  0.8653741E-01
          2   -1    0    0  501    0  0.00000000000E+00  0.00000000000E+00  0.89760763175E+03  0.89760763175E+03  0.00000000000E+00 0. -1.
         -1   -1    0    0    0  501 -0.00000000000E+00 -0.00000000000E+00 -0.10078259183E+04  0.10078259183E+04  0.00000000000E+00 0.  1.
         24    2    1    2    0    0 -0.28759056912E+03  0.51511791115E+03  0.39102562373E+03  0.71203024607E+03  0.77661026643E+02 0.  0.
        254    2    1    2    0    0  0.28759056912E+03 -0.51511791115E+03 -0.50124391032E+03  0.11934033040E+04  0.90824621692E+03 0.  0.
         23    2    4    4    0    0 -0.97411103962E+02 -0.52994758365E+03  0.10056145967E+02  0.54706533543E+03  0.94053126293E+02 0.  0.
         23    2    4    4    0    0  0.38500167309E+03  0.14829672496E+02 -0.51130005629E+03  0.64633796858E+03  0.88762687012E+02 0.  0.
          2    1    3    3  502    0 -0.19411955481E+02  0.92283949481E+02  0.58978286047E+02  0.11122764752E+03  0.00000000000E+00 0. -1.
         -1    1    3    3    0  502 -0.26817861364E+03  0.42283396167E+03  0.33204733769E+03  0.60080259855E+03  0.00000000000E+00 0.  1.
         11    1    5    5    0    0 -0.31029378113E+02 -0.11473578801E+03  0.40275950586E+02  0.12549611768E+03  0.00000000000E+00 0.  1.
        -11    1    5    5    0    0 -0.66381725848E+02 -0.41521179564E+03 -0.30219804619E+02  0.42156921775E+03  0.00000000000E+00 0. -1.
          4    1    6    6  503    0  0.20770120771E+03  0.27474690271E+02 -0.34070559309E+03  0.39996868809E+03  0.00000000000E+00 0. -1.
         -4    1    6    6    0  503  0.17730046538E+03 -0.12645017774E+02 -0.17059446321E+03  0.24636928050E+03  0.00000000000E+00 0.  1.
<mgrwt>
<rscale>  0 0.19022431E+04</rscale>
<asrwt>0</asrwt>
<pdfrwt beam="1">  1        2 0.13809348E+00 0.19022431E+04</pdfrwt>
<pdfrwt beam="2">  1       -1 0.15505014E+00 0.19022431E+04</pdfrwt>
<totfact> 0.10027245E+01</totfact>
</mgrwt>
</event>
<event>
12    6  0.1395358E-007  0.1726973E+04  0.7818608E-02  0.8746128E-01
         -1   -1    0    0    0  501 -0.00000000000E+00  0.00000000000E+00  0.11458108036E+04  0.11458108036E+04  0.00000000000E+00 0.  1.
          2   -1    0    0  501    0  0.00000000000E+00 -0.00000000000E+00 -0.65072628267E+03  0.65072628267E+03  0.00000000000E+00 0. -1.
         24    2    1    2    0    0 -0.25683093634E+03  0.20669106357E+03 -0.37235639124E+03  0.50414541983E+03  0.82643793574E+02 0.  0.
        254    2    1    2    0    0  0.25683093634E+03 -0.20669106357E+03  0.86744091213E+03  0.12923916664E+04  0.89952162716E+03 0.  0.
         23    2    4    4    0    0  0.28112107978E+03  0.15518922750E+03  0.85552540238E+03  0.91846747945E+03  0.92444788157E+02 0.  0.
         23    2    4    4    0    0 -0.24290143440E+02 -0.36188029107E+03  0.11915509753E+02  0.37392418696E+03  0.90166302380E+02 0.  0.
          4    1    3    3  502    0 -0.15544774543E+03  0.17125243427E+03 -0.23416114638E+03  0.32912435382E+03  0.00000000000E+00 0. -1.
         -3    1    3    3    0  502 -0.10138319091E+03  0.35438629304E+02 -0.13819524486E+03  0.17502106601E+03  0.00000000000E+00 0.  1.
         11    1    5    5    0    0  0.28768668106E+03  0.15415712601E+03  0.82477935256E+03  0.88701128875E+03  0.00000000000E+00 0. -1.
        -11    1    5    5    0    0 -0.65656012815E+01  0.10321014834E+01  0.30746049819E+02  0.31456190696E+02  0.00000000000E+00 0.  1.
          4    1    6    6  503    0 -0.32399487759E+01 -0.33629289447E+03  0.27257208328E+02  0.33741126767E+03  0.00000000000E+00 0.  1.
         -4    1    6    6    0  503 -0.21050194664E+02 -0.25587396596E+02 -0.15341698575E+02  0.36512919290E+02  0.00000000000E+00 0. -1.
<mgrwt>
<rscale>  0 0.17269733E+04</rscale>
<asrwt>0</asrwt>
<pdfrwt beam="1">  1        2 0.10011174E+00 0.17269733E+04</pdfrwt>
<pdfrwt beam="2">  1       -1 0.17627859E+00 0.17269733E+04</pdfrwt>
<totfact> 0.10780016E+01</totfact>
</mgrwt>
</event>
<event>
12    6  0.1395358E-007  0.3557845E+04  0.7818608E-02  0.8100217E-01
         -1   -1    0    0    0  501 -0.00000000000E+00  0.00000000000E+00  0.18561102069E+04  0.18561102069E+04  0.00000000000E+00 0.  1.
          2   -1    0    0  501    0  0.00000000000E+00 -0.00000000000E+00 -0.17049449621E+04  0.17049449621E+04  0.00000000000E+00 0. -1.
         24    2    1    2    0    0 -0.13579577186E+04 -0.88252955708E+03  0.44727067951E+03  0.16820576638E+04  0.79745463773E+02 0.  0.
        254    2    1    2    0    0  0.13579577186E+04  0.88252955708E+03 -0.29610543473E+03  0.18789975051E+04  0.90556369809E+03 0.  0.
         23    2    4    4    0    0  0.39034045972E+03  0.20009258350E+03  0.31068022889E+03  0.54524583320E+03  0.91477306120E+02 0.  0.
         23    2    4    4    0    0  0.96761725886E+03  0.68243697358E+03 -0.60678566362E+03  0.13337516719E+04  0.93280749809E+02 0.  0.
          4    1    3    3  502    0 -0.15924042679E+03 -0.80700793194E+02  0.32785775521E+02  0.18150768199E+03  0.00000000000E+00 0. -1.
         -3    1    3    3    0  502 -0.11987172918E+04 -0.80182876389E+03  0.41448490399E+03  0.15005499818E+04  0.00000000000E+00 0.  1.
         11    1    5    5    0    0  0.96613468403E+02  0.94519944199E+02  0.10897500550E+03  0.17361950914E+03  0.00000000000E+00 0. -1.
        -11    1    5    5    0    0  0.29372699132E+03  0.10557263930E+03  0.20170522338E+03  0.37162632406E+03  0.00000000000E+00 0.  1.
          2    1    6    6  503    0  0.90806422378E+03  0.61936596963E+03 -0.54238367961E+03  0.12257140347E+04  0.00000000000E+00 0. -1.
         -2    1    6    6    0  503  0.59553035086E+02  0.63071003958E+02 -0.64401984007E+02  0.10803763729E+03  0.00000000000E+00 0.  1.
<mgrwt>
<rscale>  0 0.35578453E+04</rscale>
<asrwt>0</asrwt>
<pdfrwt beam="1">  1        2 0.26229923E+00 0.35578453E+04</pdfrwt>
<pdfrwt beam="2">  1       -1 0.28555541E+00 0.35578453E+04</pdfrwt>
<totfact> 0.37159545E-01</totfact>
</mgrwt>
</event>
<event>
12    6  0.1395358E-007  0.1483860E+04  0.7818608E-02  0.8895257E-01
         -1   -1    0    0    0  501 -0.00000000000E+00  0.00000000000E+00  0.22553789270E+03  0.22553789270E+03  0.00000000000E+00 0.  1.
          2   -1    0    0  501    0  0.00000000000E+00 -0.00000000000E+00 -0.24406550190E+04  0.24406550190E+04  0.00000000000E+00 0. -1.
         24    2    1    2    0    0  0.24545467845E+03  0.34414183728E+03 -0.10502781368E+04  0.11349743220E+04  0.80005896587E+02 0.  0.
        254    2    1    2    0    0 -0.24545467845E+03 -0.34414183728E+03 -0.11648389895E+04  0.15312185897E+04  0.89949924667E+03 0.  0.
         23    2    4    4    0    0 -0.12385836336E+03  0.12251597566E+03 -0.99134994043E+03  0.10108648012E+04  0.93391023999E+02 0.  0.
         23    2    4    4    0    0 -0.12159631509E+03 -0.46665781294E+03 -0.17348904904E+03  0.52035378856E+03  0.90080169327E+02 0.  0.
          2    1    3    3  502    0  0.74880677438E+02  0.95821898101E+02 -0.40444084000E+03  0.42232848006E+03  0.00000000000E+00 0. -1.
         -1    1    3    3    0  502  0.17057400102E+03  0.24831993918E+03 -0.64583729682E+03  0.71264584190E+03  0.00000000000E+00 0.  1.
         11    1    5    5    0    0 -0.43833454052E+02  0.31893457276E+02 -0.56827815769E+03  0.57085780087E+03  0.00000000000E+00 0. -1.
        -11    1    5    5    0    0 -0.80024909311E+02  0.90622518383E+02 -0.42307178274E+03  0.44000700028E+03  0.00000000000E+00 0.  1.
          3    1    6    6  503    0 -0.78652890598E+02 -0.13590276616E+03 -0.52944627077E+02  0.16570749104E+03  0.00000000000E+00 0. -1.
         -3    1    6    6    0  503 -0.42943424494E+02 -0.33075504678E+03 -0.12054442196E+03  0.35464629752E+03  0.00000000000E+00 0.  1.
<mgrwt>
<rscale>  0 0.14838601E+04</rscale>
<asrwt>0</asrwt>
<pdfrwt beam="1">  1        2 0.37548540E+00 0.14838601E+04</pdfrwt>
<pdfrwt beam="2">  1       -1 0.34698136E-01 0.14838601E+04</pdfrwt>
<totfact> 0.32793053E+01</totfact>
</mgrwt>
</event>
<event>
12    6  0.1395358E-007  0.1126712E+04  0.7818608E-02  0.9179541E-01
          2   -1    0    0  501    0  0.00000000000E+00  0.00000000000E+00  0.72975681885E+03  0.72975681885E+03  0.00000000000E+00 0. -1.
         -1   -1    0    0    0  501 -0.00000000000E+00 -0.00000000000E+00 -0.43489792461E+03  0.43489792461E+03  0.00000000000E+00 0.  1.
         24    2    1    2    0    0  0.92436060908E+02 -0.15550946925E+03 -0.30025137936E+02  0.19011815475E+03  0.50157586409E+02 0.  0.
        254    2    1    2    0    0 -0.92436060908E+02  0.15550946925E+03  0.32488403217E+03  0.97453658871E+03  0.90080203596E+03 0.  0.
         23    2    4    4    0    0  0.31781594365E+03 -0.17996287269E+03  0.16622997334E+03  0.41385259932E+03  0.10123221000E+03 0.  0.
         23    2    4    4    0    0 -0.41025200456E+03  0.33547234194E+03  0.15865405883E+03  0.56068398938E+03  0.91362060601E+02 0.  0.
          2    1    3    3  502    0  0.64507493850E+02 -0.60707687333E+02 -0.86466907214E+01  0.89002277075E+02  0.00000000000E+00 0. -1.
         -1    1    3    3    0  502  0.27928567059E+02 -0.94801781913E+02 -0.21378447214E+02  0.10111587767E+03  0.00000000000E+00 0.  1.
         11    1    5    5    0    0  0.19962471303E+03 -0.11664761928E+03  0.50329874218E+02  0.23662161646E+03  0.00000000000E+00 0. -1.
        -11    1    5    5    0    0  0.11819123062E+03 -0.63315253416E+02  0.11590009913E+03  0.17723098287E+03  0.00000000000E+00 0.  1.
          1    1    6    6  503    0 -0.26198347093E+03  0.26373679046E+03  0.91702025760E+02  0.38288600812E+03  0.00000000000E+00 0. -1.
         -1    1    6    6    0  503 -0.14826853363E+03  0.71735551476E+02  0.66952033070E+02  0.17779798126E+03  0.00000000000E+00 0.  1.
<mgrwt>
<rscale>  0 0.11267115E+04</rscale>
<asrwt>0</asrwt>
<pdfrwt beam="1">  1        2 0.11227028E+00 0.11267115E+04</pdfrwt>
<pdfrwt beam="2">  1       -1 0.66907373E-01 0.11267115E+04</pdfrwt>
<totfact> 0.99554604E+01</totfact>
</mgrwt>
</event>
<event>
12    6  0.1395358E-007  0.2942184E+04  0.7818608E-02  0.8260436E-01
         -1   -1    0    0    0  501 -0.00000000000E+00  0.00000000000E+00  0.82560721778E+03  0.82560721778E+03  0.00000000000E+00 0.  1.
          2   -1    0    0  501    0  0.00000000000E+00 -0.00000000000E+00 -0.26212366149E+04  0.26212366149E+04  0.00000000000E+00 0. -1.
         24    2    1    2    0    0 -0.84578822054E+03  0.98750473454E+03 -0.47790805127E+03  0.13874881865E+04  0.78765776122E+02 0.  0.
        254    2    1    2    0    0  0.84578822054E+03 -0.98750473454E+03 -0.13177213459E+04  0.20593556462E+04  0.90223767233E+03 0.  0.
         23    2    4    4    0    0 -0.10613400416E+03 -0.17875963429E+03  0.13536500098E+02  0.23155135380E+03  0.10106116425E+03 0.  0.
         23    2    4    4    0    0  0.95192222469E+03 -0.80874510024E+03 -0.13312578459E+04  0.18278042924E+04  0.91632525821E+02 0.  0.
          4    1    3    3  502    0 -0.49657148169E+03  0.63820331163E+03 -0.30088274548E+03  0.86279611145E+03  0.00000000000E+00 0. -1.
         -3    1    3    3    0  502 -0.34921673885E+03  0.34930142290E+03 -0.17702530579E+03  0.52469207505E+03  0.00000000000E+00 0.  1.
         11    1    5    5    0    0 -0.23460426579E+01  0.12946232811E+02  0.86624338156E+00  0.13185569299E+02  0.00000000000E+00 0. -1.
        -11    1    5    5    0    0 -0.10378796150E+03 -0.19170586710E+03  0.12670256716E+02  0.21836578450E+03  0.00000000000E+00 0.  1.
          3    1    6    6  503    0  0.53753518871E+03 -0.46163057146E+03 -0.82070399581E+03  0.10842517753E+04  0.00000000000E+00 0. -1.
         -3    1    6    6    0  503  0.41438703599E+03 -0.34711452878E+03 -0.51055385014E+03  0.74355251703E+03  0.00000000000E+00 0.  1.
<mgrwt>
<rscale>  0 0.29421841E+04</rscale>
<asrwt>0</asrwt>
<pdfrwt beam="1">  1        2 0.40326717E+00 0.29421841E+04</pdfrwt>
<pdfrwt beam="2">  1       -1 0.12701650E+00 0.29421841E+04</pdfrwt>
<totfact> 0.15536520E+00</totfact>
</mgrwt>
</event>
<event>
12    6  0.1395358E-007  0.3427176E+04  0.7818608E-02  0.8131269E-01
         -1   -1    0    0    0  501 -0.00000000000E+00  0.00000000000E+00  0.13535772466E+04  0.13535772466E+04  0.00000000000E+00 0.  1.
          2   -1    0    0  501    0  0.00000000000E+00 -0.00000000000E+00 -0.21693504688E+04  0.21693504688E+04  0.00000000000E+00 0. -1.
         24    2    1    2    0    0 -0.12944476227E+04 -0.71959254612E+03  0.22758357297E+03  0.15005097726E+04  0.79543789905E+02 0.  0.
        254    2    1    2    0    0  0.12944476227E+04  0.71959254612E+03 -0.10433567952E+04  0.20224179428E+04  0.89898434518E+03 0.  0.
         23    2    4    4    0    0  0.13056629099E+04  0.48211430316E+03 -0.61621142105E+03  0.15248664912E+04  0.91167235705E+02 0.  0.
         23    2    4    4    0    0 -0.11215287191E+02  0.23747824297E+03 -0.42714537412E+03  0.49755145161E+03  0.92642203216E+02 0.  0.
          2    1    3    3  502    0 -0.34890671920E+03 -0.16051809799E+03  0.39815630875E+02  0.38611817226E+03  0.00000000000E+00 0. -1.
         -1    1    3    3    0  502 -0.94554090351E+03 -0.55907444813E+03  0.18776794210E+03  0.11143916003E+04  0.00000000000E+00 0.  1.
         11    1    5    5    0    0  0.69612735080E+03  0.25241305624E+03 -0.27824004641E+03  0.79102665121E+03  0.00000000000E+00 0.  1.
        -11    1    5    5    0    0  0.60953555910E+03  0.22970124692E+03 -0.33797137465E+03  0.73383983997E+03  0.00000000000E+00 0. -1.
          4    1    6    6  503    0  0.10201172777E+02  0.66082206884E+01 -0.73099422060E+00  0.12176487968E+02  0.00000000000E+00 0.  1.
         -4    1    6    6    0  503 -0.21416459967E+02  0.23087002228E+03 -0.42641437990E+03  0.48537496364E+03  0.00000000000E+00 0. -1.
<mgrwt>
<rscale>  0 0.34271758E+04</rscale>
<asrwt>0</asrwt>
<pdfrwt beam="1">  1        2 0.33374622E+00 0.34271758E+04</pdfrwt>
<pdfrwt beam="2">  1       -1 0.20824266E+00 0.34271758E+04</pdfrwt>
<totfact> 0.66734183E-01</totfact>
</mgrwt>
</event>
<event>
12    6  0.1395358E-007  0.1609080E+04  0.7818608E-02  0.8814989E-01
          2   -1    0    0  501    0  0.00000000000E+00  0.00000000000E+00  0.98770908579E+03  0.98770908579E+03  0.00000000000E+00 0. -1.
         -1   -1    0    0    0  501 -0.00000000000E+00 -0.00000000000E+00 -0.65533945446E+03  0.65533945446E+03  0.00000000000E+00 0.  1.
         24    2    1    2    0    0 -0.87852456725E+02  0.53672643157E+03  0.55111760912E+02  0.55306111232E+03  0.83940283967E+02 0.  0.
        254    2    1    2    0    0  0.87852456725E+02 -0.53672643157E+03  0.27725787042E+03  0.10899874279E+04  0.90299908630E+03 0.  0.
         23    2    4    4    0    0 -0.36948433737E+03 -0.35477269622E+03  0.57168450682E+01  0.52043927922E+03  0.91880463064E+02 0.  0.
         23    2    4    4    0    0  0.45733679409E+03 -0.18195373535E+03  0.27154102535E+03  0.56954814872E+03  0.91577618556E+02 0.  0.
          2    1    3    3  502    0 -0.34961228596E+02  0.42725446717E+03  0.45908976080E+02  0.43113373946E+03  0.00000000000E+00 0. -1.
         -1    1    3    3    0  502 -0.52891228129E+02  0.10947196440E+03  0.92027848320E+01  0.12192737286E+03  0.00000000000E+00 0.  1.
         11    1    5    5    0    0 -0.23433197972E+03 -0.23545177486E+03  0.46968944351E+02  0.33549231994E+03  0.00000000000E+00 0.  1.
        -11    1    5    5    0    0 -0.13515235765E+03 -0.11932092137E+03 -0.41252099282E+02  0.18494695928E+03  0.00000000000E+00 0. -1.
          1    1    6    6  503    0  0.71397378863E+01 -0.10403652076E+02 -0.55369165226E+01  0.13779306157E+02  0.00000000000E+00 0. -1.
         -1    1    6    6    0  503  0.45019705621E+03 -0.17155008327E+03  0.27707794187E+03  0.55576884256E+03  0.00000000000E+00 0.  1.
<mgrwt>
<rscale>  0 0.16090802E+04</rscale>
<asrwt>0</asrwt>
<pdfrwt beam="1">  1        2 0.15195525E+00 0.16090802E+04</pdfrwt>
<pdfrwt beam="2">  1       -1 0.10082145E+00 0.16090802E+04</pdfrwt>
<totfact> 0.26240828E+01</totfact>
</mgrwt>
</event>
<event>
12    6  0.1395358E-007  0.1280233E+04  0.7818608E-02  0.9045389E-01
          2   -1    0    0  501    0  0.00000000000E+00  0.00000000000E+00  0.20213100929E+04  0.20213100929E+04  0.00000000000E+00 0. -1.
         -1   -1    0    0    0  501 -0.00000000000E+00 -0.00000000000E+00 -0.20271469109E+03  0.20271469109E+03  0.00000000000E+00 0.  1.
         24    2    1    2    0    0  0.13685162100E+03  0.27198163657E+03  0.31886826501E+03  0.44820960179E+03  0.80700061367E+02 0.  0.
        254    2    1    2    0    0 -0.13685162100E+03 -0.27198163657E+03  0.14997271368E+04  0.17758151822E+04  0.90090826372E+03 0.  0.
         23    2    4    4    0    0  0.87980391355E+02 -0.16503283602E+03 -0.40283160890E+02  0.21288616946E+03  0.93388446113E+02 0.  0.
         23    2    4    4    0    0 -0.22483201236E+03 -0.10694880056E+03  0.15400102977E+04  0.15629290127E+04  0.95540055169E+02 0.  0.
          4    1    3    3  502    0  0.75175495734E+02  0.10286126964E+03  0.18157565132E+03  0.22181414090E+03  0.00000000000E+00 0. -1.
         -3    1    3    3    0  502  0.61676125269E+02  0.16912036693E+03  0.13729261369E+03  0.22639546089E+03  0.00000000000E+00 0.  1.
         11    1    5    5    0    0  0.49990756970E+02 -0.42783473848E+02  0.23488148151E+02  0.69865546018E+02  0.00000000000E+00 0.  1.
        -11    1    5    5    0    0  0.37989634385E+02 -0.12224936217E+03 -0.63771309041E+02  0.14302062344E+03  0.00000000000E+00 0. -1.
          3    1    6    6  503    0 -0.16805598978E+03 -0.12055639679E+03  0.12642325164E+04  0.12810388425E+04  0.00000000000E+00 0. -1.
         -3    1    6    6    0  503 -0.56776022574E+02  0.13607596232E+02  0.27577778130E+03  0.28189017023E+03  0.00000000000E+00 0.  1.
<mgrwt>
<rscale>  0 0.12802332E+04</rscale>
<asrwt>0</asrwt>
<pdfrwt beam="1">  1        2 0.31097077E+00 0.12802332E+04</pdfrwt>
<pdfrwt beam="2">  1       -1 0.31186877E-01 0.12802332E+04</pdfrwt>
<totfact> 0.69339784E+01</totfact>
</mgrwt>
</event>
<event>
12    6  0.1395358E-007  0.2185314E+04  0.7818608E-02  0.8524566E-01
         -1   -1    0    0    0  501 -0.00000000000E+00  0.00000000000E+00  0.44913171513E+03  0.44913171513E+03  0.00000000000E+00 0.  1.
          2   -1    0    0  501    0  0.00000000000E+00 -0.00000000000E+00 -0.26582375240E+04  0.26582375240E+04  0.00000000000E+00 0. -1.
         24    2    1    2    0    0  0.15459436717E+03 -0.86958103026E+03 -0.11941988779E+04  0.14874620340E+04  0.79760618167E+02 0.  0.
        254    2    1    2    0    0 -0.15459436717E+03  0.86958103026E+03 -0.10149069310E+04  0.16199072051E+04  0.90221543321E+03 0.  0.
         23    2    4    4    0    0 -0.45814941270E+03  0.71983446922E+03 -0.91431437792E+03  0.12545517439E+04  0.99331510373E+02 0.  0.
         23    2    4    4    0    0  0.30355504553E+03  0.14974656104E+03 -0.10059255303E+03  0.36535546118E+03  0.93787275651E+02 0.  0.
          2    1    3    3  502    0  0.63503885749E+01 -0.45042611924E+02 -0.95721689184E+02  0.10598021563E+03  0.00000000000E+00 0. -1.
         -1    1    3    3    0  502  0.14824397859E+03 -0.82453841834E+03 -0.10984771887E+04  0.13814818184E+04  0.00000000000E+00 0.  1.
         11    1    5    5    0    0 -0.43478582163E+03  0.64617972973E+03 -0.79942762217E+03  0.11160965357E+04  0.00000000000E+00 0.  1.
        -11    1    5    5    0    0 -0.23363591067E+02  0.73654739491E+02 -0.11488675576E+03  0.13845520823E+03  0.00000000000E+00 0. -1.
          2    1    6    6  503    0  0.19968803441E+03  0.87865222908E+02 -0.17940427385E+02  0.21890058798E+03  0.00000000000E+00 0. -1.
         -2    1    6    6    0  503  0.10386701112E+03  0.61881338135E+02 -0.82652125648E+02  0.14645487319E+03  0.00000000000E+00 0.  1.
<mgrwt>
<rscale>  0 0.21853135E+04</rscale>
<asrwt>0</asrwt>
<pdfrwt beam="1">  1        2 0.40895962E+00 0.21853135E+04</pdfrwt>
<pdfrwt beam="2">  1       -1 0.69097187E-01 0.21853135E+04</pdfrwt>
<totfact> 0.62069753E+00</totfact>
</mgrwt>
</event>
<event>
12    6  0.1395358E-007  0.2130842E+04  0.7818608E-02  0.8547778E-01
          2   -1    0    0  501    0  0.00000000000E+00  0.00000000000E+00  0.29062855092E+04  0.29062855092E+04  0.00000000000E+00 0. -1.
         -1   -1    0    0    0  501 -0.00000000000E+00 -0.00000000000E+00 -0.39057474828E+03  0.39057474828E+03  0.00000000000E+00 0.  1.
         24    2    1    2    0    0  0.59668886768E+03  0.55052640483E+03  0.15323850184E+04  0.17358128281E+04  0.75666387022E+02 0.  0.
        254    2    1    2    0    0 -0.59668886768E+03 -0.55052640483E+03  0.98332574248E+03  0.15610474294E+04  0.90045690281E+03 0.  0.
         23    2    4    4    0    0 -0.50275637427E+03  0.71769606730E+02  0.68499162653E+03  0.85824054558E+03  0.97203175639E+02 0.  0.
         23    2    4    4    0    0 -0.93932493410E+02 -0.62229601156E+03  0.29833411595E+03  0.70280688383E+03  0.94120305400E+02 0.  0.
          2    1    3    3  502    0  0.34418043503E+03  0.36499029562E+03  0.96817049067E+03  0.10904275248E+04  0.00000000000E+00 0. -1.
         -1    1    3    3    0  502  0.25250843264E+03  0.18553610922E+03  0.56421452775E+03  0.64538530329E+03  0.00000000000E+00 0.  1.
         11    1    5    5    0    0 -0.31717471476E+03  0.92253851159E+02  0.44300238416E+03  0.55259540815E+03  0.00000000000E+00 0. -1.
        -11    1    5    5    0    0 -0.18558165951E+03 -0.20484244429E+02  0.24198924236E+03  0.30564513743E+03  0.00000000000E+00 0.  1.
          4    1    6    6  503    0 -0.97524021223E+02 -0.39669850644E+03  0.16387386131E+03  0.44015370287E+03  0.00000000000E+00 0.  1.
         -4    1    6    6    0  503  0.35915278131E+01 -0.22559750512E+03  0.13446025464E+03  0.26265318096E+03  0.00000000000E+00 0. -1.
<mgrwt>
<rscale>  0 0.21308418E+04</rscale>
<asrwt>0</asrwt>
<pdfrwt beam="1">  1        2 0.44712083E+00 0.21308418E+04</pdfrwt>
<pdfrwt beam="2">  1       -1 0.60088425E-01 0.21308418E+04</pdfrwt>
<totfact> 0.58571544E+00</totfact>
</mgrwt>
</event>
<event>
12    6  0.1395358E-007  0.2511258E+04  0.7818608E-02  0.8398986E-01
         -1   -1    0    0    0  501 -0.00000000000E+00  0.00000000000E+00  0.11609432249E+04  0.11609432249E+04  0.00000000000E+00 0.  1.
          2   -1    0    0  501    0  0.00000000000E+00 -0.00000000000E+00 -0.13580376411E+04  0.13580376411E+04  0.00000000000E+00 0. -1.
         24    2    1    2    0    0 -0.21962457747E+03 -0.93693034310E+03  0.43214895184E+03  0.10579329416E+04  0.79974805528E+02 0.  0.
        254    2    1    2    0    0  0.21962457747E+03  0.93693034310E+03 -0.62924336795E+03  0.14610479244E+04  0.90146569454E+03 0.  0.
         23    2    4    4    0    0  0.16646499594E+03  0.85628127638E+03 -0.62613046070E+02  0.87921334067E+03  0.90374142946E+02 0.  0.
         23    2    4    4    0    0  0.53159581531E+02  0.80649066715E+02 -0.56663032188E+03  0.58183458373E+03  0.90173987836E+02 0.  0.
          2    1    3    3  502    0 -0.11443642925E+03 -0.59665914026E+03  0.30466343491E+03  0.67964522699E+03  0.00000000000E+00 0. -1.
         -1    1    3    3    0  502 -0.10518814822E+03 -0.34027120283E+03  0.12748551692E+03  0.37828771461E+03  0.00000000000E+00 0.  1.
         11    1    5    5    0    0  0.40615368366E+02  0.11033535819E+03  0.15978998607E+02  0.11865423638E+03  0.00000000000E+00 0. -1.
        -11    1    5    5    0    0  0.12584962758E+03  0.74594591819E+03 -0.78592044677E+02  0.76055910429E+03  0.00000000000E+00 0.  1.
          1    1    6    6  503    0 -0.38008276125E+01  0.23264056341E+02 -0.34690263356E+03  0.34770260249E+03  0.00000000000E+00 0. -1.
         -1    1    6    6    0  503  0.56960409144E+02  0.57385010374E+02 -0.21972768831E+03  0.23413198124E+03  0.00000000000E+00 0.  1.
<mgrwt>
<rscale>  0 0.25112583E+04</rscale>
<asrwt>0</asrwt>
<pdfrwt beam="1">  1        2 0.20892887E+00 0.25112583E+04</pdfrwt>
<pdfrwt beam="2">  1       -1 0.17860665E+00 0.25112583E+04</pdfrwt>
<totfact> 0.33076332E+00</totfact>
</mgrwt>
</event>
<event>
12    6  0.1395358E-007  0.2985145E+04  0.7818608E-02  0.8247986E-01
         -1   -1    0    0    0  501 -0.00000000000E+00  0.00000000000E+00  0.20336504075E+04  0.20336504075E+04  0.00000000000E+00 0.  1.
          2   -1    0    0  501    0  0.00000000000E+00 -0.00000000000E+00 -0.10954547208E+04  0.10954547208E+04  0.00000000000E+00 0. -1.
         24    2    1    2    0    0  0.12822006874E+04  0.15066818727E+03 -0.49661452541E+01  0.12934702109E+04  0.79378955861E+02 0.  0.
        254    2    1    2    0    0 -0.12822006874E+04 -0.15066818727E+03  0.94316183194E+03  0.18356349173E+04  0.90181029222E+03 0.  0.
         23    2    4    4    0    0 -0.98002974968E+03  0.51794586834E+02  0.10536089008E+04  0.14428699464E+04  0.92956854839E+02 0.  0.
         23    2    4    4    0    0 -0.30217093768E+03 -0.20246277411E+03 -0.11044706887E+03  0.39276497093E+03  0.98829736886E+02 0.  0.
          4    1    3    3  502    0  0.33964522864E+03  0.50850401952E+01  0.34497215452E+01  0.33970080887E+03  0.00000000000E+00 0. -1.
         -3    1    3    3    0  502  0.94255545872E+03  0.14558314708E+03 -0.84158667993E+01  0.95376940205E+03  0.00000000000E+00 0.  1.
         11    1    5    5    0    0 -0.66394989353E+03  0.60166351118E+02  0.66160339244E+03  0.93923825509E+03  0.00000000000E+00 0. -1.
        -11    1    5    5    0    0 -0.31607985615E+03 -0.83717642834E+01  0.39200550836E+03  0.50363169130E+03  0.00000000000E+00 0.  1.
          4    1    6    6  503    0 -0.23504055775E+03 -0.19484155429E+03 -0.11197623969E+03  0.32518605955E+03  0.00000000000E+00 0. -1.
         -4    1    6    6    0  503 -0.67130379928E+02 -0.76212198146E+01  0.15291708259E+01  0.67578911387E+02  0.00000000000E+00 0.  1.
<mgrwt>
<rscale>  0 0.29851445E+04</rscale>
<asrwt>0</asrwt>
<pdfrwt beam="1">  1        2 0.16853150E+00 0.29851445E+04</pdfrwt>
<pdfrwt beam="2">  1       -1 0.31286929E+00 0.29851445E+04</pdfrwt>
<totfact> 0.58325119E-01</totfact>
</mgrwt>
</event>
<event>
12    6  0.1395358E-007  0.1420553E+04  0.7818608E-02  0.8939074E-01
         -1   -1    0    0    0  501 -0.00000000000E+00  0.00000000000E+00  0.12109462899E+04  0.12109462899E+04  0.00000000000E+00 0.  1.
          2   -1    0    0  501    0  0.00000000000E+00 -0.00000000000E+00 -0.41661032161E+03  0.41661032161E+03  0.00000000000E+00 0. -1.
         24    2    1    2    0    0 -0.40558245635E+02 -0.37460495176E+03  0.44878747649E+03  0.59224974956E+03  0.85882044866E+02 0.  0.
        254    2    1    2    0    0  0.40558245635E+02  0.37460495176E+03  0.34554849176E+03  0.10353068619E+04  0.90026812505E+03 0.  0.
         23    2    4    4    0    0 -0.58859380996E+02  0.45320940928E+03 -0.17057105150E+03  0.49606207010E+03  0.90110478805E+02 0.  0.
         23    2    4    4    0    0  0.99417626631E+02 -0.78604457518E+02  0.51611954326E+03  0.53924479180E+03  0.91340228387E+02 0.  0.
          2    1    3    3  502    0 -0.64335248743E+02 -0.29205067039E+03  0.32597070290E+03  0.44236807916E+03  0.00000000000E+00 0. -1.
         -1    1    3    3    0  502  0.23777003107E+02 -0.82554281374E+02  0.12281677359E+03  0.14988167041E+03  0.00000000000E+00 0.  1.
         11    1    5    5    0    0 -0.79105043728E+02  0.39528147808E+03 -0.13494499487E+03  0.42510611205E+03  0.00000000000E+00 0. -1.
        -11    1    5    5    0    0  0.20245662732E+02  0.57927931197E+02 -0.35626056632E+02  0.70955958054E+02  0.00000000000E+00 0.  1.
          1    1    6    6  503    0  0.98490907771E+02 -0.56090312202E+02  0.28026277961E+03  0.30231408778E+03  0.00000000000E+00 0. -1.
         -1    1    6    6    0  503  0.92671886031E+00 -0.22514145316E+02  0.23585676365E+03  0.23693070402E+03  0.00000000000E+00 0.  1.
<mgrwt>
<rscale>  0 0.14205530E+04</rscale>
<asrwt>0</asrwt>
<pdfrwt beam="1">  1        2 0.64093896E-01 0.14205530E+04</pdfrwt>
<pdfrwt beam="2">  1       -1 0.18629943E+00 0.14205530E+04</pdfrwt>
<totfact> 0.15841490E+01</totfact>
</mgrwt>
</event>
<event>
12    6  0.1395358E-007  0.1907933E+04  0.7818608E-02  0.8650918E-01
          2   -1    0    0  501    0  0.00000000000E+00  0.00000000000E+00  0.19424690441E+04  0.19424690441E+04  0.00000000000E+00 0. -1.
         -1   -1    0    0    0  501 -0.00000000000E+00 -0.00000000000E+00 -0.46850268513E+03  0.46850268513E+03  0.00000000000E+00 0.  1.
         24    2    1    2    0    0 -0.68838229595E+03  0.42843923715E+02  0.91631572430E+03  0.11496371580E+04  0.79531762190E+02 0.  0.
        254    2    1    2    0    0  0.68838229595E+03 -0.42843923715E+02  0.55765063471E+03  0.12613345713E+04  0.89681931469E+03 0.  0.
         23    2    4    4    0    0 -0.12172506332E+03 -0.22931175803E+02 -0.12477147540E+03  0.19807321909E+03  0.91226362319E+02 0.  0.
         23    2    4    4    0    0  0.81010735927E+03 -0.19912747912E+02  0.68242211011E+03  0.10632613522E+04  0.90301249541E+02 0.  0.
          4    1    3    3  502    0 -0.61369007553E+03  0.18631904593E+02  0.78430932807E+03  0.99604406467E+03  0.00000000000E+00 0. -1.
         -3    1    3    3    0  502 -0.74692220419E+02  0.24212019122E+02  0.13200639623E+03  0.15359309329E+03  0.00000000000E+00 0.  1.
         11    1    5    5    0    0 -0.79942256351E+02 -0.34383255791E+02 -0.12783192949E+03  0.15464143955E+03  0.00000000000E+00 0. -1.
        -11    1    5    5    0    0 -0.41782806973E+02  0.11452079988E+02  0.30604540904E+01  0.43431779538E+02  0.00000000000E+00 0.  1.
          3    1    6    6  503    0  0.66498073206E+03 -0.79509426358E+01  0.60134714915E+03  0.89659410286E+03  0.00000000000E+00 0. -1.
         -3    1    6    6    0  503  0.14512662721E+03 -0.11961805276E+02  0.81074960960E+02  0.16666724935E+03  0.00000000000E+00 0.  1.
<mgrwt>
<rscale>  0 0.19079329E+04</rscale>
<asrwt>0</asrwt>
<pdfrwt beam="1">  1        2 0.29884139E+00 0.19079329E+04</pdfrwt>
<pdfrwt beam="2">  1       -1 0.72077337E-01 0.19079329E+04</pdfrwt>
<totfact> 0.14887830E+01</totfact>
</mgrwt>
</event>
<event>
12    6  0.1395358E-007  0.1689490E+04  0.7818608E-02  0.8767381E-01
          2   -1    0    0  501    0  0.00000000000E+00  0.00000000000E+00  0.42610106639E+04  0.42610106639E+04  0.00000000000E+00 0. -1.
         -1   -1    0    0    0  501 -0.00000000000E+00 -0.00000000000E+00 -0.16747068934E+03  0.16747068934E+03  0.00000000000E+00 0.  1.
         24    2    1    2    0    0  0.24806518580E+02 -0.59726248323E+03  0.16429385633E+04  0.17501812711E+04  0.80929115252E+02 0.  0.
        254    2    1    2    0    0 -0.24806518580E+02  0.59726248323E+03  0.24506014113E+04  0.26783000821E+04  0.90028118714E+03 0.  0.
         23    2    4    4    0    0  0.19625098919E+03 -0.16628293931E+02  0.15341954817E+04  0.15494420557E+04  0.90686035459E+02 0.  0.
         23    2    4    4    0    0 -0.22105750777E+03  0.61389077716E+03  0.91640592953E+03  0.11288580264E+04  0.93767308108E+02 0.  0.
          2    1    3    3  502    0  0.33958638736E+02 -0.26751318080E+03  0.83618988908E+03  0.87859548237E+03  0.00000000000E+00 0. -1.
         -1    1    3    3    0  502 -0.91521201553E+01 -0.32974930243E+03  0.80674867422E+03  0.87158578873E+03  0.00000000000E+00 0.  1.
         11    1    5    5    0    0  0.20475001090E+03 -0.83380475676E+01  0.14434462930E+04  0.14579195076E+04  0.00000000000E+00 0.  1.
        -11    1    5    5    0    0 -0.84990217130E+01 -0.82902463633E+01  0.90749188752E+02  0.91522548118E+02  0.00000000000E+00 0. -1.
          1    1    6    6  503    0 -0.47771537483E+02  0.16336575146E+03  0.31145124888E+03  0.35492586405E+03  0.00000000000E+00 0. -1.
         -1    1    6    6    0  503 -0.17328597029E+03  0.45052502570E+03  0.60495468065E+03  0.77393216235E+03  0.00000000000E+00 0.  1.
<mgrwt>
<rscale>  0 0.16894903E+04</rscale>
<asrwt>0</asrwt>
<pdfrwt beam="1">  1        2 0.65554002E+00 0.16894903E+04</pdfrwt>
<pdfrwt beam="2">  1       -1 0.25764725E-01 0.16894903E+04</pdfrwt>
<totfact> 0.30303314E+00</totfact>
</mgrwt>
</event>
<event>
12    6  0.1395358E-007  0.3300948E+04  0.7818608E-02  0.8162654E-01
          2   -1    0    0  501    0  0.00000000000E+00  0.00000000000E+00  0.24214559612E+04  0.24214559612E+04  0.00000000000E+00 0. -1.
         -1   -1    0    0    0  501 -0.00000000000E+00 -0.00000000000E+00 -0.11249694239E+04  0.11249694239E+04  0.00000000000E+00 0.  1.
         24    2    1    2    0    0  0.11175570133E+04 -0.10383542202E+04  0.54331027627E+03  0.16213287748E+04  0.80048579001E+02 0.  0.
        254    2    1    2    0    0 -0.11175570133E+04  0.10383542202E+04  0.75317626102E+03  0.19250966104E+04  0.90089361995E+03 0.  0.
         23    2    4    4    0    0 -0.12574372428E+04  0.96499365644E+03  0.65162731947E+03  0.17162184647E+04  0.91795851480E+02 0.  0.
         23    2    4    4    0    0  0.13988022950E+03  0.73360563739E+02  0.10154894155E+03  0.20887814570E+03  0.91485743714E+02 0.  0.
          4    1    3    3  502    0  0.63309766791E+03 -0.63622938937E+03  0.33815882564E+03  0.95914122233E+03  0.00000000000E+00 0. -1.
         -3    1    3    3    0  502  0.48445934542E+03 -0.40212483082E+03  0.20515145063E+03  0.66218755245E+03  0.00000000000E+00 0.  1.
         11    1    5    5    0    0 -0.13152699030E+01  0.85437279555E+01  0.14130636935E+01  0.87591079053E+01  0.00000000000E+00 0. -1.
        -11    1    5    5    0    0 -0.12561219729E+04  0.95644992849E+03  0.65021425577E+03  0.17074593568E+04  0.00000000000E+00 0.  1.
          2    1    6    6  503    0  0.92039742094E+01  0.47314371720E+02  0.37313836312E+02  0.60956421260E+02  0.00000000000E+00 0. -1.
         -2    1    6    6    0  503  0.13067625529E+03  0.26046192019E+02  0.64235105239E+02  0.14792172444E+03  0.00000000000E+00 0.  1.
<mgrwt>
<rscale>  0 0.33009477E+04</rscale>
<asrwt>0</asrwt>
<pdfrwt beam="1">  1        2 0.37253168E+00 0.33009477E+04</pdfrwt>
<pdfrwt beam="2">  1       -1 0.17307222E+00 0.33009477E+04</pdfrwt>
<totfact> 0.85685311E-01</totfact>
</mgrwt>
</event>
<event>
12    6  0.1395358E-007  0.2146045E+04  0.7818608E-02  0.8541227E-01
         -1   -1    0    0    0  501 -0.00000000000E+00  0.00000000000E+00  0.88773577942E+03  0.88773577942E+03  0.00000000000E+00 0.  1.
          2   -1    0    0  501    0  0.00000000000E+00 -0.00000000000E+00 -0.12969813948E+04  0.12969813948E+04  0.00000000000E+00 0. -1.
         24    2    1    2    0    0  0.76290047950E+03 -0.22069372770E+03  0.22307254032E+03  0.82871890020E+03  0.79314527258E+02 0.  0.
        254    2    1    2    0    0 -0.76290047950E+03  0.22069372770E+03 -0.63231815567E+03  0.13559982740E+04  0.89898954721E+03 0.  0.
         23    2    4    4    0    0 -0.54391874687E+03 -0.29340099362E+03 -0.41263819401E+03  0.74884157090E+03  0.92529308297E+02 0.  0.
         23    2    4    4    0    0 -0.21898173263E+03  0.51409472132E+03 -0.21967996166E+03  0.60715670309E+03  0.90186444851E+02 0.  0.
          4    1    3    3  502    0  0.59270580977E+03 -0.16561765951E+03  0.13827172359E+03  0.63075229339E+03  0.00000000000E+00 0. -1.
         -3    1    3    3    0  502  0.17019466974E+03 -0.55076068197E+02  0.84800816733E+02  0.19796660681E+03  0.00000000000E+00 0.  1.
         11    1    5    5    0    0 -0.31186628597E+03 -0.15241857621E+03 -0.28347568139E+03  0.44816343518E+03  0.00000000000E+00 0.  1.
        -11    1    5    5    0    0 -0.23205246090E+03 -0.14098241741E+03 -0.12916251263E+03  0.30067813572E+03  0.00000000000E+00 0. -1.
          4    1    6    6  503    0 -0.21684210096E+03  0.44850016488E+03 -0.21078155495E+03  0.54092675895E+03  0.00000000000E+00 0. -1.
         -4    1    6    6    0  503 -0.21396316775E+01  0.65594556444E+02 -0.88984067122E+01  0.66229944140E+02  0.00000000000E+00 0.  1.
<mgrwt>
<rscale>  0 0.21460445E+04</rscale>
<asrwt>0</asrwt>
<pdfrwt beam="1">  1        2 0.19953560E+00 0.21460445E+04</pdfrwt>
<pdfrwt beam="2">  1       -1 0.13657474E+00 0.21460445E+04</pdfrwt>
<totfact> 0.77662712E+00</totfact>
</mgrwt>
</event>
<event>
12    6  0.1395358E-007  0.1417647E+04  0.7818608E-02  0.8941143E-01
         -1   -1    0    0    0  501 -0.00000000000E+00  0.00000000000E+00  0.23070867142E+03  0.23070867142E+03  0.00000000000E+00 0.  1.
          2   -1    0    0  501    0  0.00000000000E+00 -0.00000000000E+00 -0.21777704908E+04  0.21777704908E+04  0.00000000000E+00 0. -1.
         24    2    1    2    0    0 -0.41127960219E+03 -0.65724690699E+02 -0.55076711367E+03  0.69492912465E+03  0.78175626869E+02 0.  0.
        254    2    1    2    0    0  0.41127960219E+03  0.65724690699E+02 -0.13962947057E+04  0.17135500376E+04  0.90174507478E+03 0.  0.
         23    2    4    4    0    0 -0.17300312852E+03 -0.16315297925E+03 -0.81234723480E+03  0.85142047217E+03  0.91977244065E+02 0.  0.
         23    2    4    4    0    0  0.58428273071E+03  0.22887766995E+03 -0.58394747091E+03  0.86212956539E+03  0.92203262027E+02 0.  0.
          4    1    3    3  502    0 -0.19012405928E+02  0.28289347707E+01 -0.59567478127E+02  0.62592003495E+02  0.00000000000E+00 0. -1.
         -3    1    3    3    0  502 -0.39226719626E+03 -0.68553625470E+02 -0.49119963554E+03  0.63233712115E+03  0.00000000000E+00 0.  1.
         11    1    5    5    0    0 -0.12769724309E+03 -0.15909118235E+03 -0.72201987551E+03  0.75028613930E+03  0.00000000000E+00 0. -1.
        -11    1    5    5    0    0 -0.45305885430E+02 -0.40617969021E+01 -0.90327359288E+02  0.10113433287E+03  0.00000000000E+00 0.  1.
          1    1    6    6  503    0  0.21908476097E+03  0.10924870219E+03 -0.28173561385E+03  0.37324036160E+03  0.00000000000E+00 0. -1.
         -1    1    6    6    0  503  0.36519796974E+03  0.11962896776E+03 -0.30221185706E+03  0.48888920379E+03  0.00000000000E+00 0.  1.
<mgrwt>
<rscale>  0 0.14176467E+04</rscale>
<asrwt>0</asrwt>
<pdfrwt beam="1">  1        2 0.33504159E+00 0.14176467E+04</pdfrwt>
<pdfrwt beam="2">  1       -1 0.35493644E-01 0.14176467E+04</pdfrwt>
<totfact> 0.44586558E+01</totfact>
</mgrwt>
</event>
<event>
12    6  0.1395358E-007  0.2341433E+04  0.7818608E-02  0.8461762E-01
          2   -1    0    0  501    0  0.00000000000E+00  0.00000000000E+00  0.30969105612E+04  0.30969105612E+04  0.00000000000E+00 0. -1.
         -1   -1    0    0    0  501 -0.00000000000E+00 -0.00000000000E+00 -0.44256268517E+03  0.44256268517E+03  0.00000000000E+00 0.  1.
         24    2    1    2    0    0 -0.97489926770E+03  0.29491482061E+02  0.14398174252E+04  0.17408119826E+04  0.77806241638E+02 0.  0.
        254    2    1    2    0    0  0.97489926770E+03 -0.29491482061E+02  0.12145304508E+04  0.17986612637E+04  0.89933297282E+03 0.  0.
         23    2    4    4    0    0  0.30797828543E+03 -0.33120908736E+03  0.86918316627E+03  0.98429824375E+03  0.93880627787E+02 0.  0.
         23    2    4    4    0    0  0.66692098227E+03  0.30171760530E+03  0.34534728449E+03  0.81436301994E+03  0.90029280785E+02 0.  0.
          2    1    3    3  502    0 -0.16682951893E+03  0.88416603910E+01  0.30138864313E+03  0.34459451179E+03  0.00000000000E+00 0. -1.
         -3    1    3    3    0  502 -0.80806974877E+03  0.20649821670E+02  0.11384287821E+04  0.13962174709E+04  0.00000000000E+00 0.  1.
         11    1    5    5    0    0  0.28763833120E+03 -0.33355252856E+03  0.84229666831E+03  0.95050343309E+03  0.00000000000E+00 0. -1.
        -11    1    5    5    0    0  0.20339954222E+02  0.23434411947E+01  0.26886497966E+02  0.33794810656E+02  0.00000000000E+00 0.  1.
          4    1    6    6  503    0  0.52303083812E+03  0.26680747578E+03  0.24937165508E+03  0.63791355928E+03  0.00000000000E+00 0. -1.
         -4    1    6    6    0  503  0.14389014415E+03  0.34910129527E+02  0.95975629403E+02  0.17644946066E+03  0.00000000000E+00 0.  1.
<mgrwt>
<rscale>  0 0.23414329E+04</rscale>
<asrwt>0</asrwt>
<pdfrwt beam="1">  1        2 0.47644777E+00 0.23414329E+04</pdfrwt>
<pdfrwt beam="2">  1       -1 0.68086569E-01 0.23414329E+04</pdfrwt>
<totfact> 0.33964412E+00</totfact>
</mgrwt>
</event>
<event>
12    6  0.1395358E-007  0.1925596E+04  0.7818608E-02  0.8642220E-01
         -1   -1    0    0    0  501 -0.00000000000E+00  0.00000000000E+00  0.78808137413E+03  0.78808137413E+03  0.00000000000E+00 0.  1.
          2   -1    0    0  501    0  0.00000000000E+00 -0.00000000000E+00 -0.11762487337E+04  0.11762487337E+04  0.00000000000E+00 0. -1.
         24    2    1    2    0    0  0.15770425980E+03 -0.73209014279E+03 -0.15060493805E+03  0.76755053426E+03  0.75002430325E+02 0.  0.
        254    2    1    2    0    0 -0.15770425980E+03  0.73209014279E+03 -0.23756242154E+03  0.11967795736E+04  0.90278393480E+03 0.  0.
         23    2    4    4    0    0  0.10582123666E+03 -0.17511636593E+03 -0.54740133304E+02  0.23064981432E+03  0.91318009772E+02 0.  0.
         23    2    4    4    0    0 -0.26352549646E+03  0.90720650872E+03 -0.18282228824E+03  0.96612975928E+03  0.86679789691E+02 0.  0.
          2    1    3    3  502    0  0.76311331824E+02 -0.30513925526E+03 -0.99592013608E+02  0.32992719445E+03  0.00000000000E+00 0. -1.
         -1    1    3    3    0  502  0.81392927975E+02 -0.42695088753E+03 -0.51012924445E+02  0.43762333981E+03  0.00000000000E+00 0.  1.
         11    1    5    5    0    0  0.11924427963E+03 -0.16285029302E+03 -0.36917577027E+02  0.20518850761E+03  0.00000000000E+00 0. -1.
        -11    1    5    5    0    0 -0.13423042973E+02 -0.12266072908E+02 -0.17822556276E+02  0.25461306711E+02  0.00000000000E+00 0.  1.
          4    1    6    6  503    0 -0.18055381829E+03  0.63686684082E+03 -0.87572647960E+02  0.66773349692E+03  0.00000000000E+00 0. -1.
         -4    1    6    6    0  503 -0.82971678167E+02  0.27033966789E+03 -0.95249640275E+02  0.29839626235E+03  0.00000000000E+00 0.  1.
<mgrwt>
<rscale>  0 0.19255957E+04</rscale>
<asrwt>0</asrwt>
<pdfrwt beam="1">  1        2 0.18096134E+00 0.19255957E+04</pdfrwt>
<pdfrwt beam="2">  1       -1 0.12124329E+00 0.19255957E+04</pdfrwt>
<totfact> 0.12592211E+01</totfact>
</mgrwt>
</event>
<event>
12    6  0.1395358E-007  0.2479398E+04  0.7818608E-02  0.8410362E-01
          2   -1    0    0  501    0  0.00000000000E+00  0.00000000000E+00  0.24988210925E+04  0.24988210925E+04  0.00000000000E+00 0. -1.
         -1   -1    0    0    0  501 -0.00000000000E+00 -0.00000000000E+00 -0.61503133412E+03  0.61503133412E+03  0.00000000000E+00 0.  1.
         24    2    1    2    0    0  0.16530777304E+03  0.96090797629E+03  0.25175073721E+03  0.10102324605E+04  0.80748943014E+02 0.  0.
        254    2    1    2    0    0 -0.16530777304E+03 -0.96090797629E+03  0.16320390212E+04  0.21036199661E+04  0.90055249518E+03 0.  0.
         23    2    4    4    0    0  0.32663958199E+03 -0.14204171669E+03  0.42829118880E+03  0.56456087155E+03  0.91795258461E+02 0.  0.
         23    2    4    4    0    0 -0.49194735503E+03 -0.81886625960E+03  0.12037478324E+04  0.15390590946E+04  0.84497937636E+02 0.  0.
          2    1    3    3  502    0  0.16072841558E+03  0.73355050767E+03  0.19462464143E+03  0.77576331566E+03  0.00000000000E+00 0. -1.
         -1    1    3    3    0  502  0.45793574589E+01  0.22735746862E+03  0.57126095782E+02  0.23446914482E+03  0.00000000000E+00 0.  1.
         11    1    5    5    0    0  0.32731251369E+03 -0.12461444628E+03  0.41128791414E+03  0.54020365618E+03  0.00000000000E+00 0.  1.
        -11    1    5    5    0    0 -0.67293169755E+00 -0.17427270412E+02  0.17003274665E+02  0.24357215367E+02  0.00000000000E+00 0. -1.
          3    1    6    6  503    0  0.82985841873E+00  0.16650400989E+01  0.27302908353E+01  0.33038631285E+01  0.00000000000E+00 0. -1.
         -3    1    6    6    0  503 -0.49277721345E+03 -0.82053129970E+03  0.12010175415E+04  0.15357552314E+04  0.00000000000E+00 0.  1.
<mgrwt>
<rscale>  0 0.24793977E+04</rscale>
<asrwt>0</asrwt>
<pdfrwt beam="1">  1        2 0.38443401E+00 0.24793977E+04</pdfrwt>
<pdfrwt beam="2">  1       -1 0.94620206E-01 0.24793977E+04</pdfrwt>
<totfact> 0.38273082E+00</totfact>
</mgrwt>
</event>
<event>
12    6  0.1395358E-007  0.1855760E+04  0.7818608E-02  0.8677196E-01
          2   -1    0    0  501    0  0.00000000000E+00  0.00000000000E+00  0.13639470995E+04  0.13639470995E+04  0.00000000000E+00 0. -1.
         -1   -1    0    0    0  501 -0.00000000000E+00 -0.00000000000E+00 -0.63122779656E+03  0.63122779656E+03  0.00000000000E+00 0.  1.
         24    2    1    2    0    0  0.21568870106E+03  0.26274813817E+03  0.94271028321E+03  0.10049144342E+04  0.74780626807E+02 0.  0.
        254    2    1    2    0    0 -0.21568870106E+03 -0.26274813817E+03 -0.20999098024E+03  0.99026046188E+03  0.90606918649E+03 0.  0.
         23    2    4    4    0    0  0.26847230388E+03 -0.22319268466E+03 -0.31951932435E+03  0.48344885513E+03  0.98680517130E+02 0.  0.
         23    2    4    4    0    0 -0.48416100494E+03 -0.39555453508E+02  0.10952834411E+03  0.50681160675E+03  0.94260458102E+02 0.  0.
          4    1    3    3  502    0  0.36117742402E+02  0.87040361221E+02  0.20567217212E+03  0.22623341527E+03  0.00000000000E+00 0. -1.
         -3    1    3    3    0  502  0.17957095866E+03  0.17570777695E+03  0.73703811109E+03  0.77868101895E+03  0.00000000000E+00 0.  1.
         11    1    5    5    0    0  0.25746025881E+03 -0.18000963419E+03 -0.25289068186E+03  0.40329015639E+03  0.00000000000E+00 0.  1.
        -11    1    5    5    0    0  0.11012045068E+02 -0.43183050469E+02 -0.66628642489E+02  0.80158698744E+02  0.00000000000E+00 0. -1.
          2    1    6    6  503    0 -0.21563086685E+03 -0.64489987008E+02  0.54407496198E+02  0.23155086872E+03  0.00000000000E+00 0.  1.
         -2    1    6    6    0  503 -0.26853013809E+03  0.24934533499E+02  0.55120847914E+02  0.27526073802E+03  0.00000000000E+00 0. -1.
<mgrwt>
<rscale>  0 0.18557600E+04</rscale>
<asrwt>0</asrwt>
<pdfrwt beam="1">  1        2 0.20983801E+00 0.18557600E+04</pdfrwt>
<pdfrwt beam="2">  1       -1 0.97111969E-01 0.18557600E+04</pdfrwt>
<totfact> 0.16567525E+01</totfact>
</mgrwt>
</event>
<event>
12    6  0.1395358E-007  0.1901559E+04  0.7818608E-02  0.8654081E-01
          2   -1    0    0  501    0  0.00000000000E+00  0.00000000000E+00  0.25641483110E+04  0.25641483110E+04  0.00000000000E+00 0. -1.
         -1   -1    0    0    0  501 -0.00000000000E+00 -0.00000000000E+00 -0.35254644022E+03  0.35254644022E+03  0.00000000000E+00 0.  1.
         24    2    1    2    0    0 -0.44544224735E+03 -0.57906072327E+03  0.99386589404E+03  0.12360735967E+04  0.79864912182E+02 0.  0.
        254    2    1    2    0    0  0.44544224735E+03  0.57906072327E+03  0.12177359767E+04  0.16806211545E+04  0.89881946958E+03 0.  0.
         23    2    4    4    0    0  0.60820442681E+03  0.99452469218E+02  0.82890490085E+03  0.10367601298E+04  0.89357784860E+02 0.  0.
         23    2    4    4    0    0 -0.16276217946E+03  0.47960825405E+03  0.38883107585E+03  0.64386102463E+03  0.82775655106E+02 0.  0.
          2    1    3    3  502    0 -0.36461060374E+03 -0.49916759066E+03  0.87797617049E+03  0.10737557133E+04  0.00000000000E+00 0. -1.
         -1    1    3    3    0  502 -0.80831643613E+02 -0.79893132614E+02  0.11588972356E+03  0.16231788341E+03  0.00000000000E+00 0.  1.
         11    1    5    5    0    0  0.38966795249E+03  0.60817336801E+02  0.45673398826E+03  0.60344494172E+03  0.00000000000E+00 0.  1.
        -11    1    5    5    0    0  0.21853647432E+03  0.38635132417E+02  0.37217091259E+03  0.43331518811E+03  0.00000000000E+00 0. -1.
          1    1    6    6  503    0 -0.94424940805E+02  0.25027698039E+03  0.15435901330E+03  0.30883869794E+03  0.00000000000E+00 0. -1.
         -1    1    6    6    0  503 -0.68337238652E+02  0.22933127366E+03  0.23447206254E+03  0.33502232669E+03  0.00000000000E+00 0.  1.
<mgrwt>
<rscale>  0 0.19015587E+04</rscale>
<asrwt>0</asrwt>
<pdfrwt beam="1">  1        2 0.39448434E+00 0.19015587E+04</pdfrwt>
<pdfrwt beam="2">  1       -1 0.54237916E-01 0.19015587E+04</pdfrwt>
<totfact> 0.11701656E+01</totfact>
</mgrwt>
</event>
<event>
12    6  0.1395358E-007  0.3587148E+04  0.7818608E-02  0.8093442E-01
          2   -1    0    0  501    0  0.00000000000E+00  0.00000000000E+00  0.16871878890E+04  0.16871878890E+04  0.00000000000E+00 0. -1.
         -3   -1    0    0    0  501 -0.00000000000E+00 -0.00000000000E+00 -0.19066685786E+04  0.19066685786E+04  0.00000000000E+00 0.  1.
         24    2    1    2    0    0 -0.13484546895E+03 -0.13439067508E+04  0.89629289191E+03  0.16229555746E+04  0.79844810061E+02 0.  0.
        254    2    1    2    0    0  0.13484546895E+03  0.13439067508E+04 -0.11157735816E+04  0.19709008929E+04  0.90290142817E+03 0.  0.
         23    2    4    4    0    0 -0.19828084235E+03  0.42498670475E+03 -0.81412937990E+03  0.94394622701E+03  0.91097972655E+02 0.  0.
         23    2    4    4    0    0  0.33312631130E+03  0.91892004609E+03 -0.30164420167E+03  0.10269546659E+04  0.90881632220E+02 0.  0.
          2    1    3    3  502    0 -0.82908204291E+02 -0.53322921782E+03  0.38900629303E+03  0.66523158756E+03  0.00000000000E+00 0. -1.
         -1    1    3    3    0  502 -0.51937264662E+02 -0.81067753302E+03  0.50728659888E+03  0.95772398707E+03  0.00000000000E+00 0.  1.
         11    1    5    5    0    0 -0.13227532307E+03  0.29938467283E+03 -0.64409962128E+03  0.72249032211E+03  0.00000000000E+00 0.  1.
        -11    1    5    5    0    0 -0.66005519281E+02  0.12560203192E+03 -0.17002975862E+03  0.22145590490E+03  0.00000000000E+00 0. -1.
          3    1    6    6  503    0  0.33274348083E+03  0.87768313703E+03 -0.30096345946E+03  0.98571036161E+03  0.00000000000E+00 0. -1.
         -3    1    6    6    0  503  0.38283046923E+00  0.41236909056E+02 -0.68074220526E+00  0.41244304305E+02  0.00000000000E+00 0.  1.
<mgrwt>
<rscale>  0 0.35871482E+04</rscale>
<asrwt>0</asrwt>
<pdfrwt beam="1">  1        2 0.25956737E+00 0.35871482E+04</pdfrwt>
<pdfrwt beam="2">  1       -3 0.29333363E+00 0.35871482E+04</pdfrwt>
<totfact> 0.21163149E-01</totfact>
</mgrwt>
</event>
<event>
12    6  0.1395358E-007  0.2621301E+04  0.7818608E-02  0.8361002E-01
          2   -1    0    0  501    0  0.00000000000E+00  0.00000000000E+00  0.17546057750E+04  0.17546057750E+04  0.00000000000E+00 0. -1.
         -1   -1    0    0    0  501 -0.00000000000E+00 -0.00000000000E+00 -0.97902596723E+03  0.97902596723E+03  0.00000000000E+00 0.  1.
         24    2    1    2    0    0  0.87427509753E+03  0.59427667108E+03  0.81520647930E+03  0.13372602736E+04  0.78623963490E+02 0.  0.
        254    2    1    2    0    0 -0.87427509753E+03 -0.59427667108E+03 -0.39626671543E+02  0.13963714686E+04  0.91146107827E+03 0.  0.
         23    2    4    4    0    0  0.49609993210E+02  0.10853414718E+03 -0.16805972987E+03  0.22487893243E+03  0.89920236411E+02 0.  0.
         23    2    4    4    0    0 -0.92388509074E+03 -0.70281081827E+03  0.12843305832E+03  0.11714925361E+04  0.91613343003E+02 0.  0.
          4    1    3    3  502    0  0.64794797677E+03  0.40118722299E+03  0.56861347891E+03  0.95084649491E+03  0.00000000000E+00 0. -1.
         -3    1    3    3    0  502  0.22632712076E+03  0.19308944809E+03  0.24659300038E+03  0.38641377873E+03  0.00000000000E+00 0.  1.
         11    1    5    5    0    0 -0.40770686780E+00  0.54380717092E+00 -0.71822489751E+02  0.71825705601E+02  0.00000000000E+00 0. -1.
        -11    1    5    5    0    0  0.50017700077E+02  0.10799034001E+03 -0.96237240115E+02  0.15305322683E+03  0.00000000000E+00 0.  1.
          2    1    6    6  503    0 -0.26040607046E+03 -0.17940744595E+03  0.73358524263E+02  0.32462259052E+03  0.00000000000E+00 0. -1.
         -2    1    6    6    0  503 -0.66347902028E+03 -0.52340337232E+03  0.55074534060E+02  0.84686994563E+03  0.00000000000E+00 0.  1.
<mgrwt>
<rscale>  0 0.26213009E+04</rscale>
<asrwt>0</asrwt>
<pdfrwt beam="1">  1        2 0.26993935E+00 0.26213009E+04</pdfrwt>
<pdfrwt beam="2">  1       -1 0.15061938E+00 0.26213009E+04</pdfrwt>
<totfact> 0.31714499E+00</totfact>
</mgrwt>
</event>
<event>
12    6  0.1395358E-007  0.2097831E+04  0.7818608E-02  0.8562199E-01
         -1   -1    0    0    0  501 -0.00000000000E+00  0.00000000000E+00  0.38577639327E+03  0.38577639327E+03  0.00000000000E+00 0.  1.
          2   -1    0    0  501    0  0.00000000000E+00 -0.00000000000E+00 -0.28519730551E+04  0.28519730551E+04  0.00000000000E+00 0. -1.
         24    2    1    2    0    0  0.60596598288E+03 -0.42765284095E+03 -0.16573965302E+04  0.18183633514E+04  0.96955116550E+02 0.  0.
        254    2    1    2    0    0 -0.60596598288E+03  0.42765284095E+03 -0.80880013161E+03  0.14193860970E+04  0.90023192265E+03 0.  0.
         23    2    4    4    0    0 -0.15645698228E+03  0.23629930758E+03  0.15435928521E+03  0.33558737675E+03  0.92064914271E+02 0.  0.
         23    2    4    4    0    0 -0.44950900060E+03  0.19135353338E+03 -0.96315941682E+03  0.10837987202E+04  0.90934522302E+02 0.  0.
          2    1    3    3  502    0  0.81808604495E+02 -0.23521939074E+02 -0.22049170007E+03  0.23635253159E+03  0.00000000000E+00 0. -1.
         -1    1    3    3    0  502  0.52415737838E+03 -0.40413090188E+03 -0.14369048301E+04  0.15820108198E+04  0.00000000000E+00 0.  1.
         11    1    5    5    0    0 -0.45892800537E+02  0.87457128677E+02  0.10406551609E+03  0.14347309900E+03  0.00000000000E+00 0. -1.
        -11    1    5    5    0    0 -0.11056418175E+03  0.14884217890E+03  0.50293769121E+02  0.19211427775E+03  0.00000000000E+00 0.  1.
          1    1    6    6  503    0 -0.22154540694E+03  0.80190883322E+02 -0.36943538401E+03  0.43817285181E+03  0.00000000000E+00 0. -1.
         -1    1    6    6    0  503 -0.22796359366E+03  0.11116265005E+03 -0.59372403281E+03  0.64562586839E+03  0.00000000000E+00 0.  1.
<mgrwt>
<rscale>  0 0.20978311E+04</rscale>
<asrwt>0</asrwt>
<pdfrwt beam="1">  1        2 0.43876509E+00 0.20978311E+04</pdfrwt>
<pdfrwt beam="2">  1       -1 0.59350213E-01 0.20978311E+04</pdfrwt>
<totfact> 0.64988493E+00</totfact>
</mgrwt>
</event>
<event>
12    6  0.1395358E-007  0.3181308E+04  0.7818608E-02  0.8193771E-01
         -1   -1    0    0    0  501 -0.00000000000E+00  0.00000000000E+00  0.12964028751E+04  0.12964028751E+04  0.00000000000E+00 0.  1.
          2   -1    0    0  501    0  0.00000000000E+00 -0.00000000000E+00 -0.19516930554E+04  0.19516930554E+04  0.00000000000E+00 0. -1.
         24    2    1    2    0    0 -0.10149573857E+03  0.12481889122E+04  0.46924556200E+03  0.13395615045E+04  0.77179540759E+02 0.  0.
        254    2    1    2    0    0  0.10149573857E+03 -0.12481889122E+04 -0.11245357423E+04  0.19085344260E+04  0.89980335303E+03 0.  0.
         23    2    4    4    0    0  0.47701649888E+03 -0.71695707815E+03 -0.48772581786E+03  0.99357259124E+03  0.87964927901E+02 0.  0.
         23    2    4    4    0    0 -0.37552076031E+03 -0.53123183402E+03 -0.63680992443E+03  0.91496183476E+03  0.91679748648E+02 0.  0.
          2    1    3    3  502    0 -0.67668919721E+02  0.10808417468E+04  0.42338140155E+03  0.11627767522E+04  0.00000000000E+00 0. -1.
         -1    1    3    3    0  502 -0.33826818850E+02  0.16734716534E+03  0.45864160444E+02  0.17678475227E+03  0.00000000000E+00 0.  1.
         11    1    5    5    0    0  0.94134361583E+02 -0.10437308343E+03 -0.51547993138E+02  0.14970709460E+03  0.00000000000E+00 0.  1.
        -11    1    5    5    0    0  0.38288213730E+03 -0.61258399471E+03 -0.43617782472E+03  0.84386549664E+03  0.00000000000E+00 0. -1.
          2    1    6    6  503    0 -0.28035727657E+03 -0.32715556720E+03 -0.44143517037E+03  0.61684355984E+03  0.00000000000E+00 0. -1.
         -2    1    6    6    0  503 -0.95163483738E+02 -0.20407626682E+03 -0.19537475405E+03  0.29811827491E+03  0.00000000000E+00 0.  1.
<mgrwt>
<rscale>  0 0.31813082E+04</rscale>
<asrwt>0</asrwt>
<pdfrwt beam="1">  1        2 0.30026047E+00 0.31813082E+04</pdfrwt>
<pdfrwt beam="2">  1       -1 0.19944660E+00 0.31813082E+04</pdfrwt>
<totfact> 0.10353713E+00</totfact>
</mgrwt>
</event>
<event>
12    6  0.1395358E-007  0.1180508E+04  0.7818608E-02  0.9130091E-01
         -3   -1    0    0    0  501 -0.00000000000E+00  0.00000000000E+00  0.31366159425E+03  0.31366159425E+03  0.00000000000E+00 0.  1.
          4   -1    0    0  501    0  0.00000000000E+00 -0.00000000000E+00 -0.11107501701E+04  0.11107501701E+04  0.00000000000E+00 0. -1.
         24    2    1    2    0    0  0.40934192668E+02 -0.23321809278E+03 -0.15742714466E+03  0.29406546836E+03  0.74999379162E+02 0.  0.
        254    2    1    2    0    0 -0.40934192668E+02  0.23321809278E+03 -0.63966143120E+03  0.11303462960E+04  0.90135992554E+03 0.  0.
         23    2    4    4    0    0 -0.17687927734E+02  0.20223282239E+03  0.19050619738E+03  0.29337005960E+03  0.92533255588E+02 0.  0.
         23    2    4    4    0    0 -0.23246264934E+02  0.30985270390E+02 -0.83016762858E+03  0.83697623639E+03  0.99249447958E+02 0.  0.
          2    1    3    3  502    0 -0.63819516337E+01  0.29906742904E+01 -0.18234765547E+01  0.72800072879E+01  0.00000000000E+00 0. -1.
         -1    1    3    3    0  502  0.47316144302E+02 -0.23620876707E+03 -0.15560366811E+03  0.28678546107E+03  0.00000000000E+00 0.  1.
         11    1    5    5    0    0  0.36241512760E+02  0.96853618914E+02  0.73063474955E+02  0.12661888531E+03  0.00000000000E+00 0. -1.
        -11    1    5    5    0    0 -0.53929440494E+02  0.10537920348E+03  0.11744272243E+03  0.16675117430E+03  0.00000000000E+00 0.  1.
          4    1    6    6  503    0 -0.58857612226E+02  0.16120417468E+02 -0.35171418946E+03  0.35696912674E+03  0.00000000000E+00 0. -1.
         -4    1    6    6    0  503  0.35611347292E+02  0.14864852922E+02 -0.47845343912E+03  0.48000710965E+03  0.00000000000E+00 0.  1.
<mgrwt>
<rscale>  0 0.11805078E+04</rscale>
<asrwt>0</asrwt>
<pdfrwt beam="1">  1        4 0.17088464E+00 0.11805078E+04</pdfrwt>
<pdfrwt beam="2">  1       -3 0.48255631E-01 0.11805078E+04</pdfrwt>
<totfact> 0.20070860E+00</totfact>
</mgrwt>
</event>
<event>
12    6  0.1395358E-007  0.1461548E+04  0.7818608E-02  0.8910434E-01
         -1   -1    0    0    0  501 -0.00000000000E+00  0.00000000000E+00  0.20252404391E+04  0.20252404391E+04  0.00000000000E+00 0.  1.
          2   -1    0    0  501    0  0.00000000000E+00 -0.00000000000E+00 -0.26368746987E+03  0.26368746987E+03  0.00000000000E+00 0. -1.
         24    2    1    2    0    0 -0.12093035967E+03  0.41345504245E+03  0.34934542560E+03  0.55951723443E+03  0.73811145637E+02 0.  0.
        254    2    1    2    0    0  0.12093035967E+03 -0.41345504245E+03  0.14122075436E+04  0.17294106745E+04  0.90053423639E+03 0.  0.
         23    2    4    4    0    0 -0.32980056652E+03  0.15423891536E+02  0.32001669147E+03  0.46909884552E+03  0.92934030021E+02 0.  0.
         23    2    4    4    0    0  0.45073092619E+03 -0.42887893398E+03  0.10921908522E+04  0.12603118290E+04  0.91703549476E+02 0.  0.
          2    1    3    3  502    0 -0.12526350025E+03  0.36539451952E+03  0.28992464472E+03  0.48297039144E+03  0.00000000000E+00 0. -1.
         -1    1    3    3    0  502  0.43331405814E+01  0.48060522926E+02  0.59420780880E+02  0.76546842990E+02  0.00000000000E+00 0.  1.
         11    1    5    5    0    0 -0.15803633766E+03 -0.20022030483E+02  0.10143162164E+03  0.18885110430E+03  0.00000000000E+00 0.  1.
        -11    1    5    5    0    0 -0.17176422886E+03  0.35445922019E+02  0.21858506984E+03  0.28024774122E+03  0.00000000000E+00 0. -1.
          3    1    6    6  503    0  0.25102928037E+03 -0.28574255811E+03  0.60401908494E+03  0.71379518357E+03  0.00000000000E+00 0. -1.
         -3    1    6    6    0  503  0.19970164582E+03 -0.14313637588E+03  0.48817176723E+03  0.54651664546E+03  0.00000000000E+00 0.  1.
<mgrwt>
<rscale>  0 0.14615478E+04</rscale>
<asrwt>0</asrwt>
<pdfrwt beam="1">  1        2 0.40567304E-01 0.14615478E+04</pdfrwt>
<pdfrwt beam="2">  1       -1 0.31157544E+00 0.14615478E+04</pdfrwt>
<totfact> 0.39230334E+00</totfact>
</mgrwt>
</event>
<event>
12    6  0.1395358E-007  0.3579922E+04  0.7818608E-02  0.8095106E-01
          2   -1    0    0  501    0  0.00000000000E+00  0.00000000000E+00  0.20380573775E+04  0.20380573775E+04  0.00000000000E+00 0. -1.
         -1   -1    0    0    0  501 -0.00000000000E+00 -0.00000000000E+00 -0.15720657253E+04  0.15720657253E+04  0.00000000000E+00 0.  1.
         24    2    1    2    0    0  0.16730257339E+04  0.82406347776E+02  0.17757265679E+03  0.16867392363E+04  0.88041413097E+02 0.  0.
        254    2    1    2    0    0 -0.16730257339E+04 -0.82406347776E+02  0.28841899535E+03  0.19233838665E+04  0.90023000880E+03 0.  0.
         23    2    4    4    0    0 -0.49562367227E+02  0.18006066233E+03 -0.10073764688E+03  0.23095245802E+03  0.91173976576E+02 0.  0.
         23    2    4    4    0    0 -0.16234633667E+04 -0.26246701010E+03  0.38915664222E+03  0.16924314085E+04  0.91427271851E+02 0.  0.
          4    1    3    3  502    0  0.67021039822E+03  0.18067807773E+01  0.10099807545E+03  0.67778009234E+03  0.00000000000E+00 0. -1.
         -3    1    3    3    0  502  0.10028153357E+04  0.80599566999E+02  0.76574581340E+02  0.10089591440E+04  0.00000000000E+00 0.  1.
         11    1    5    5    0    0 -0.57796839711E+02  0.50256432949E+02 -0.25666641468E+02  0.80777225860E+02  0.00000000000E+00 0. -1.
        -11    1    5    5    0    0  0.82344724840E+01  0.12980422938E+03 -0.75071005410E+02  0.15017523216E+03  0.00000000000E+00 0.  1.
          2    1    6    6  503    0 -0.70473210169E+03 -0.14832657709E+03  0.13940161040E+03  0.73353999046E+03  0.00000000000E+00 0. -1.
         -2    1    6    6    0  503 -0.91873126497E+03 -0.11414043301E+03  0.24975503182E+03  0.95889141805E+03  0.00000000000E+00 0.  1.
<mgrwt>
<rscale>  0 0.35799219E+04</rscale>
<asrwt>0</asrwt>
<pdfrwt beam="1">  1        2 0.31354729E+00 0.35799219E+04</pdfrwt>
<pdfrwt beam="2">  1       -1 0.24185627E+00 0.35799219E+04</pdfrwt>
<totfact> 0.46575497E-01</totfact>
</mgrwt>
</event>
<event>
12    6  0.1395358E-007  0.3077619E+04  0.7818608E-02  0.8221907E-01
          2   -1    0    0  501    0  0.00000000000E+00  0.00000000000E+00  0.14427339557E+04  0.14427339557E+04  0.00000000000E+00 0. -1.
         -1   -1    0    0    0  501 -0.00000000000E+00 -0.00000000000E+00 -0.16412827778E+04  0.16412827778E+04  0.00000000000E+00 0.  1.
         24    2    1    2    0    0 -0.66593046393E+03  0.11679195613E+04 -0.50283817648E+03  0.14377264967E+04  0.81925351491E+02 0.  0.
        254    2    1    2    0    0  0.66593046393E+03 -0.11679195613E+04  0.30428935440E+03  0.16462902368E+04  0.90010002120E+03 0.  0.
         23    2    4    4    0    0  0.97095155769E+02 -0.77276204727E+03  0.48825645704E+03  0.92400052765E+03  0.93776096600E+02 0.  0.
         23    2    4    4    0    0  0.56883530816E+03 -0.39515751403E+03 -0.18396710265E+03  0.72228970915E+03  0.90196787035E+02 0.  0.
          2    1    3    3  502    0 -0.20957329561E+03  0.40640109694E+03 -0.13518912802E+03  0.47682168382E+03  0.00000000000E+00 0. -1.
         -1    1    3    3    0  502 -0.45635716832E+03  0.76151846435E+03 -0.36764904846E+03  0.96090481290E+03  0.00000000000E+00 0.  1.
         11    1    5    5    0    0 -0.16371958418E+02 -0.18922354893E+03  0.12333916342E+03  0.22646443810E+03  0.00000000000E+00 0. -1.
        -11    1    5    5    0    0  0.11346711419E+03 -0.58353849834E+03  0.36491729362E+03  0.69753608955E+03  0.00000000000E+00 0.  1.
          3    1    6    6  503    0  0.85827683515E+02 -0.84860729741E+02 -0.44232243200E+01  0.12077789377E+03  0.00000000000E+00 0. -1.
         -3    1    6    6    0  503  0.48300762465E+03 -0.31029678429E+03 -0.17954387833E+03  0.60151181539E+03  0.00000000000E+00 0.  1.
<mgrwt>
<rscale>  0 0.30776188E+04</rscale>
<asrwt>0</asrwt>
<pdfrwt beam="1">  1        2 0.22195907E+00 0.30776188E+04</pdfrwt>
<pdfrwt beam="2">  1       -1 0.25250504E+00 0.30776188E+04</pdfrwt>
<totfact> 0.88958867E-01</totfact>
</mgrwt>
</event>
<event>
12    6  0.1395358E-007  0.1387401E+04  0.7818608E-02  0.8962989E-01
         -1   -1    0    0    0  501 -0.00000000000E+00  0.00000000000E+00  0.68752850007E+03  0.68752850007E+03  0.00000000000E+00 0.  1.
          2   -1    0    0  501    0  0.00000000000E+00 -0.00000000000E+00 -0.69992811286E+03  0.69992811286E+03  0.00000000000E+00 0. -1.
         24    2    1    2    0    0  0.15877145890E+02  0.36998317580E+03  0.14374027094E+03  0.40217757082E+03  0.62816389978E+02 0.  0.
        254    2    1    2    0    0 -0.15877145890E+02 -0.36998317580E+03 -0.15613988372E+03  0.98527904211E+03  0.89958629014E+03 0.  0.
         23    2    4    4    0    0  0.13638056509E+03 -0.24210125506E+03  0.33670503213E+03  0.44633253449E+03  0.92896590064E+02 0.  0.
         23    2    4    4    0    0 -0.15225771098E+03 -0.12788192073E+03 -0.49284491585E+03  0.53894650762E+03  0.89616018625E+02 0.  0.
          4    1    3    3  502    0  0.22898643838E+02  0.15410103949E+03  0.32216542074E+02  0.15908923233E+03  0.00000000000E+00 0. -1.
         -3    1    3    3    0  502 -0.70214979479E+01  0.21588213631E+03  0.11152372886E+03  0.24308833849E+03  0.00000000000E+00 0.  1.
         11    1    5    5    0    0  0.14412541517E+03 -0.21477667057E+03  0.27033886859E+03  0.37414470114E+03  0.00000000000E+00 0.  1.
        -11    1    5    5    0    0 -0.77448500887E+01 -0.27324584490E+02  0.66366163539E+02  0.72187833347E+02  0.00000000000E+00 0. -1.
          1    1    6    6  503    0  0.10401544424E+02 -0.30575709128E+01 -0.11778235018E+02  0.16008363016E+02  0.00000000000E+00 0. -1.
         -1    1    6    6    0  503 -0.16265925540E+03 -0.12482434982E+03 -0.48106668083E+03  0.52293814461E+03  0.00000000000E+00 0.  1.
<mgrwt>
<rscale>  0 0.13874012E+04</rscale>
<asrwt>0</asrwt>
<pdfrwt beam="1">  1        2 0.10768125E+00 0.13874012E+04</pdfrwt>
<pdfrwt beam="2">  1       -1 0.10577362E+00 0.13874012E+04</pdfrwt>
<totfact> 0.38177257E+01</totfact>
</mgrwt>
</event>
<event>
12    6  0.1395358E-007  0.3030774E+04  0.7818608E-02  0.8234998E-01
         -1   -1    0    0    0  501 -0.00000000000E+00  0.00000000000E+00  0.20305260306E+04  0.20305260306E+04  0.00000000000E+00 0.  1.
          2   -1    0    0  501    0  0.00000000000E+00 -0.00000000000E+00 -0.11309370435E+04  0.11309370435E+04  0.00000000000E+00 0. -1.
         24    2    1    2    0    0  0.12752917915E+04 -0.46778654423E+03  0.66874673461E+03  0.15159722138E+04  0.75869318238E+02 0.  0.
        254    2    1    2    0    0 -0.12752917915E+04  0.46778654423E+03  0.23084225248E+03  0.16454908604E+04  0.89953244615E+03 0.  0.
         23    2    4    4    0    0 -0.13957663991E+04  0.39093037580E+03  0.15905270094E+03  0.14609427383E+04  0.89808259180E+02 0.  0.
         23    2    4    4    0    0  0.12047460755E+03  0.76856168434E+02  0.71789551549E+02  0.18454812211E+03  0.92104657713E+02 0.  0.
          4    1    3    3  502    0  0.42821202649E+03 -0.11930827088E+03  0.22180918554E+03  0.49678900745E+03  0.00000000000E+00 0. -1.
         -3    1    3    3    0  502  0.84707976501E+03 -0.34847827335E+03  0.44693754906E+03  0.10191832063E+04  0.00000000000E+00 0.  1.
         11    1    5    5    0    0 -0.11428479877E+04  0.34825493069E+03  0.15190484420E+03  0.12043496591E+04  0.00000000000E+00 0. -1.
        -11    1    5    5    0    0 -0.25291841136E+03  0.42675445113E+02  0.71478567406E+01  0.25659307917E+03  0.00000000000E+00 0.  1.
          4    1    6    6  503    0  0.51089074008E+02 -0.66997637446E+01 -0.46507728089E+01  0.51735964328E+02  0.00000000000E+00 0. -1.
         -4    1    6    6    0  503  0.69385533546E+02  0.83555932179E+02  0.76440324358E+02  0.13281215779E+03  0.00000000000E+00 0.  1.
<mgrwt>
<rscale>  0 0.30307736E+04</rscale>
<asrwt>0</asrwt>
<pdfrwt beam="1">  1        2 0.17399031E+00 0.30307736E+04</pdfrwt>
<pdfrwt beam="2">  1       -1 0.31238862E+00 0.30307736E+04</pdfrwt>
<totfact> 0.55653186E-01</totfact>
</mgrwt>
</event>
<event>
12    6  0.1395358E-007  0.1129250E+04  0.7818608E-02  0.9177142E-01
          2   -1    0    0  501    0  0.00000000000E+00  0.00000000000E+00  0.13918160133E+04  0.13918160133E+04  0.00000000000E+00 0. -1.
         -1   -1    0    0    0  501 -0.00000000000E+00 -0.00000000000E+00 -0.22905435662E+03  0.22905435662E+03  0.00000000000E+00 0.  1.
         24    2    1    2    0    0  0.39772479443E+02 -0.10886256743E+03  0.43853166935E+03  0.46056673768E+03  0.79867303217E+02 0.  0.
        254    2    1    2    0    0 -0.39772479443E+02  0.10886256743E+03  0.72422998731E+03  0.11603036322E+04  0.89908983741E+03 0.  0.
         23    2    4    4    0    0 -0.19930760409E+03  0.42672086180E+03  0.61002768916E+03  0.77592559707E+03  0.90069615873E+02 0.  0.
         23    2    4    4    0    0  0.15953512465E+03 -0.31785829437E+03  0.11420229815E+03  0.38437803516E+03  0.90658467397E+02 0.  0.
          4    1    3    3  502    0  0.26883810023E+02  0.33050885858E+01  0.10526886691E+03  0.10869773315E+03  0.00000000000E+00 0. -1.
         -3    1    3    3    0  502  0.12888669421E+02 -0.11216765601E+03  0.33326280244E+03  0.35186900453E+03  0.00000000000E+00 0.  1.
         11    1    5    5    0    0 -0.11640684023E+03  0.14957054066E+03  0.26204336093E+03  0.32340164207E+03  0.00000000000E+00 0.  1.
        -11    1    5    5    0    0 -0.82900763865E+02  0.27715032114E+03  0.34798432823E+03  0.45252395501E+03  0.00000000000E+00 0. -1.
          4    1    6    6  503    0  0.11308050248E+03 -0.13462467723E+03  0.75935617784E+02  0.19151298078E+03  0.00000000000E+00 0.  1.
         -4    1    6    6    0  503  0.46454622169E+02 -0.18323361715E+03  0.38266680365E+02  0.19286505438E+03  0.00000000000E+00 0. -1.
<mgrwt>
<rscale>  0 0.11292502E+04</rscale>
<asrwt>0</asrwt>
<pdfrwt beam="1">  1        2 0.21412554E+00 0.11292502E+04</pdfrwt>
<pdfrwt beam="2">  1       -1 0.35239133E-01 0.11292502E+04</pdfrwt>
<totfact> 0.12654320E+02</totfact>
</mgrwt>
</event>
<event>
12    6  0.1395358E-007  0.1775384E+04  0.7818608E-02  0.8719501E-01
         -1   -1    0    0    0  501 -0.00000000000E+00  0.00000000000E+00  0.17560584902E+04  0.17560584902E+04  0.00000000000E+00 0.  1.
          2   -1    0    0  501    0  0.00000000000E+00 -0.00000000000E+00 -0.44873053401E+03  0.44873053401E+03  0.00000000000E+00 0. -1.
         24    2    1    2    0    0 -0.15913002307E+03  0.63479623380E+03  0.56104491507E+03  0.86578352055E+03  0.80753235472E+02 0.  0.
        254    2    1    2    0    0  0.15913002307E+03 -0.63479623380E+03  0.74628304115E+03  0.13390055037E+04  0.89872617559E+03 0.  0.
         23    2    4    4    0    0  0.10089934242E+02  0.11039352593E+02  0.65861261325E+03  0.66444683645E+03  0.86575689747E+02 0.  0.
         23    2    4    4    0    0  0.14904008883E+03 -0.64583558640E+03  0.87670427899E+02  0.67455866723E+03  0.89592069272E+02 0.  0.
          4    1    3    3  502    0 -0.13991878872E+03  0.44429779604E+03  0.42845384269E+03  0.63289058637E+03  0.00000000000E+00 0. -1.
         -3    1    3    3    0  502 -0.19211234346E+02  0.19049843776E+03  0.13259107238E+03  0.23289293418E+03  0.00000000000E+00 0.  1.
         11    1    5    5    0    0 -0.15765480870E+02 -0.23054277051E+02  0.47877467325E+03  0.47958861310E+03  0.00000000000E+00 0. -1.
        -11    1    5    5    0    0  0.25855415112E+02  0.34093629644E+02  0.17983794000E+03  0.18485822334E+03  0.00000000000E+00 0.  1.
          3    1    6    6  503    0  0.14522862274E+03 -0.57843117673E+03  0.53190527036E+02  0.59875137682E+03  0.00000000000E+00 0. -1.
         -3    1    6    6    0  503  0.38114660829E+01 -0.67404409671E+02  0.34479900863E+02  0.75807290416E+02  0.00000000000E+00 0.  1.
<mgrwt>
<rscale>  0 0.17753840E+04</rscale>
<asrwt>0</asrwt>
<pdfrwt beam="1">  1        2 0.69035467E-01 0.17753840E+04</pdfrwt>
<pdfrwt beam="2">  1       -1 0.27016284E+00 0.17753840E+04</pdfrwt>
<totfact> 0.38906752E+00</totfact>
</mgrwt>
</event>
<event>
12    6  0.1395358E-007  0.1390078E+04  0.7818608E-02  0.8961032E-01
         -1   -1    0    0    0  501 -0.00000000000E+00  0.00000000000E+00  0.37083744732E+03  0.37083744732E+03  0.00000000000E+00 0.  1.
          2   -1    0    0  501    0  0.00000000000E+00 -0.00000000000E+00 -0.13026715247E+04  0.13026715247E+04  0.00000000000E+00 0. -1.
         24    2    1    2    0    0 -0.13744184969E+03 -0.27575287590E+03 -0.56722366705E+03  0.65066950073E+03  0.81842532379E+02 0.  0.
        254    2    1    2    0    0  0.13744184969E+03  0.27575287590E+03 -0.36461041033E+03  0.10228394713E+04  0.90461589756E+03 0.  0.
         23    2    4    4    0    0  0.81867341789E+01 -0.99342234768E+02  0.25126961838E+03  0.28547964750E+03  0.91794911570E+02 0.  0.
         23    2    4    4    0    0  0.12925511551E+03  0.37509511066E+03 -0.61588002871E+03  0.73735982380E+03  0.83594695161E+02 0.  0.
          2    1    3    3  502    0 -0.13331312799E+03 -0.25447533591E+03 -0.55696527297E+03  0.62669003661E+03  0.00000000000E+00 0. -1.
         -1    1    3    3    0  502 -0.41287216996E+01 -0.21277539981E+02 -0.10258394074E+02  0.23979464120E+02  0.00000000000E+00 0.  1.
         11    1    5    5    0    0  0.23921480256E+02 -0.66477654311E+02  0.23533366503E+03  0.24571009266E+03  0.00000000000E+00 0. -1.
        -11    1    5    5    0    0 -0.15734746077E+02 -0.32864580457E+02  0.15935953352E+02  0.39769554837E+02  0.00000000000E+00 0.  1.
          1    1    6    6  503    0  0.45544564994E+02  0.18201784816E+03 -0.36083752991E+03  0.40670447187E+03  0.00000000000E+00 0. -1.
         -1    1    6    6    0  503  0.83710550519E+02  0.19307726250E+03 -0.25504249881E+03  0.33065535193E+03  0.00000000000E+00 0.  1.
<mgrwt>
<rscale>  0 0.13900782E+04</rscale>
<asrwt>0</asrwt>
<pdfrwt beam="1">  1        2 0.20041101E+00 0.13900782E+04</pdfrwt>
<pdfrwt beam="2">  1       -1 0.57051914E-01 0.13900782E+04</pdfrwt>
<totfact> 0.56884539E+01</totfact>
</mgrwt>
</event>
<event>
12    6  0.1395358E-007  0.2074793E+04  0.7818608E-02  0.8572429E-01
          2   -1    0    0  501    0  0.00000000000E+00  0.00000000000E+00  0.10272237928E+04  0.10272237928E+04  0.00000000000E+00 0. -1.
         -1   -1    0    0    0  501 -0.00000000000E+00 -0.00000000000E+00 -0.10476697961E+04  0.10476697961E+04  0.00000000000E+00 0.  1.
         24    2    1    2    0    0 -0.34318667497E+03 -0.69832382074E+03  0.29743362596E+03  0.83623879517E+03  0.73452761690E+02 0.  0.
        254    2    1    2    0    0  0.34318667497E+03  0.69832382074E+03 -0.31787962921E+03  0.12386547937E+04  0.90982689933E+03 0.  0.
         23    2    4    4    0    0  0.58231894505E+03  0.28417910993E+03  0.64694286968E+01  0.65374178148E+03  0.86506318002E+02 0.  0.
         23    2    4    4    0    0 -0.23913227008E+03  0.41414471081E+03 -0.32434905791E+03  0.58491301221E+03  0.90668828147E+02 0.  0.
          2    1    3    3  502    0 -0.17940164061E+03 -0.40876065200E+03  0.20324049475E+03  0.49048640958E+03  0.00000000000E+00 0. -1.
         -1    1    3    3    0  502 -0.16378503436E+03 -0.28956316874E+03  0.94193131211E+02  0.34575238559E+03  0.00000000000E+00 0.  1.
         11    1    5    5    0    0  0.31828864411E+03  0.16709668842E+03  0.45262170180E+02  0.36232254732E+03  0.00000000000E+00 0.  1.
        -11    1    5    5    0    0  0.26403030095E+03  0.11708242151E+03 -0.38792741483E+02  0.29141923415E+03  0.00000000000E+00 0. -1.
          3    1    6    6  503    0 -0.70293421560E+02  0.11453920221E+03 -0.44599915962E+02  0.14159642107E+03  0.00000000000E+00 0. -1.
         -3    1    6    6    0  503 -0.16883884852E+03  0.29960550860E+03 -0.27974914195E+03  0.44331659113E+03  0.00000000000E+00 0.  1.
<mgrwt>
<rscale>  0 0.20747928E+04</rscale>
<asrwt>0</asrwt>
<pdfrwt beam="1">  1        2 0.15803443E+00 0.20747928E+04</pdfrwt>
<pdfrwt beam="2">  1       -1 0.16117997E+00 0.20747928E+04</pdfrwt>
<totfact> 0.72968059E+00</totfact>
</mgrwt>
</event>
<event>
12    6  0.1395358E-007  0.2301111E+04  0.7818608E-02  0.8477483E-01
         -1   -1    0    0    0  501 -0.00000000000E+00  0.00000000000E+00  0.10774920855E+04  0.10774920855E+04  0.00000000000E+00 0.  1.
          2   -1    0    0  501    0  0.00000000000E+00 -0.00000000000E+00 -0.12285732122E+04  0.12285732122E+04  0.00000000000E+00 0. -1.
         24    2    1    2    0    0 -0.13846186289E+02  0.90505628165E+03 -0.42042203494E+03  0.10011986046E+04  0.79532185404E+02 0.  0.
        254    2    1    2    0    0  0.13846186289E+02 -0.90505628165E+03  0.26934090822E+03  0.13048666931E+04  0.90045209319E+03 0.  0.
         23    2    4    4    0    0 -0.23411637940E+03 -0.48238175713E+03  0.51554415577E+03  0.74912988097E+03  0.88922231769E+02 0.  0.
         23    2    4    4    0    0  0.24796256569E+03 -0.42267452451E+03 -0.24620324755E+03  0.55573681214E+03  0.89934296073E+02 0.  0.
          4    1    3    3  502    0  0.25611828335E+02  0.12604791984E+03 -0.61768065981E+02  0.14268615147E+03  0.00000000000E+00 0. -1.
         -3    1    3    3    0  502 -0.39458014623E+02  0.77900836181E+03 -0.35865396896E+03  0.85851245310E+03  0.00000000000E+00 0.  1.
         11    1    5    5    0    0 -0.16157051993E+03 -0.30223440776E+03  0.27136992274E+03  0.43714105860E+03  0.00000000000E+00 0. -1.
        -11    1    5    5    0    0 -0.72545859471E+02 -0.18014734937E+03  0.24417423303E+03  0.31198882237E+03  0.00000000000E+00 0.  1.
          1    1    6    6  503    0  0.24413063003E+03 -0.39475084854E+03 -0.25017694403E+03  0.52727270009E+03  0.00000000000E+00 0. -1.
         -1    1    6    6    0  503  0.38319356596E+01 -0.27923675976E+02  0.39736964833E+01  0.28464112047E+02  0.00000000000E+00 0.  1.
<mgrwt>
<rscale>  0 0.23011110E+04</rscale>
<asrwt>0</asrwt>
<pdfrwt beam="1">  1        2 0.18901126E+00 0.23011110E+04</pdfrwt>
<pdfrwt beam="2">  1       -1 0.16576801E+00 0.23011110E+04</pdfrwt>
<totfact> 0.49771993E+00</totfact>
</mgrwt>
</event>
<event>
12    6  0.1395358E-007  0.2724119E+04  0.7818608E-02  0.8327221E-01
         -1   -1    0    0    0  501 -0.00000000000E+00  0.00000000000E+00  0.22471576715E+04  0.22471576715E+04  0.00000000000E+00 0.  1.
          2   -1    0    0  501    0  0.00000000000E+00 -0.00000000000E+00 -0.82557889174E+03  0.82557889174E+03  0.00000000000E+00 0. -1.
         24    2    1    2    0    0  0.33819675491E+03 -0.11524798913E+04  0.45241540591E+03  0.12860508952E+04  0.81610421050E+02 0.  0.
        254    2    1    2    0    0 -0.33819675491E+03  0.11524798913E+04  0.96916337385E+03  0.17866856680E+04  0.90021168973E+03 0.  0.
         23    2    4    4    0    0 -0.54557846329E+03  0.10769704619E+04  0.96475873711E+03  0.15481376280E+04  0.91920939870E+02 0.  0.
         23    2    4    4    0    0  0.20738170838E+03  0.75509429374E+02  0.44046367445E+01  0.23854803998E+03  0.90426321712E+02 0.  0.
          4    1    3    3  502    0  0.59246220136E+02 -0.11325033666E+03  0.45815525214E+02  0.13577487140E+03  0.00000000000E+00 0. -1.
         -1    1    3    3    0  502  0.27895053478E+03 -0.10392295546E+04  0.40659988070E+03  0.11502760238E+04  0.00000000000E+00 0.  1.
         11    1    5    5    0    0 -0.38628546526E+03  0.81340682570E+03  0.67602347379E+03  0.11259906136E+04  0.00000000000E+00 0.  1.
        -11    1    5    5    0    0 -0.15929299803E+03  0.26356363618E+03  0.28873526332E+03  0.42214701446E+03  0.00000000000E+00 0. -1.
          2    1    6    6  503    0  0.23648381662E+02 -0.10430314155E+02 -0.22072199652E+02  0.33988518739E+02  0.00000000000E+00 0.  1.
         -2    1    6    6    0  503  0.18373332672E+03  0.85939743529E+02  0.26476836396E+02  0.20455952124E+03  0.00000000000E+00 0. -1.
<mgrwt>
<rscale>  0 0.27241189E+04</rscale>
<asrwt>0</asrwt>
<pdfrwt beam="1">  1        2 0.12701214E+00 0.27241189E+04</pdfrwt>
<pdfrwt beam="2">  1       -1 0.34571656E+00 0.27241189E+04</pdfrwt>
<totfact> 0.54679544E-01</totfact>
</mgrwt>
</event>
<event>
12    6  0.1395358E-007  0.1451443E+04  0.7818608E-02  0.8917400E-01
          2   -1    0    0  501    0  0.00000000000E+00  0.00000000000E+00  0.19211569806E+04  0.19211569806E+04  0.00000000000E+00 0. -1.
         -1   -1    0    0    0  501 -0.00000000000E+00 -0.00000000000E+00 -0.27414309072E+03  0.27414309072E+03  0.00000000000E+00 0.  1.
         24    2    1    2    0    0  0.38382506604E+03 -0.21153801386E+03  0.41967933580E+03  0.61184607959E+03  0.78452964174E+02 0.  0.
        254    2    1    2    0    0 -0.38382506604E+03  0.21153801386E+03  0.12273345541E+04  0.15834539917E+04  0.89939225238E+03 0.  0.
         23    2    4    4    0    0 -0.46829952035E+03  0.39124062658E+03  0.12173991487E+04  0.13646837410E+04  0.89035707078E+02 0.  0.
         23    2    4    4    0    0  0.84474454313E+02 -0.17970261273E+03  0.99354053597E+01  0.21877025067E+03  0.91283886027E+02 0.  0.
          2    1    3    3  502    0  0.34093239760E+03 -0.20914595749E+03  0.39576839285E+03  0.56268068391E+03  0.00000000000E+00 0. -1.
         -1    1    3    3    0  502  0.42892668441E+02 -0.23920563635E+01  0.23910942950E+02  0.49165395681E+02  0.00000000000E+00 0.  1.
         11    1    5    5    0    0 -0.15526544928E+01  0.80238239779E+01  0.35619787003E+01  0.89151657003E+01  0.00000000000E+00 0. -1.
        -11    1    5    5    0    0 -0.46674686586E+03  0.38321680260E+03  0.12138371700E+04  0.13557685753E+04  0.00000000000E+00 0.  1.
          3    1    6    6  503    0  0.76091900319E+02 -0.87654230834E+02  0.38063201310E+02  0.12215583806E+03  0.00000000000E+00 0. -1.
         -3    1    6    6    0  503  0.83825539941E+01 -0.92048381891E+02 -0.28127795951E+02  0.96614412617E+02  0.00000000000E+00 0.  1.
<mgrwt>
<rscale>  0 0.14514433E+04</rscale>
<asrwt>0</asrwt>
<pdfrwt beam="1">  1        2 0.29556260E+00 0.14514433E+04</pdfrwt>
<pdfrwt beam="2">  1       -1 0.42175861E-01 0.14514433E+04</pdfrwt>
<totfact> 0.45116342E+01</totfact>
</mgrwt>
</event>
<event>
12    6  0.1395358E-007  0.4807794E+04  0.7818608E-02  0.7858861E-01
         -1   -1    0    0    0  501 -0.00000000000E+00  0.00000000000E+00  0.25481599133E+04  0.25481599133E+04  0.00000000000E+00 0.  1.
          2   -1    0    0  501    0  0.00000000000E+00 -0.00000000000E+00 -0.22678019273E+04  0.22678019273E+04  0.00000000000E+00 0. -1.
         24    2    1    2    0    0 -0.19546279548E+03  0.20132218634E+04 -0.10015853160E+04  0.22582454839E+04  0.72329415110E+02 0.  0.
        254    2    1    2    0    0  0.19546279548E+03 -0.20132218634E+04  0.12819433020E+04  0.25577163567E+04  0.89848002540E+03 0.  0.
         23    2    4    4    0    0  0.35386012889E+03 -0.31429375962E+03  0.44266956268E+03  0.65441420292E+03  0.91126555483E+02 0.  0.
         23    2    4    4    0    0 -0.15839733341E+03 -0.16989281038E+04  0.83927373929E+03  0.19033021538E+04  0.82050362165E+02 0.  0.
          2    1    3    3  502    0 -0.18899622562E+03  0.16657406109E+04 -0.83247179862E+03  0.18717426778E+04  0.00000000000E+00 0. -1.
         -1    1    3    3    0  502 -0.64665698584E+01  0.34748125249E+03 -0.16911351737E+03  0.38650280609E+03  0.00000000000E+00 0.  1.
         11    1    5    5    0    0  0.12322080877E+03 -0.12373215423E+03  0.22307664704E+03  0.28329525969E+03  0.00000000000E+00 0.  1.
        -11    1    5    5    0    0  0.23063932012E+03 -0.19056160538E+03  0.21959291564E+03  0.37111894324E+03  0.00000000000E+00 0. -1.
          1    1    6    6  503    0 -0.57232425446E+02 -0.46500761704E+03  0.26857596933E+03  0.54003767065E+03  0.00000000000E+00 0. -1.
         -1    1    6    6    0  503 -0.10116490797E+03 -0.12339204868E+04  0.57069776996E+03  0.13632644831E+04  0.00000000000E+00 0.  1.
<mgrwt>
<rscale>  0 0.48077945E+04</rscale>
<asrwt>0</asrwt>
<pdfrwt beam="1">  1        2 0.34889260E+00 0.48077945E+04</pdfrwt>
<pdfrwt beam="2">  1       -1 0.39202460E+00 0.48077945E+04</pdfrwt>
<totfact> 0.32259204E-02</totfact>
</mgrwt>
</event>
<event>
12    6  0.1395358E-007  0.1491150E+04  0.7818608E-02  0.8890359E-01
         -1   -1    0    0    0  501 -0.00000000000E+00  0.00000000000E+00  0.11387334408E+04  0.11387334408E+04  0.00000000000E+00 0.  1.
          2   -1    0    0  501    0  0.00000000000E+00 -0.00000000000E+00 -0.48815829033E+03  0.48815829033E+03  0.00000000000E+00 0. -1.
         24    2    1    2    0    0 -0.35713399224E+03 -0.28328777912E+03  0.85166237861E+02  0.47044034804E+03  0.79146565182E+02 0.  0.
        254    2    1    2    0    0  0.35713399224E+03  0.28328777912E+03  0.56540891259E+03  0.11564513831E+04  0.89994216967E+03 0.  0.
         23    2    4    4    0    0 -0.25327945930E+03 -0.36563001890E+02  0.32321586160E+03  0.42031316079E+03  0.81898243732E+02 0.  0.
         23    2    4    4    0    0  0.61041345154E+03  0.31985078101E+03  0.24219305098E+03  0.73613822228E+03  0.91284743686E+02 0.  0.
          2    1    3    3  502    0 -0.20299993119E+03 -0.12182428279E+03  0.69169226904E+02  0.24664652824E+03  0.00000000000E+00 0. -1.
         -1    1    3    3    0  502 -0.15413406105E+03 -0.16146349633E+03  0.15997010957E+02  0.22379381980E+03  0.00000000000E+00 0.  1.
         11    1    5    5    0    0 -0.84600536804E+02 -0.13763307507E+02  0.17395736297E+03  0.19392741836E+03  0.00000000000E+00 0.  1.
        -11    1    5    5    0    0 -0.16867892250E+03 -0.22799694382E+02  0.14925849864E+03  0.22638574242E+03  0.00000000000E+00 0. -1.
          3    1    6    6  503    0  0.30597767525E+03  0.19101901993E+03  0.87548035254E+02  0.37118090226E+03  0.00000000000E+00 0. -1.
         -3    1    6    6    0  503  0.30443577629E+03  0.12883176108E+03  0.15464501573E+03  0.36495732002E+03  0.00000000000E+00 0.  1.
<mgrwt>
<rscale>  0 0.14911501E+04</rscale>
<asrwt>0</asrwt>
<pdfrwt beam="1">  1        2 0.75101276E-01 0.14911501E+04</pdfrwt>
<pdfrwt beam="2">  1       -1 0.17518976E+00 0.14911501E+04</pdfrwt>
<totfact> 0.15780351E+01</totfact>
</mgrwt>
</event>
<event>
12    6  0.1395358E-007  0.1342778E+04  0.7818608E-02  0.8996313E-01
         -1   -1    0    0    0  501 -0.00000000000E+00  0.00000000000E+00  0.62189682833E+03  0.62189682833E+03  0.00000000000E+00 0.  1.
          2   -1    0    0  501    0  0.00000000000E+00 -0.00000000000E+00 -0.72481963767E+03  0.72481963767E+03  0.00000000000E+00 0. -1.
         24    2    1    2    0    0 -0.14125311819E+02  0.12213016212E+03 -0.37086970314E+03  0.39876394857E+03  0.79706016349E+02 0.  0.
        254    2    1    2    0    0  0.14125311819E+02 -0.12213016212E+03  0.26794689380E+03  0.94795251743E+03  0.90094569007E+03 0.  0.
         23    2    4    4    0    0  0.30442856881E+03 -0.16674083122E+03  0.46128317928E+03  0.58461256712E+03  0.92251958464E+02 0.  0.
         23    2    4    4    0    0 -0.29030325700E+03  0.44610669100E+02 -0.19333628548E+03  0.36333995031E+03  0.91492663031E+02 0.  0.
          2    1    3    3  502    0  0.71137584808E+01 -0.25361668224E+00 -0.10574349097E+03  0.10598280881E+03  0.00000000000E+00 0. -1.
         -1    1    3    3    0  502 -0.21239070300E+02  0.12238377880E+03 -0.26512621217E+03  0.29278113976E+03  0.00000000000E+00 0.  1.
         11    1    5    5    0    0  0.22569463270E+03 -0.16014738091E+03  0.32291484950E+03  0.42527549997E+03  0.00000000000E+00 0.  1.
        -11    1    5    5    0    0  0.78733936110E+02 -0.65934503073E+01  0.13836832978E+03  0.15933706715E+03  0.00000000000E+00 0. -1.
          2    1    6    6  503    0 -0.14764507470E+03 -0.14282054032E+02 -0.12729975659E+03  0.19546936634E+03  0.00000000000E+00 0. -1.
         -2    1    6    6    0  503 -0.14265818230E+03  0.58892723132E+02 -0.66036528888E+02  0.16787058397E+03  0.00000000000E+00 0.  1.
<mgrwt>
<rscale>  0 0.13427778E+04</rscale>
<asrwt>0</asrwt>
<pdfrwt beam="1">  1        2 0.11151071E+00 0.13427778E+04</pdfrwt>
<pdfrwt beam="2">  1       -1 0.95676435E-01 0.13427778E+04</pdfrwt>
<totfact> 0.46117089E+01</totfact>
</mgrwt>
</event>
<event>
12    6  0.1395358E-007  0.2252486E+04  0.7818608E-02  0.8496894E-01
          2   -1    0    0  501    0  0.00000000000E+00  0.00000000000E+00  0.12004235631E+04  0.12004235631E+04  0.00000000000E+00 0. -1.
         -1   -1    0    0    0  501 -0.00000000000E+00 -0.00000000000E+00 -0.10566466435E+04  0.10566466435E+04  0.00000000000E+00 0.  1.
         24    2    1    2    0    0 -0.74107894507E+03 -0.52584407465E+03  0.31848045260E+03  0.96606235838E+03  0.78337015128E+02 0.  0.
        254    2    1    2    0    0  0.74107894507E+03  0.52584407465E+03 -0.17470353298E+03  0.12910078482E+04  0.90026104332E+03 0.  0.
         23    2    4    4    0    0  0.31650354212E+03  0.25070374203E+02  0.32316918339E+03  0.46202635926E+03  0.90702920121E+02 0.  0.
         23    2    4    4    0    0  0.42457540295E+03  0.50077370044E+03 -0.49787271637E+03  0.82898148899E+03  0.91074121113E+02 0.  0.
          2    1    3    3  502    0 -0.16052523460E+03 -0.76641788872E+02  0.68519066789E+02  0.19062312887E+03  0.00000000000E+00 0. -1.
         -3    1    3    3    0  502 -0.58055371047E+03 -0.44920228577E+03  0.24996138581E+03  0.77543922952E+03  0.00000000000E+00 0.  1.
         11    1    5    5    0    0  0.84575084987E+02 -0.43614377996E+01  0.36780119608E+02  0.92329542068E+02  0.00000000000E+00 0.  1.
        -11    1    5    5    0    0  0.23192845713E+03  0.29431812002E+02  0.28638906378E+03  0.36969681719E+03  0.00000000000E+00 0. -1.
          3    1    6    6  503    0  0.23793597980E+03  0.22895468034E+03 -0.21043372648E+03  0.39155603606E+03  0.00000000000E+00 0. -1.
         -3    1    6    6    0  503  0.18663942314E+03  0.27181902011E+03 -0.28743898988E+03  0.43742545293E+03  0.00000000000E+00 0.  1.
<mgrwt>
<rscale>  0 0.22524862E+04</rscale>
<asrwt>0</asrwt>
<pdfrwt beam="1">  1        2 0.18468055E+00 0.22524862E+04</pdfrwt>
<pdfrwt beam="2">  1       -1 0.16256102E+00 0.22524862E+04</pdfrwt>
<totfact> 0.54896385E+00</totfact>
</mgrwt>
</event>
<event>
12    6  0.1395358E-007  0.1659591E+04  0.7818608E-02  0.8784753E-01
         -1   -1    0    0    0  501 -0.00000000000E+00  0.00000000000E+00  0.33166499100E+03  0.33166499100E+03  0.00000000000E+00 0.  1.
          2   -1    0    0  501    0  0.00000000000E+00 -0.00000000000E+00 -0.20760727570E+04  0.20760727570E+04  0.00000000000E+00 0. -1.
         24    2    1    2    0    0 -0.51482725807E+03 -0.12141759305E+02 -0.10115969120E+04  0.11379383350E+04  0.79879997942E+02 0.  0.
        254    2    1    2    0    0  0.51482725807E+03  0.12141759305E+02 -0.73281085400E+03  0.12697994129E+04  0.90010236827E+03 0.  0.
         23    2    4    4    0    0  0.38767270022E+03  0.10793516275E+03 -0.91994378303E+03  0.10082184054E+04  0.90926712946E+02 0.  0.
         23    2    4    4    0    0  0.12715455785E+03 -0.95793403449E+02  0.18713292903E+03  0.26158100757E+03  0.89784367603E+02 0.  0.
          2    1    3    3  502    0 -0.47358070166E+03 -0.32894427955E+02 -0.93125616833E+03  0.10452744976E+04  0.00000000000E+00 0. -1.
         -1    1    3    3    0  502 -0.41246556413E+02  0.20752668650E+02 -0.80340743654E+02  0.92663837406E+02  0.00000000000E+00 0.  1.
         11    1    5    5    0    0  0.20777208440E+02  0.11617379016E+02 -0.18283746789E+02  0.30015850520E+02  0.00000000000E+00 0. -1.
        -11    1    5    5    0    0  0.36689549178E+03  0.96317783738E+02 -0.90166003624E+03  0.97820255484E+03  0.00000000000E+00 0.  1.
          4    1    6    6  503    0  0.72100742856E+02 -0.74506238430E+02  0.56141465136E+02  0.11790488028E+03  0.00000000000E+00 0. -1.
         -4    1    6    6    0  503  0.55053814990E+02 -0.21287165019E+02  0.13099146389E+03  0.14367612729E+03  0.00000000000E+00 0.  1.
<mgrwt>
<rscale>  0 0.16595911E+04</rscale>
<asrwt>0</asrwt>
<pdfrwt beam="1">  1        2 0.31939581E+00 0.16595911E+04</pdfrwt>
<pdfrwt beam="2">  1       -1 0.51025383E-01 0.16595911E+04</pdfrwt>
<totfact> 0.25444367E+01</totfact>
</mgrwt>
</event>
<event>
12    6  0.1395358E-007  0.2311022E+04  0.7818608E-02  0.8473588E-01
         -1   -1    0    0    0  501 -0.00000000000E+00  0.00000000000E+00  0.69958432004E+03  0.69958432004E+03  0.00000000000E+00 0.  1.
          2   -1    0    0  501    0  0.00000000000E+00 -0.00000000000E+00 -0.19085701247E+04  0.19085701247E+04  0.00000000000E+00 0. -1.
         24    2    1    2    0    0 -0.57490978044E+03 -0.59537597511E+03 -0.11027435705E+04  0.13816175370E+04  0.88486319385E+02 0.  0.
        254    2    1    2    0    0  0.57490978044E+03  0.59537597511E+03 -0.10624223413E+03  0.12265369078E+04  0.89895025805E+03 0.  0.
         23    2    4    4    0    0  0.36874051768E+03 -0.99094946415E+02 -0.27275851540E+03  0.47766279091E+03  0.89303730667E+02 0.  0.
         23    2    4    4    0    0  0.20616926276E+03  0.69447092153E+03  0.16651628127E+03  0.74887411688E+03  0.91044743097E+02 0.  0.
          2    1    3    3  502    0 -0.16531719829E+03 -0.22211231467E+03 -0.33132714408E+03  0.43178852785E+03  0.00000000000E+00 0. -1.
         -1    1    3    3    0  502 -0.40959258216E+03 -0.37326366044E+03 -0.77141642646E+03  0.94982900913E+03  0.00000000000E+00 0.  1.
         11    1    5    5    0    0  0.27328719679E+03 -0.11111538291E+03 -0.21936538535E+03  0.36763255098E+03  0.00000000000E+00 0. -1.
        -11    1    5    5    0    0  0.95453320893E+02  0.12020436496E+02 -0.53393130048E+02  0.11003023993E+03  0.00000000000E+00 0.  1.
          4    1    6    6  503    0  0.16050765412E+03  0.52205250475E+03  0.84914276876E+02  0.55273136256E+03  0.00000000000E+00 0. -1.
         -4    1    6    6    0  503  0.45661608646E+02  0.17241841678E+03  0.81602004393E+02  0.19614275431E+03  0.00000000000E+00 0.  1.
<mgrwt>
<rscale>  0 0.23110221E+04</rscale>
<asrwt>0</asrwt>
<pdfrwt beam="1">  1        2 0.29362617E+00 0.23110221E+04</pdfrwt>
<pdfrwt beam="2">  1       -1 0.10762836E+00 0.23110221E+04</pdfrwt>
<totfact> 0.62214150E+00</totfact>
</mgrwt>
</event>
<event>
12    6  0.1395358E-007  0.1928834E+04  0.7818608E-02  0.8640635E-01
         -1   -1    0    0    0  501 -0.00000000000E+00  0.00000000000E+00  0.52133585866E+03  0.52133585866E+03  0.00000000000E+00 0.  1.
          2   -1    0    0  501    0  0.00000000000E+00 -0.00000000000E+00 -0.17840717669E+04  0.17840717669E+04  0.00000000000E+00 0. -1.
         24    2    1    2    0    0 -0.10008438777E+03 -0.54702625416E+03 -0.10988004944E+04  0.12340782368E+04  0.79573617079E+02 0.  0.
        254    2    1    2    0    0  0.10008438777E+03  0.54702625416E+03 -0.16393541382E+03  0.10713293888E+04  0.90089801417E+03 0.  0.
         23    2    4    4    0    0  0.13450503587E+03  0.50858205505E+03  0.28786802452E+03  0.60674591649E+03  0.92332530781E+02 0.  0.
         23    2    4    4    0    0 -0.34420648106E+02  0.38444199116E+02 -0.45180343834E+03  0.46458347229E+03  0.95124751564E+02 0.  0.
          4    1    3    3  502    0 -0.72343203307E+02 -0.34086961858E+03 -0.76729038459E+03  0.84271001550E+03  0.00000000000E+00 0. -1.
         -3    1    3    3    0  502 -0.27741184458E+02 -0.20615663558E+03 -0.33151010985E+03  0.39136822130E+03  0.00000000000E+00 0.  1.
         11    1    5    5    0    0  0.95348623674E+02  0.42311562127E+03  0.27044810537E+03  0.51113634844E+03  0.00000000000E+00 0.  1.
        -11    1    5    5    0    0  0.39156412198E+02  0.85466433775E+02  0.17419919154E+02  0.95609568045E+02  0.00000000000E+00 0. -1.
          3    1    6    6  503    0  0.18587754353E+02 -0.23151725426E+00 -0.28092512273E+03  0.28153948709E+03  0.00000000000E+00 0. -1.
         -3    1    6    6    0  503 -0.53008402459E+02  0.38675716370E+02 -0.17087831561E+03  0.18304398519E+03  0.00000000000E+00 0.  1.
<mgrwt>
<rscale>  0 0.19288345E+04</rscale>
<asrwt>0</asrwt>
<pdfrwt beam="1">  1        2 0.27447258E+00 0.19288345E+04</pdfrwt>
<pdfrwt beam="2">  1       -1 0.80205518E-01 0.19288345E+04</pdfrwt>
<totfact> 0.14537933E+01</totfact>
</mgrwt>
</event>
<event>
12    6  0.1395358E-007  0.1443942E+04  0.7818608E-02  0.8922611E-01
         -1   -1    0    0    0  501 -0.00000000000E+00  0.00000000000E+00  0.76482541168E+03  0.76482541168E+03  0.00000000000E+00 0.  1.
          2   -1    0    0  501    0  0.00000000000E+00 -0.00000000000E+00 -0.68151749891E+03  0.68151749891E+03  0.00000000000E+00 0. -1.
         24    2    1    2    0    0  0.39825762861E+02  0.34791144130E+03 -0.23470183231E+03  0.42940135955E+03  0.81683016048E+02 0.  0.
        254    2    1    2    0    0 -0.39825762861E+02 -0.34791144130E+03  0.31800974508E+03  0.10169415510E+04  0.90022855869E+03 0.  0.
         23    2    4    4    0    0  0.50922293953E+02  0.15484452040E+03  0.44542266249E+03  0.48191778265E+03  0.85284790275E+02 0.  0.
         23    2    4    4    0    0 -0.90748056814E+02 -0.50275596170E+03 -0.12741291741E+03  0.53502376839E+03  0.94961120331E+02 0.  0.
          4    1    3    3  502    0  0.32290254388E+02  0.79083965660E+02 -0.89704861456E+02  0.12387048204E+03  0.00000000000E+00 0. -1.
         -3    1    3    3    0  502  0.75355084729E+01  0.26882747564E+03 -0.14499697086E+03  0.30553087750E+03  0.00000000000E+00 0.  1.
         11    1    5    5    0    0  0.33118338731E+02  0.87724021857E+02  0.35904970152E+03  0.37109165516E+03  0.00000000000E+00 0.  1.
        -11    1    5    5    0    0  0.17803955221E+02  0.67120498543E+02  0.86372960975E+02  0.11082612749E+03  0.00000000000E+00 0. -1.
          1    1    6    6  503    0 -0.47377462384E+02 -0.70488446227E+02 -0.14588858249E+02  0.86174704981E+02  0.00000000000E+00 0. -1.
         -1    1    6    6    0  503 -0.43370594430E+02 -0.43226751548E+03 -0.11282405916E+03  0.44884906341E+03  0.00000000000E+00 0.  1.
<mgrwt>
<rscale>  0 0.14439417E+04</rscale>
<asrwt>0</asrwt>
<pdfrwt beam="1">  1        2 0.10484885E+00 0.14439417E+04</pdfrwt>
<pdfrwt beam="2">  1       -1 0.11766545E+00 0.14439417E+04</pdfrwt>
<totfact> 0.30517048E+01</totfact>
</mgrwt>
</event>
<event>
12    6  0.1395358E-007  0.1681941E+04  0.7818608E-02  0.8771732E-01
          4   -1    0    0  501    0  0.00000000000E+00  0.00000000000E+00  0.82185762153E+03  0.82185762153E+03  0.00000000000E+00 0. -1.
         -3   -1    0    0    0  501 -0.00000000000E+00 -0.00000000000E+00 -0.86052756982E+03  0.86052756982E+03  0.00000000000E+00 0.  1.
         24    2    1    2    0    0 -0.42593700626E+03  0.39645847704E+03 -0.14669752467E+03  0.60628690965E+03  0.86382844073E+02 0.  0.
        254    2    1    2    0    0  0.42593700626E+03 -0.39645847704E+03  0.10802757638E+03  0.10760982817E+04  0.89873015823E+03 0.  0.
         23    2    4    4    0    0  0.93269350046E+02 -0.58501424474E+03 -0.13239526227E+03  0.61523276268E+03  0.10020982283E+03 0.  0.
         23    2    4    4    0    0  0.33266765621E+03  0.18855576770E+03  0.24042283866E+03  0.46086551903E+03  0.91503214473E+02 0.  0.
          2    1    3    3  502    0 -0.31025308501E+03  0.23394538348E+03 -0.89098168634E+02  0.39865511769E+03  0.00000000000E+00 0. -1.
         -1    1    3    3    0  502 -0.11568392124E+03  0.16251309357E+03 -0.57599356039E+02  0.20763179196E+03  0.00000000000E+00 0.  1.
         11    1    5    5    0    0  0.23980623319E+02 -0.47402793057E+02 -0.37264667097E+02  0.64890295871E+02  0.00000000000E+00 0. -1.
        -11    1    5    5    0    0  0.69288726727E+02 -0.53761145168E+03 -0.95130595177E+02  0.55034246681E+03  0.00000000000E+00 0.  1.
          4    1    6    6  503    0  0.18570773796E+03  0.10149195774E+03  0.18554894472E+03  0.28145406785E+03  0.00000000000E+00 0. -1.
         -4    1    6    6    0  503  0.14695991825E+03  0.87063809953E+02  0.54873893938E+02  0.17941145117E+03  0.00000000000E+00 0.  1.
<mgrwt>
<rscale>  0 0.16819407E+04</rscale>
<asrwt>0</asrwt>
<pdfrwt beam="1">  1        4 0.12643963E+00 0.16819407E+04</pdfrwt>
<pdfrwt beam="2">  1       -3 0.13238886E+00 0.16819407E+04</pdfrwt>
<totfact> 0.44865767E-01</totfact>
</mgrwt>
</event>
<event>
12    6  0.1395358E-007  0.1211361E+04  0.7818608E-02  0.9102970E-01
          2   -1    0    0  501    0  0.00000000000E+00  0.00000000000E+00  0.15931405811E+04  0.15931405811E+04  0.00000000000E+00 0. -1.
         -1   -1    0    0    0  501 -0.00000000000E+00 -0.00000000000E+00 -0.23026763989E+03  0.23026763989E+03  0.00000000000E+00 0.  1.
         24    2    1    2    0    0 -0.42380013908E+01  0.23632800108E+03  0.14343192875E+03  0.28788651769E+03  0.80231191745E+02 0.  0.
        254    2    1    2    0    0  0.42380013908E+01 -0.23632800108E+03  0.12194410125E+04  0.15355217033E+04  0.90273010015E+03 0.  0.
         23    2    4    4    0    0  0.33833686568E+03 -0.38570300566E+03  0.49366320891E+03  0.71724451665E+03  0.86589200189E+02 0.  0.
         23    2    4    4    0    0 -0.33409886429E+03  0.14937500458E+03  0.72577780359E+03  0.81827718668E+03  0.94282506084E+02 0.  0.
          2    1    3    3  502    0  0.68433573476E+01  0.45143534464E+02  0.68330299322E+02  0.82181506734E+02  0.00000000000E+00 0. -1.
         -1    1    3    3    0  502 -0.11081358738E+02  0.19118446662E+03  0.75101629426E+02  0.20570501095E+03  0.00000000000E+00 0.  1.
         11    1    5    5    0    0  0.32425746984E+03 -0.32978347305E+03  0.44449133731E+03  0.64146129641E+03  0.00000000000E+00 0.  1.
        -11    1    5    5    0    0  0.14079395837E+02 -0.55919532612E+02  0.49171871592E+02  0.75783220244E+02  0.00000000000E+00 0. -1.
          4    1    6    6  503    0 -0.31237327176E+03  0.13542497392E+03  0.59991419379E+03  0.68979274016E+03  0.00000000000E+00 0.  1.
         -4    1    6    6    0  503 -0.21725592528E+02  0.13950030658E+02  0.12586360980E+03  0.12848444652E+03  0.00000000000E+00 0. -1.
<mgrwt>
<rscale>  0 0.12113608E+04</rscale>
<asrwt>0</asrwt>
<pdfrwt beam="1">  1        2 0.24509854E+00 0.12113608E+04</pdfrwt>
<pdfrwt beam="2">  1       -1 0.35425792E-01 0.12113608E+04</pdfrwt>
<totfact> 0.95937848E+01</totfact>
</mgrwt>
</event>
<event>
12    6  0.1395358E-007  0.1103594E+04  0.7818608E-02  0.9201696E-01
         -1   -1    0    0    0  501 -0.00000000000E+00  0.00000000000E+00  0.13479499674E+03  0.13479499674E+03  0.00000000000E+00 0.  1.
          2   -1    0    0  501    0  0.00000000000E+00 -0.00000000000E+00 -0.22588377501E+04  0.22588377501E+04  0.00000000000E+00 0. -1.
         24    2    1    2    0    0  0.72558129338E+02 -0.89292428243E+00 -0.21319049922E+02  0.11046739273E+03  0.80517473379E+02 0.  0.
        254    2    1    2    0    0 -0.72558129338E+02  0.89292428243E+00 -0.21027237035E+04  0.22831653542E+04  0.88664061590E+03 0.  0.
         23    2    4    4    0    0 -0.82668276474E+02  0.36049160077E+03 -0.16716116081E+04  0.17144213827E+04  0.90371847039E+02 0.  0.
         23    2    4    4    0    0  0.10110147136E+02 -0.35959867649E+03 -0.43111209534E+03  0.56874397148E+03  0.90546359050E+02 0.  0.
          4    1    3    3  502    0  0.22003978945E+02 -0.18143321488E+02 -0.44000817512E+02  0.52434980173E+02  0.00000000000E+00 0. -1.
         -3    1    3    3    0  502  0.50554150393E+02  0.17250397206E+02  0.22681767590E+02  0.58032412553E+02  0.00000000000E+00 0.  1.
         11    1    5    5    0    0 -0.31071359903E+01  0.19650520627E+03 -0.78075795693E+03  0.80511299685E+03  0.00000000000E+00 0. -1.
        -11    1    5    5    0    0 -0.79561140484E+02  0.16398639450E+03 -0.89085365122E+03  0.90930838583E+03  0.00000000000E+00 0.  1.
          3    1    6    6  503    0  0.21115687950E+02 -0.27388734678E+03 -0.37813600965E+03  0.46738313277E+03  0.00000000000E+00 0. -1.
         -3    1    6    6    0  503 -0.11005540813E+02 -0.85711329705E+02 -0.52976085693E+02  0.10136083871E+03  0.00000000000E+00 0.  1.
<mgrwt>
<rscale>  0 0.11035942E+04</rscale>
<asrwt>0</asrwt>
<pdfrwt beam="1">  1        2 0.34751350E+00 0.11035942E+04</pdfrwt>
<pdfrwt beam="2">  1       -1 0.20737692E-01 0.11035942E+04</pdfrwt>
<totfact> 0.10464323E+02</totfact>
</mgrwt>
</event>
<event>
12    6  0.1395358E-007  0.3338127E+04  0.7818608E-02  0.8153261E-01
          2   -1    0    0  501    0  0.00000000000E+00  0.00000000000E+00  0.15282821973E+04  0.15282821973E+04  0.00000000000E+00 0. -1.
         -1   -1    0    0    0  501 -0.00000000000E+00 -0.00000000000E+00 -0.18228129142E+04  0.18228129142E+04  0.00000000000E+00 0.  1.
         24    2    1    2    0    0  0.59289112889E+03 -0.14246246573E+04 -0.21313900048E+02  0.15453155240E+04  0.80439303938E+02 0.  0.
        254    2    1    2    0    0 -0.59289112889E+03  0.14246246573E+04 -0.27321681688E+03  0.18057795874E+04  0.89728322416E+03 0.  0.
         23    2    4    4    0    0 -0.39154169637E+03  0.67928924570E+03  0.29505816449E+03  0.84280937349E+03  0.92355510348E+02 0.  0.
         23    2    4    4    0    0 -0.20134943251E+03  0.74533541160E+03 -0.56827498137E+03  0.96297021391E+03  0.91152118303E+02 0.  0.
          2    1    3    3  502    0  0.28999946712E+03 -0.60569237501E+03 -0.28346686651E+02  0.67213575914E+03  0.00000000000E+00 0. -1.
         -1    1    3    3    0  502  0.30289166176E+03 -0.81893228230E+03  0.70327866037E+01  0.87317976490E+03  0.00000000000E+00 0.  1.
         11    1    5    5    0    0 -0.39356546623E+03  0.67211521109E+03  0.29910946449E+03  0.83432553894E+03  0.00000000000E+00 0. -1.
        -11    1    5    5    0    0  0.20237698543E+01  0.71740346176E+01 -0.40512999965E+01  0.84838345563E+01  0.00000000000E+00 0.  1.
          3    1    6    6  503    0 -0.20299872545E+03  0.74621178923E+03 -0.56080696456E+03  0.95527219598E+03  0.00000000000E+00 0. -1.
         -3    1    6    6    0  503  0.16492929322E+01 -0.87637763201E+00 -0.74680168108E+01  0.76980179278E+01  0.00000000000E+00 0.  1.
<mgrwt>
<rscale>  0 0.33381267E+04</rscale>
<asrwt>0</asrwt>
<pdfrwt beam="1">  1        2 0.23512034E+00 0.33381267E+04</pdfrwt>
<pdfrwt beam="2">  1       -1 0.28043276E+00 0.33381267E+04</pdfrwt>
<totfact> 0.51285548E-01</totfact>
</mgrwt>
</event>
<event>
12    6  0.1395358E-007  0.2240302E+04  0.7818608E-02  0.8501838E-01
         -1   -1    0    0    0  501 -0.00000000000E+00  0.00000000000E+00  0.33939163676E+03  0.33939163676E+03  0.00000000000E+00 0.  1.
          2   -1    0    0  501    0  0.00000000000E+00 -0.00000000000E+00 -0.36970219569E+04  0.36970219569E+04  0.00000000000E+00 0. -1.
         24    2    1    2    0    0  0.31738203621E+03  0.26394893497E+03 -0.29214326919E+04  0.29514340954E+04  0.76117334169E+02 0.  0.
        254    2    1    2    0    0 -0.31738203621E+03 -0.26394893497E+03 -0.43619762817E+03  0.10849794983E+04  0.90361039372E+03 0.  0.
         23    2    4    4    0    0  0.21719063348E+03  0.12682687062E+03  0.30943428476E+02  0.26947212806E+03  0.91656454490E+02 0.  0.
         23    2    4    4    0    0 -0.53457266969E+03 -0.39077580559E+03 -0.46714105664E+03  0.81550737020E+03  0.91421193567E+02 0.  0.
          4    1    3    3  502    0  0.25238240053E+03  0.16691623303E+03 -0.21628232698E+04  0.21838869937E+04  0.00000000000E+00 0. -1.
         -3    1    3    3    0  502  0.64999635682E+02  0.97032701941E+02 -0.75860942215E+03  0.76754710165E+03  0.00000000000E+00 0.  1.
         11    1    5    5    0    0  0.19146484304E+03  0.13387629550E+03  0.47042423316E+02  0.23831625670E+03  0.00000000000E+00 0. -1.
        -11    1    5    5    0    0  0.25725790439E+02 -0.70494248792E+01 -0.16098994840E+02  0.31155871352E+02  0.00000000000E+00 0.  1.
          1    1    6    6  503    0 -0.52029582856E+02 -0.67734221684E+02 -0.84066822764E+02  0.11984253406E+03  0.00000000000E+00 0. -1.
         -1    1    6    6    0  503 -0.48254308683E+03 -0.32304158390E+03 -0.38307423388E+03  0.69566483614E+03  0.00000000000E+00 0.  1.
<mgrwt>
<rscale>  0 0.22403021E+04</rscale>
<asrwt>0</asrwt>
<pdfrwt beam="1">  1        2 0.56877264E+00 0.22403021E+04</pdfrwt>
<pdfrwt beam="2">  1       -1 0.52214095E-01 0.22403021E+04</pdfrwt>
<totfact> 0.22563110E+00</totfact>
</mgrwt>
</event>
<event>
12    6  0.1395358E-007  0.1709221E+04  0.7818608E-02  0.8756123E-01
         -1   -1    0    0    0  501 -0.00000000000E+00  0.00000000000E+00  0.50141734567E+03  0.50141734567E+03  0.00000000000E+00 0.  1.
          2   -1    0    0  501    0  0.00000000000E+00 -0.00000000000E+00 -0.14565891670E+04  0.14565891670E+04  0.00000000000E+00 0. -1.
         24    2    1    2    0    0  0.79094611546E+02 -0.31450613221E+03 -0.94576536632E+03  0.10030405642E+04  0.80300564221E+02 0.  0.
        254    2    1    2    0    0 -0.79094611546E+02  0.31450613221E+03 -0.94064549991E+01  0.95496594842E+03  0.89816558410E+03 0.  0.
         23    2    4    4    0    0  0.17294289012E+03  0.39698414569E+03 -0.31417440937E+03  0.54156003531E+03  0.84119303196E+02 0.  0.
         23    2    4    4    0    0 -0.25203750167E+03 -0.82478013483E+02  0.30476795437E+03  0.41340591310E+03  0.87723531759E+02 0.  0.
          4    1    3    3  502    0  0.76061429280E+02 -0.27931441965E+03 -0.89884080757E+03  0.94430751528E+03  0.00000000000E+00 0. -1.
         -3    1    3    3    0  502  0.30331822658E+01 -0.35191712557E+02 -0.46924558751E+02  0.58733048970E+02  0.00000000000E+00 0.  1.
         11    1    5    5    0    0  0.70119617698E+01  0.10530694797E+03 -0.74492828648E+02  0.12918166440E+03  0.00000000000E+00 0.  1.
        -11    1    5    5    0    0  0.16593092835E+03  0.29167719773E+03 -0.23968158072E+03  0.41237837091E+03  0.00000000000E+00 0. -1.
          2    1    6    6  503    0 -0.56654115641E+02 -0.39094613363E+02  0.13259747943E+03  0.14939936133E+03  0.00000000000E+00 0.  1.
         -2    1    6    6    0  503 -0.19538338603E+03 -0.43383400120E+02  0.17217047494E+03  0.26400655178E+03  0.00000000000E+00 0. -1.
<mgrwt>
<rscale>  0 0.17092210E+04</rscale>
<asrwt>0</asrwt>
<pdfrwt beam="1">  1        2 0.22409064E+00 0.17092210E+04</pdfrwt>
<pdfrwt beam="2">  1       -1 0.77141132E-01 0.17092210E+04</pdfrwt>
<totfact> 0.24530198E+01</totfact>
</mgrwt>
</event>
<event>
12    6  0.1395358E-007  0.2565232E+04  0.7818608E-02  0.8380108E-01
          2   -1    0    0  501    0  0.00000000000E+00  0.00000000000E+00  0.99354134743E+03  0.99354134743E+03  0.00000000000E+00 0. -1.
         -1   -1    0    0    0  501 -0.00000000000E+00 -0.00000000000E+00 -0.16557976226E+04  0.16557976226E+04  0.00000000000E+00 0.  1.
         24    2    1    2    0    0 -0.69946415021E+03  0.76847740380E+02  0.61242041673E+03  0.93621002260E+03  0.79213426535E+02 0.  0.
        254    2    1    2    0    0  0.69946415021E+03 -0.76847740380E+02 -0.12746766919E+04  0.17131289475E+04  0.90269288745E+03 0.  0.
         23    2    4    4    0    0  0.23197594603E+03 -0.33461157072E+03 -0.10447428584E+04  0.11251100768E+04  0.92775546223E+02 0.  0.
         23    2    4    4    0    0  0.46748820418E+03  0.25776383034E+03 -0.22993383357E+03  0.58801887069E+03  0.88933746026E+02 0.  0.
          4    1    3    3  502    0 -0.13059213830E+03  0.22215839361E+02  0.15723303457E+03  0.20559688048E+03  0.00000000000E+00 0. -1.
         -3    1    3    3    0  502 -0.56887201192E+03  0.54631901020E+02  0.45518738216E+03  0.73061314211E+03  0.00000000000E+00 0.  1.
         11    1    5    5    0    0  0.13974382861E+03 -0.19178073032E+03 -0.72687879007E+03  0.76463125859E+03  0.00000000000E+00 0.  1.
        -11    1    5    5    0    0  0.92232117422E+02 -0.14283084040E+03 -0.31786406828E+03  0.36047881818E+03  0.00000000000E+00 0. -1.
          2    1    6    6  503    0  0.45241828155E+03  0.22554145766E+03 -0.21766757464E+03  0.55039115514E+03  0.00000000000E+00 0.  1.
         -2    1    6    6    0  503  0.15069922629E+02  0.32222372677E+02 -0.12266258927E+02  0.37627715544E+02  0.00000000000E+00 0. -1.
<mgrwt>
<rscale>  0 0.25652317E+04</rscale>
<asrwt>0</asrwt>
<pdfrwt beam="1">  1        2 0.15285251E+00 0.25652317E+04</pdfrwt>
<pdfrwt beam="2">  1       -1 0.25473810E+00 0.25652317E+04</pdfrwt>
<totfact> 0.16697903E+00</totfact>
</mgrwt>
</event>
<event>
12    6  0.1395358E-007  0.1349775E+04  0.7818608E-02  0.8990998E-01
         -1   -1    0    0    0  501 -0.00000000000E+00  0.00000000000E+00  0.49028288111E+03  0.49028288111E+03  0.00000000000E+00 0.  1.
          2   -1    0    0  501    0  0.00000000000E+00 -0.00000000000E+00 -0.92900080273E+03  0.92900080273E+03  0.00000000000E+00 0. -1.
         24    2    1    2    0    0 -0.24923428046E+03 -0.27131172531E+03 -0.99223800959E+02  0.38949012802E+03  0.78290601651E+02 0.  0.
        254    2    1    2    0    0  0.24923428046E+03  0.27131172531E+03 -0.33949412066E+03  0.10297935558E+04  0.89971702819E+03 0.  0.
         23    2    4    4    0    0 -0.17764519585E+03  0.39841602448E+03  0.27786261996E+02  0.44487181601E+03  0.82738818879E+02 0.  0.
         23    2    4    4    0    0  0.42687947631E+03 -0.12710429917E+03 -0.36728038265E+03  0.58492173981E+03  0.94111487415E+02 0.  0.
          4    1    3    3  502    0 -0.76644148172E+02 -0.83692049727E+02 -0.68904955870E+02  0.13276512185E+03  0.00000000000E+00 0. -1.
         -3    1    3    3    0  502 -0.17259013228E+03 -0.18761967558E+03 -0.30318845089E+02  0.25672500617E+03  0.00000000000E+00 0.  1.
         11    1    5    5    0    0 -0.54054952906E+02  0.22268076676E+03  0.12657203748E+02  0.22949698609E+03  0.00000000000E+00 0. -1.
        -11    1    5    5    0    0 -0.12359024295E+03  0.17573525772E+03  0.15129058247E+02  0.21537482992E+03  0.00000000000E+00 0.  1.
          4    1    6    6  503    0  0.28021403977E+03 -0.11037830460E+03 -0.29088317944E+03  0.41870789614E+03  0.00000000000E+00 0. -1.
         -4    1    6    6    0  503  0.14666543654E+03 -0.16725994576E+02 -0.76397203211E+02  0.16621384367E+03  0.00000000000E+00 0.  1.
<mgrwt>
<rscale>  0 0.13497751E+04</rscale>
<asrwt>0</asrwt>
<pdfrwt beam="1">  1        2 0.14292320E+00 0.13497751E+04</pdfrwt>
<pdfrwt beam="2">  1       -1 0.75428137E-01 0.13497751E+04</pdfrwt>
<totfact> 0.55222258E+01</totfact>
</mgrwt>
</event>
<event>
12    6  0.1395358E-007  0.2318528E+04  0.7818608E-02  0.8470651E-01
          2   -1    0    0  501    0  0.00000000000E+00  0.00000000000E+00  0.25198891080E+04  0.25198891080E+04  0.00000000000E+00 0. -1.
         -1   -1    0    0    0  501 -0.00000000000E+00 -0.00000000000E+00 -0.53331437587E+03  0.53331437587E+03  0.00000000000E+00 0.  1.
         24    2    1    2    0    0 -0.39634202309E+03 -0.27648712737E+03 -0.28270933063E+03  0.56561833684E+03  0.80420186997E+02 0.  0.
        254    2    1    2    0    0  0.39634202309E+03  0.27648712737E+03  0.22692840627E+04  0.24875851470E+04  0.89716084139E+03 0.  0.
         23    2    4    4    0    0 -0.23557014478E+03  0.28480813066E+03  0.87458166119E+03  0.95380550788E+03  0.90790420012E+02 0.  0.
         23    2    4    4    0    0  0.63191216787E+03 -0.83210032864E+01  0.13947024015E+04  0.15337796391E+04  0.88898624976E+02 0.  0.
          2    1    3    3  502    0 -0.37222563175E+03 -0.27938097050E+03 -0.26507757033E+03  0.53560411304E+03  0.00000000000E+00 0. -1.
         -3    1    3    3    0  502 -0.24116391344E+02  0.28938431291E+01 -0.17631760299E+02  0.30014223807E+02  0.00000000000E+00 0.  1.
         11    1    5    5    0    0 -0.16280413069E+03  0.15406078929E+03  0.60950173605E+03  0.64940917611E+03  0.00000000000E+00 0. -1.
        -11    1    5    5    0    0 -0.72766014089E+02  0.13074734137E+03  0.26507992514E+03  0.30439633177E+03  0.00000000000E+00 0.  1.
          3    1    6    6  503    0  0.43962216050E+03 -0.92278511203E+01  0.86697575282E+03  0.97211097783E+03  0.00000000000E+00 0. -1.
         -3    1    6    6    0  503  0.19229000737E+03  0.90684783391E+00  0.52772664873E+03  0.56166866130E+03  0.00000000000E+00 0.  1.
<mgrwt>
<rscale>  0 0.23185281E+04</rscale>
<asrwt>0</asrwt>
<pdfrwt beam="1">  1        2 0.38767524E+00 0.23185281E+04</pdfrwt>
<pdfrwt beam="2">  1       -1 0.82048367E-01 0.23185281E+04</pdfrwt>
<totfact> 0.51587939E+00</totfact>
</mgrwt>
</event>
<event>
12    6  0.1395358E-007  0.1691919E+04  0.7818608E-02  0.8765987E-01
         -1   -1    0    0    0  501 -0.00000000000E+00  0.00000000000E+00  0.32088391204E+03  0.32088391204E+03  0.00000000000E+00 0.  1.
          2   -1    0    0  501    0  0.00000000000E+00 -0.00000000000E+00 -0.22302372459E+04  0.22302372459E+04  0.00000000000E+00 0. -1.
         24    2    1    2    0    0 -0.22065460054E+03 -0.31953883736E+03  0.11473078218E+02  0.39632898577E+03  0.78431576021E+02 0.  0.
        254    2    1    2    0    0  0.22065460054E+03  0.31953883736E+03 -0.19208264121E+04  0.21547921722E+04  0.89596968623E+03 0.  0.
         23    2    4    4    0    0 -0.30785420575E+03  0.29200370651E+03 -0.98351582951E+03  0.10749664101E+04  0.90603638618E+02 0.  0.
         23    2    4    4    0    0  0.52850880630E+03  0.27535130845E+02 -0.93731058258E+03  0.10798257621E+04  0.85981431091E+02 0.  0.
          2    1    3    3  502    0 -0.74180220976E-02 -0.36740114477E+02 -0.59250340208E+01  0.37214810156E+02  0.00000000000E+00 0. -1.
         -1    1    3    3    0  502 -0.22064718252E+03 -0.28279872288E+03  0.17398112238E+02  0.35911417561E+03  0.00000000000E+00 0.  1.
         11    1    5    5    0    0 -0.14626807383E+03  0.10212446535E+03 -0.50151690011E+03  0.53229968715E+03  0.00000000000E+00 0. -1.
        -11    1    5    5    0    0 -0.16158613192E+03  0.18987924116E+03 -0.48199892940E+03  0.54266672295E+03  0.00000000000E+00 0.  1.
          3    1    6    6  503    0  0.39999687705E+03  0.18852969018E+01 -0.63712901473E+03  0.75228614064E+03  0.00000000000E+00 0. -1.
         -3    1    6    6    0  503  0.12851192925E+03  0.25649833943E+02 -0.30018156785E+03  0.32753962145E+03  0.00000000000E+00 0.  1.
<mgrwt>
<rscale>  0 0.16919187E+04</rscale>
<asrwt>0</asrwt>
<pdfrwt beam="1">  1        2 0.34311341E+00 0.16919187E+04</pdfrwt>
<pdfrwt beam="2">  1       -1 0.49366757E-01 0.16919187E+04</pdfrwt>
<totfact> 0.22154872E+01</totfact>
</mgrwt>
</event>
<event>
12    6  0.1395358E-007  0.5068341E+04  0.7818608E-02  0.7818051E-01
         -1   -1    0    0    0  501 -0.00000000000E+00  0.00000000000E+00  0.14374874279E+04  0.14374874279E+04  0.00000000000E+00 0.  1.
          2   -1    0    0  501    0  0.00000000000E+00 -0.00000000000E+00 -0.44675315359E+04  0.44675315359E+04  0.00000000000E+00 0. -1.
         24    2    1    2    0    0 -0.83307986476E+03  0.20188819510E+04 -0.27711273151E+04  0.35292325868E+04  0.80185172746E+02 0.  0.
        254    2    1    2    0    0  0.83307986476E+03 -0.20188819510E+04 -0.25891679281E+03  0.23757863770E+04  0.89856363726E+03 0.  0.
         23    2    4    4    0    0  0.89262130723E+03 -0.20587334725E+04 -0.25545450767E+03  0.22602522616E+04  0.91252241521E+02 0.  0.
         23    2    4    4    0    0 -0.59541442471E+02  0.39851521431E+02 -0.34622851324E+01  0.11553411544E+03  0.90569405871E+02 0.  0.
          2    1    3    3  502    0 -0.11406836976E+03  0.30445738386E+03 -0.45637147727E+03  0.56033991187E+03  0.00000000000E+00 0. -1.
         -1    1    3    3    0  502 -0.71901149500E+03  0.17144245672E+04 -0.23147558378E+04  0.29688926749E+04  0.00000000000E+00 0.  1.
         11    1    5    5    0    0  0.55801137794E+03 -0.13925766762E+04 -0.16152894645E+03  0.15088863766E+04  0.00000000000E+00 0.  1.
        -11    1    5    5    0    0  0.33460992929E+03 -0.66615679632E+03 -0.93925561223E+02  0.75136588498E+03  0.00000000000E+00 0. -1.
          3    1    6    6  503    0 -0.55552648035E+02  0.72848124377E+01  0.34155407811E+02  0.65618267873E+02  0.00000000000E+00 0. -1.
         -3    1    6    6    0  503 -0.39887944359E+01  0.32566708994E+02 -0.37617692943E+02  0.49915847565E+02  0.00000000000E+00 0.  1.
<mgrwt>
<rscale>  0 0.50683411E+04</rscale>
<asrwt>0</asrwt>
<pdfrwt beam="1">  1        2 0.68731253E+00 0.50683411E+04</pdfrwt>
<pdfrwt beam="2">  1       -1 0.22115192E+00 0.50683411E+04</pdfrwt>
<totfact> 0.11640897E-02</totfact>
</mgrwt>
</event>
<event>
12    6  0.1395358E-007  0.3236761E+04  0.7818608E-02  0.8179176E-01
          2   -1    0    0  501    0  0.00000000000E+00  0.00000000000E+00  0.22590433186E+04  0.22590433186E+04  0.00000000000E+00 0. -1.
         -1   -1    0    0    0  501 -0.00000000000E+00 -0.00000000000E+00 -0.11594093324E+04  0.11594093324E+04  0.00000000000E+00 0.  1.
         24    2    1    2    0    0 -0.70968972320E+03  0.10230037430E+04  0.13771993970E+04  0.18583817687E+04  0.81905174097E+02 0.  0.
        254    2    1    2    0    0  0.70968972320E+03 -0.10230037430E+04 -0.27756541088E+03  0.15600708823E+04  0.89809934802E+03 0.  0.
         23    2    4    4    0    0 -0.13045447417E+03 -0.25894637050E+03 -0.29043616445E+03  0.42072350311E+03  0.92647222426E+02 0.  0.
         23    2    4    4    0    0  0.84014419737E+03 -0.76405737255E+03  0.12870753568E+02  0.11393473792E+04  0.91218710769E+02 0.  0.
          2    1    3    3  502    0 -0.46004514840E+03  0.67526947802E+03  0.84580699733E+03  0.11760186577E+04  0.00000000000E+00 0. -1.
         -1    1    3    3    0  502 -0.24964457480E+03  0.34773426503E+03  0.53139239968E+03  0.68236311099E+03  0.00000000000E+00 0.  1.
         11    1    5    5    0    0 -0.14168393120E+03 -0.25357325905E+03 -0.26879931912E+03  0.39576104915E+03  0.00000000000E+00 0. -1.
        -11    1    5    5    0    0  0.11229457029E+02 -0.53731114478E+01 -0.21636845332E+02  0.24962453960E+02  0.00000000000E+00 0.  1.
          4    1    6    6  503    0  0.69188945798E+03 -0.58030365855E+03  0.17468687807E+02  0.90319904408E+03  0.00000000000E+00 0. -1.
         -4    1    6    6    0  503  0.14825473939E+03 -0.18375371401E+03 -0.45979342395E+01  0.23614833509E+03  0.00000000000E+00 0.  1.
<mgrwt>
<rscale>  0 0.32367613E+04</rscale>
<asrwt>0</asrwt>
<pdfrwt beam="1">  1        2 0.34754513E+00 0.32367613E+04</pdfrwt>
<pdfrwt beam="2">  1       -1 0.17837067E+00 0.32367613E+04</pdfrwt>
<totfact> 0.97590723E-01</totfact>
</mgrwt>
</event>
<event>
12    6  0.1395358E-007  0.2371599E+04  0.7818608E-02  0.8450214E-01
          2   -1    0    0  501    0  0.00000000000E+00  0.00000000000E+00  0.32052262576E+04  0.32052262576E+04  0.00000000000E+00 0. -1.
         -1   -1    0    0    0  501 -0.00000000000E+00 -0.00000000000E+00 -0.43869605221E+03  0.43869605221E+03  0.00000000000E+00 0.  1.
         24    2    1    2    0    0 -0.36160056973E+02 -0.99214199211E+03  0.87159247320E+03  0.13235959601E+04  0.81114388428E+02 0.  0.
        254    2    1    2    0    0  0.36160056973E+02  0.99214199211E+03  0.18949377322E+04  0.23203263497E+04  0.89859450148E+03 0.  0.
         23    2    4    4    0    0  0.21943586178E+03 -0.60446371612E+02  0.52529585920E+03  0.58027053847E+03  0.94722208810E+02 0.  0.
         23    2    4    4    0    0 -0.18327580481E+03  0.10525883637E+04  0.13696418730E+04  0.17400558112E+04  0.10170094369E+03 0.  0.
          4    1    3    3  502    0 -0.94025391483E+01 -0.67310657616E+03  0.63602040217E+03  0.92611166853E+03  0.00000000000E+00 0. -1.
         -3    1    3    3    0  502 -0.26757517825E+02 -0.31903541595E+03  0.23557207104E+03  0.39748429157E+03  0.00000000000E+00 0.  1.
         11    1    5    5    0    0  0.22386737082E+03 -0.69296312492E+02  0.51586327935E+03  0.56659818357E+03  0.00000000000E+00 0. -1.
        -11    1    5    5    0    0 -0.44315090318E+01  0.88499408803E+01  0.94325798562E+01  0.13672354904E+02  0.00000000000E+00 0.  1.
          4    1    6    6  503    0 -0.19482685080E+03  0.10182544425E+04  0.13305347015E+04  0.16867490043E+04  0.00000000000E+00 0. -1.
         -4    1    6    6    0  503  0.11551045988E+02  0.34333921226E+02  0.39107171467E+02  0.53306806979E+02  0.00000000000E+00 0.  1.
<mgrwt>
<rscale>  0 0.23715987E+04</rscale>
<asrwt>0</asrwt>
<pdfrwt beam="1">  1        2 0.49311172E+00 0.23715987E+04</pdfrwt>
<pdfrwt beam="2">  1       -1 0.67491702E-01 0.23715987E+04</pdfrwt>
<totfact> 0.29360138E+00</totfact>
</mgrwt>
</event>
<event>
12    6  0.1395358E-007  0.1194027E+04  0.7818608E-02  0.9118101E-01
         -1   -1    0    0    0  501 -0.00000000000E+00  0.00000000000E+00  0.21485761283E+03  0.21485761283E+03  0.00000000000E+00 0.  1.
          2   -1    0    0  501    0  0.00000000000E+00 -0.00000000000E+00 -0.16588900210E+04  0.16588900210E+04  0.00000000000E+00 0. -1.
         24    2    1    2    0    0 -0.23957590507E+03  0.56923716834E+02 -0.32525149467E+03  0.41612634477E+03  0.82071165428E+02 0.  0.
        254    2    1    2    0    0  0.23957590507E+03 -0.56923716834E+02 -0.11187809135E+04  0.14576212891E+04  0.90130581164E+03 0.  0.
         23    2    4    4    0    0  0.29494891521E+03  0.14809349019E+03 -0.11714991097E+04  0.12204605674E+04  0.90483634889E+02 0.  0.
         23    2    4    4    0    0 -0.55373010136E+02 -0.20501720702E+03  0.52718196212E+02  0.23716072163E+03  0.91475539060E+02 0.  0.
          2    1    3    3  502    0 -0.91618833078E+02 -0.18533602307E+02 -0.11698653153E+03  0.14974429387E+03  0.00000000000E+00 0. -1.
         -1    1    3    3    0  502 -0.14795707199E+03  0.75457319142E+02 -0.20826496315E+03  0.26638205090E+03  0.00000000000E+00 0.  1.
         11    1    5    5    0    0  0.35653241185E+02  0.37362795846E+02 -0.30218733993E+03  0.30656862288E+03  0.00000000000E+00 0. -1.
        -11    1    5    5    0    0  0.25929567402E+03  0.11073069434E+03 -0.86931176978E+03  0.91389194455E+03  0.00000000000E+00 0.  1.
          3    1    6    6  503    0  0.15822281507E+02 -0.99810977368E+02  0.40922126393E+01  0.10114011074E+03  0.00000000000E+00 0. -1.
         -3    1    6    6    0  503 -0.71195291644E+02 -0.10520622965E+03  0.48625983573E+02  0.13602061090E+03  0.00000000000E+00 0.  1.
<mgrwt>
<rscale>  0 0.11940271E+04</rscale>
<asrwt>0</asrwt>
<pdfrwt beam="1">  1        2 0.25521385E+00 0.11940271E+04</pdfrwt>
<pdfrwt beam="2">  1       -1 0.33055017E-01 0.11940271E+04</pdfrwt>
<totfact> 0.99907693E+01</totfact>
</mgrwt>
</event>
<event>
12    6  0.1395358E-007  0.4589189E+04  0.7818608E-02  0.7895206E-01
          2   -1    0    0  501    0  0.00000000000E+00  0.00000000000E+00  0.44717868140E+04  0.44717868140E+04  0.00000000000E+00 0. -1.
         -1   -1    0    0    0  501 -0.00000000000E+00 -0.00000000000E+00 -0.11774183971E+04  0.11774183971E+04  0.00000000000E+00 0.  1.
         24    2    1    2    0    0  0.14618721892E+04  0.91309844528E+03 -0.10822963248E+03  0.17294742656E+04  0.92458173542E+02 0.  0.
        254    2    1    2    0    0 -0.14618721892E+04 -0.91309844528E+03  0.34025980494E+04  0.39197309454E+04  0.90321543964E+03 0.  0.
         23    2    4    4    0    0 -0.24140272771E+03 -0.35180436971E+03  0.27937843926E+03  0.51854008622E+03  0.93754558273E+02 0.  0.
         23    2    4    4    0    0 -0.12204694615E+04 -0.56129407557E+03  0.31232196102E+04  0.34011908592E+04  0.94877720778E+02 0.  0.
          2    1    3    3  502    0  0.92798241678E+03  0.54750035528E+03 -0.32005506681E+02  0.10779296625E+04  0.00000000000E+00 0. -1.
         -1    1    3    3    0  502  0.53388977240E+03  0.36559809000E+03 -0.76224125804E+02  0.65154460310E+03  0.00000000000E+00 0.  1.
         11    1    5    5    0    0 -0.22595194358E+03 -0.34009463250E+03  0.23742343909E+03  0.47232248442E+03  0.00000000000E+00 0.  1.
        -11    1    5    5    0    0 -0.15450784126E+02 -0.11709737208E+02  0.41955000178E+02  0.46217601794E+02  0.00000000000E+00 0. -1.
          1    1    6    6  503    0 -0.54219878378E+03 -0.22223157697E+03  0.12609292140E+04  0.13904347801E+04  0.00000000000E+00 0. -1.
         -1    1    6    6    0  503 -0.67827067769E+03 -0.33906249860E+03  0.18622903962E+04  0.20107560791E+04  0.00000000000E+00 0.  1.
<mgrwt>
<rscale>  0 0.45891891E+04</rscale>
<asrwt>0</asrwt>
<pdfrwt beam="1">  1        2 0.68796719E+00 0.45891891E+04</pdfrwt>
<pdfrwt beam="2">  1       -1 0.18114129E+00 0.45891891E+04</pdfrwt>
<totfact> 0.22643962E-02</totfact>
</mgrwt>
</event>
<event>
12    6  0.1395358E-007  0.1485609E+04  0.7818608E-02  0.8894080E-01
         -1   -1    0    0    0  501 -0.00000000000E+00  0.00000000000E+00  0.32393549538E+03  0.32393549538E+03  0.00000000000E+00 0.  1.
          2   -1    0    0  501    0  0.00000000000E+00 -0.00000000000E+00 -0.17032971971E+04  0.17032971971E+04  0.00000000000E+00 0. -1.
         24    2    1    2    0    0 -0.41623676955E+03 -0.18515718054E+03 -0.31224444387E+03  0.55799595026E+03  0.79540291341E+02 0.  0.
        254    2    1    2    0    0  0.41623676955E+03  0.18515718054E+03 -0.10671172579E+04  0.14692367423E+04  0.90132188084E+03 0.  0.
         23    2    4    4    0    0 -0.25381291283E+03 -0.78016562166E+02 -0.36458158549E+03  0.45913673808E+03  0.85902462615E+02 0.  0.
         23    2    4    4    0    0  0.67004968238E+03  0.26317374271E+03 -0.70253567240E+03  0.10101000042E+04  0.92296542368E+02 0.  0.
          4    1    3    3  502    0 -0.18106619678E+03 -0.12175924053E+03 -0.13236836396E+03  0.25520905950E+03  0.00000000000E+00 0. -1.
         -3    1    3    3    0  502 -0.23517057277E+03 -0.63397940007E+02 -0.17987607991E+03  0.30278689076E+03  0.00000000000E+00 0.  1.
         11    1    5    5    0    0 -0.25813843205E+03 -0.74898747717E+02 -0.33708659080E+03  0.43112949587E+03  0.00000000000E+00 0. -1.
        -11    1    5    5    0    0  0.43255192136E+01 -0.31178144486E+01 -0.27494994688E+02  0.28007242212E+02  0.00000000000E+00 0.  1.
          4    1    6    6  503    0  0.60564764249E+03  0.21221510650E+03 -0.64465138482E+03  0.90962614641E+03  0.00000000000E+00 0. -1.
         -4    1    6    6    0  503  0.64402039890E+02  0.50958636204E+02 -0.57884287582E+02  0.10047385777E+03  0.00000000000E+00 0.  1.
<mgrwt>
<rscale>  0 0.14856089E+04</rscale>
<asrwt>0</asrwt>
<pdfrwt beam="1">  1        2 0.26204573E+00 0.14856089E+04</pdfrwt>
<pdfrwt beam="2">  1       -1 0.49836229E-01 0.14856089E+04</pdfrwt>
<totfact> 0.43461836E+01</totfact>
</mgrwt>
</event>
<event>
12    6  0.1395358E-007  0.1501825E+04  0.7818608E-02  0.8883240E-01
          2   -1    0    0  501    0  0.00000000000E+00  0.00000000000E+00  0.32066947101E+04  0.32066947101E+04  0.00000000000E+00 0. -1.
         -1   -1    0    0    0  501 -0.00000000000E+00 -0.00000000000E+00 -0.17584134054E+03  0.17584134054E+03  0.00000000000E+00 0.  1.
         24    2    1    2    0    0 -0.68059493532E+02  0.12363653988E+03  0.20005834739E+04  0.20071293988E+04  0.79473887372E+02 0.  0.
        254    2    1    2    0    0  0.68059493532E+02 -0.12363653988E+03  0.10302698956E+04  0.13754066518E+04  0.90020514959E+03 0.  0.
         23    2    4    4    0    0 -0.34573398850E+03  0.16795395882E+03  0.39828261186E+03  0.56077628292E+03  0.90002652681E+02 0.  0.
         23    2    4    4    0    0  0.41379348203E+03 -0.29159049871E+03  0.63198728376E+03  0.81463036888E+03  0.89244867416E+02 0.  0.
          4    1    3    3  502    0 -0.10129275609E+02  0.84234816532E+02  0.13795988616E+04  0.13822051676E+04  0.00000000000E+00 0. -1.
         -3    1    3    3    0  502 -0.57930217923E+02  0.39401723353E+02  0.62098461232E+03  0.62492423116E+03  0.00000000000E+00 0.  1.
         11    1    5    5    0    0 -0.31372420342E+03  0.17733836962E+03  0.35232290728E+03  0.50398730554E+03  0.00000000000E+00 0.  1.
        -11    1    5    5    0    0 -0.32009785082E+02 -0.93844108017E+01  0.45959704575E+02  0.56788977378E+02  0.00000000000E+00 0. -1.
          3    1    6    6  503    0  0.25300709790E+02 -0.46871381652E+02  0.47497708178E+02  0.71365850489E+02  0.00000000000E+00 0. -1.
         -3    1    6    6    0  503  0.38849277224E+03 -0.24471911705E+03  0.58448957558E+03  0.74326451839E+03  0.00000000000E+00 0.  1.
<mgrwt>
<rscale>  0 0.15018249E+04</rscale>
<asrwt>0</asrwt>
<pdfrwt beam="1">  1        2 0.49333761E+00 0.15018249E+04</pdfrwt>
<pdfrwt beam="2">  1       -1 0.27052516E-01 0.15018249E+04</pdfrwt>
<totfact> 0.17433809E+01</totfact>
</mgrwt>
</event>
<event>
12    6  0.1395358E-007  0.1552399E+04  0.7818608E-02  0.8850337E-01
         -1   -1    0    0    0  501 -0.00000000000E+00  0.00000000000E+00  0.34332215519E+03  0.34332215519E+03  0.00000000000E+00 0.  1.
          2   -1    0    0  501    0  0.00000000000E+00 -0.00000000000E+00 -0.17548707596E+04  0.17548707596E+04  0.00000000000E+00 0. -1.
         24    2    1    2    0    0 -0.46620859000E+03 -0.18757148028E+03 -0.35257175722E+03  0.61958393813E+03  0.83927961911E+02 0.  0.
        254    2    1    2    0    0  0.46620859000E+03  0.18757148028E+03 -0.10589768472E+04  0.14786089766E+04  0.90128743104E+03 0.  0.
         23    2    4    4    0    0  0.64072965551E+03  0.22733281582E+03 -0.10800085566E+04  0.12795335111E+04  0.92589541514E+02 0.  0.
         23    2    4    4    0    0 -0.17452106550E+03 -0.39761335546E+02  0.21031709415E+02  0.19907546552E+03  0.84558512643E+02 0.  0.
          4    1    3    3  502    0 -0.42045411510E+03 -0.16406637472E+03 -0.34389576186E+03  0.56741848159E+03  0.00000000000E+00 0. -1.
         -3    1    3    3    0  502 -0.45754474902E+02 -0.23505105559E+02 -0.86759953612E+01  0.52165456543E+02  0.00000000000E+00 0.  1.
         11    1    5    5    0    0  0.46075943280E+03  0.18742862887E+03 -0.84902840057E+03  0.98401116396E+03  0.00000000000E+00 0. -1.
        -11    1    5    5    0    0  0.17997022270E+03  0.39904186954E+02 -0.23098015600E+03  0.29552234715E+03  0.00000000000E+00 0.  1.
          3    1    6    6  503    0 -0.29003150099E+02  0.25349192327E+02  0.29358445954E+01  0.38631379096E+02  0.00000000000E+00 0. -1.
         -3    1    6    6    0  503 -0.14551791541E+03 -0.65110527874E+02  0.18095864819E+02  0.16044408642E+03  0.00000000000E+00 0.  1.
<mgrwt>
<rscale>  0 0.15523994E+04</rscale>
<asrwt>0</asrwt>
<pdfrwt beam="1">  1        2 0.26998011E+00 0.15523994E+04</pdfrwt>
<pdfrwt beam="2">  1       -1 0.52818794E-01 0.15523994E+04</pdfrwt>
<totfact> 0.36212571E+01</totfact>
</mgrwt>
</event>
<event>
12    6  0.1395358E-007  0.2292372E+04  0.7818608E-02  0.8480935E-01
          2   -1    0    0  501    0  0.00000000000E+00  0.00000000000E+00  0.15950666024E+04  0.15950666024E+04  0.00000000000E+00 0. -1.
         -1   -1    0    0    0  501 -0.00000000000E+00 -0.00000000000E+00 -0.82362877056E+03  0.82362877056E+03  0.00000000000E+00 0.  1.
         24    2    1    2    0    0  0.29871997969E+03  0.48297532188E+03 -0.49702636317E+03  0.75952756518E+03  0.85721227112E+02 0.  0.
        254    2    1    2    0    0 -0.29871997969E+03 -0.48297532188E+03  0.12684641950E+04  0.16591678078E+04  0.90627678583E+03 0.  0.
         23    2    4    4    0    0 -0.41759266078E+03 -0.46680291497E+03  0.33987855198E+03  0.71845530855E+03  0.91498680464E+02 0.  0.
         23    2    4    4    0    0  0.11887268109E+03 -0.16172406913E+02  0.92858564301E+03  0.94071249922E+03  0.90974989542E+02 0.  0.
          2    1    3    3  502    0  0.49894932176E+02  0.59928711716E+02 -0.10820848672E+03  0.13337927628E+03  0.00000000000E+00 0. -1.
         -1    1    3    3    0  502  0.24882504752E+03  0.42304661017E+03 -0.38881787645E+03  0.62614828890E+03  0.00000000000E+00 0.  1.
         11    1    5    5    0    0 -0.37395964387E+03 -0.39441550641E+03  0.26135928912E+03  0.60309044508E+03  0.00000000000E+00 0. -1.
        -11    1    5    5    0    0 -0.43633016907E+02 -0.72387408555E+02  0.78519262862E+02  0.11536486346E+03  0.00000000000E+00 0.  1.
          1    1    6    6  503    0  0.13421369527E+03 -0.15903365770E+02  0.84198349003E+03  0.85276164931E+03  0.00000000000E+00 0. -1.
         -1    1    6    6    0  503 -0.15341014185E+02 -0.26904114264E+00  0.86602152979E+02  0.87950849910E+02  0.00000000000E+00 0.  1.
<mgrwt>
<rscale>  0 0.22923723E+04</rscale>
<asrwt>0</asrwt>
<pdfrwt beam="1">  1        2 0.24539486E+00 0.22923723E+04</pdfrwt>
<pdfrwt beam="2">  1       -1 0.12671212E+00 0.22923723E+04</pdfrwt>
<totfact> 0.62725465E+00</totfact>
</mgrwt>
</event>
<event>
12    6  0.1395358E-007  0.1720050E+04  0.7818608E-02  0.8750011E-01
         -1   -1    0    0    0  501 -0.00000000000E+00  0.00000000000E+00  0.52959493313E+03  0.52959493313E+03  0.00000000000E+00 0.  1.
          2   -1    0    0  501    0  0.00000000000E+00 -0.00000000000E+00 -0.13966194505E+04  0.13966194505E+04  0.00000000000E+00 0. -1.
         24    2    1    2    0    0 -0.12866200056E+03 -0.37523651234E+03  0.21736306826E+03  0.45943905785E+03  0.80505862216E+02 0.  0.
        254    2    1    2    0    0  0.12866200056E+03  0.37523651234E+03 -0.10843875857E+04  0.14667753258E+04  0.90453140900E+03 0.  0.
         23    2    4    4    0    0 -0.22018944260E+03  0.52134775959E+03 -0.80455138697E+03  0.98782705579E+03  0.90622738923E+02 0.  0.
         23    2    4    4    0    0  0.34885144316E+03 -0.14611124725E+03 -0.27983619868E+03  0.47894827001E+03  0.89651108656E+02 0.  0.
          2    1    3    3  502    0 -0.72991020048E+02 -0.10149835564E+03  0.76823329463E+02  0.14673591638E+03  0.00000000000E+00 0. -1.
         -1    1    3    3    0  502 -0.55670980515E+02 -0.27373815670E+03  0.14053973880E+03  0.31270314147E+03  0.00000000000E+00 0.  1.
         11    1    5    5    0    0 -0.13808662809E+03  0.41959562587E+03 -0.60024200056E+03  0.74526429227E+03  0.00000000000E+00 0.  1.
        -11    1    5    5    0    0 -0.82102814509E+02  0.10175213372E+03 -0.20430938642E+03  0.24256276352E+03  0.00000000000E+00 0. -1.
          4    1    6    6  503    0  0.35759915720E+02 -0.49207350498E+02 -0.48202379227E+02  0.77611882328E+02  0.00000000000E+00 0.  1.
         -4    1    6    6    0  503  0.31309152744E+03 -0.96903896747E+02 -0.23163381945E+03  0.40133638768E+03  0.00000000000E+00 0. -1.
<mgrwt>
<rscale>  0 0.17200495E+04</rscale>
<asrwt>0</asrwt>
<pdfrwt beam="1">  1        2 0.21486453E+00 0.17200495E+04</pdfrwt>
<pdfrwt beam="2">  1       -1 0.81476144E-01 0.17200495E+04</pdfrwt>
<totfact> 0.23610559E+01</totfact>
</mgrwt>
</event>
<event>
12    6  0.1395358E-007  0.1553675E+04  0.7818608E-02  0.8849524E-01
          2   -1    0    0  501    0  0.00000000000E+00  0.00000000000E+00  0.91454719175E+03  0.91454719175E+03  0.00000000000E+00 0. -1.
         -1   -1    0    0    0  501 -0.00000000000E+00 -0.00000000000E+00 -0.65986337084E+03  0.65986337084E+03  0.00000000000E+00 0.  1.
         24    2    1    2    0    0  0.27418745805E+03 -0.18352130019E+03  0.47481601578E+03  0.58351187631E+03  0.78594091223E+02 0.  0.
        254    2    1    2    0    0 -0.27418745805E+03  0.18352130019E+03 -0.22013219488E+03  0.99089868627E+03  0.90805462030E+03 0.  0.
         23    2    4    4    0    0 -0.21283363842E+03  0.54259940495E+03 -0.13473955972E+03  0.60571506583E+03  0.94993263574E+02 0.  0.
         23    2    4    4    0    0 -0.61353819637E+02 -0.35907810476E+03 -0.85392635157E+02  0.38518362044E+03  0.91504878622E+02 0.  0.
          4    1    3    3  502    0  0.17514160781E+03 -0.15531053068E+03  0.29871696000E+03  0.37950990226E+03  0.00000000000E+00 0. -1.
         -3    1    3    3    0  502  0.99045850242E+02 -0.28210769512E+02  0.17609905579E+03  0.20400197405E+03  0.00000000000E+00 0.  1.
         11    1    5    5    0    0 -0.17348539192E+03  0.48419328595E+03 -0.89640104449E+02  0.52208779693E+03  0.00000000000E+00 0.  1.
        -11    1    5    5    0    0 -0.39348246497E+02  0.58406119000E+02 -0.45099455272E+02  0.83627268907E+02  0.00000000000E+00 0. -1.
          3    1    6    6  503    0 -0.23439720520E+02 -0.19531722352E+03 -0.91549782707E+02  0.21697834227E+03  0.00000000000E+00 0. -1.
         -3    1    6    6    0  503 -0.37914099117E+02 -0.16376088124E+03  0.61571475499E+01  0.16820527817E+03  0.00000000000E+00 0.  1.
<mgrwt>
<rscale>  0 0.15536746E+04</rscale>
<asrwt>0</asrwt>
<pdfrwt beam="1">  1        2 0.14069957E+00 0.15536746E+04</pdfrwt>
<pdfrwt beam="2">  1       -1 0.10151744E+00 0.15536746E+04</pdfrwt>
<totfact> 0.28992135E+01</totfact>
</mgrwt>
</event>
<event>
12    6  0.1395358E-007  0.2651213E+04  0.7818608E-02  0.8351011E-01
          2   -1    0    0  501    0  0.00000000000E+00  0.00000000000E+00  0.24609178973E+04  0.24609178973E+04  0.00000000000E+00 0. -1.
         -1   -1    0    0    0  501 -0.00000000000E+00 -0.00000000000E+00 -0.71405554092E+03  0.71405554092E+03  0.00000000000E+00 0.  1.
         24    2    1    2    0    0  0.49812708692E+03 -0.82674036731E+01 -0.49613175505E+03  0.70743294145E+03  0.78202964055E+02 0.  0.
        254    2    1    2    0    0 -0.49812708692E+03  0.82674036731E+01  0.22429941115E+04  0.24675404968E+04  0.89974139319E+03 0.  0.
         23    2    4    4    0    0 -0.30999718088E+01  0.33017149154E+03  0.38330376854E+03  0.51417881466E+03  0.91843621512E+02 0.  0.
         23    2    4    4    0    0 -0.49502711511E+03 -0.32190408787E+03  0.18596903429E+04  0.19533616822E+04  0.92193292770E+02 0.  0.
          4    1    3    3  502    0  0.28738286844E+03 -0.28648584495E+02 -0.24308432492E+03  0.37749124955E+03  0.00000000000E+00 0. -1.
         -3    1    3    3    0  502  0.21074421848E+03  0.20381180822E+02 -0.25304743013E+03  0.32994169190E+03  0.00000000000E+00 0.  1.
         11    1    5    5    0    0 -0.34829644061E+01  0.11996266044E+03  0.20942556037E+03  0.24137571601E+03  0.00000000000E+00 0. -1.
        -11    1    5    5    0    0  0.38299259725E+00  0.21020883110E+03  0.17387820817E+03  0.27280309865E+03  0.00000000000E+00 0.  1.
          1    1    6    6  503    0 -0.16630380817E+03 -0.88302661784E+02  0.72836793938E+03  0.75231254929E+03  0.00000000000E+00 0.  1.
         -1    1    6    6    0  503 -0.32872330694E+03 -0.23360142609E+03  0.11313224036E+04  0.12010491329E+04  0.00000000000E+00 0. -1.
<mgrwt>
<rscale>  0 0.26512126E+04</rscale>
<asrwt>0</asrwt>
<pdfrwt beam="1">  1        2 0.37860275E+00 0.26512126E+04</pdfrwt>
<pdfrwt beam="2">  1       -1 0.10985470E+00 0.26512126E+04</pdfrwt>
<totfact> 0.28113704E+00</totfact>
</mgrwt>
</event>
<event>
12    6  0.1395358E-007  0.1142289E+04  0.7818608E-02  0.9164926E-01
          2   -1    0    0  501    0  0.00000000000E+00  0.00000000000E+00  0.19898223750E+04  0.19898223750E+04  0.00000000000E+00 0. -1.
         -1   -1    0    0    0  501 -0.00000000000E+00 -0.00000000000E+00 -0.16393738732E+03  0.16393738732E+03  0.00000000000E+00 0.  1.
         24    2    1    2    0    0  0.75303963378E+02 -0.86752457475E+02  0.67536029137E+03  0.69021003418E+03  0.84152791658E+02 0.  0.
        254    2    1    2    0    0 -0.75303963378E+02  0.86752457475E+02  0.11505246963E+04  0.14635497282E+04  0.89725919008E+03 0.  0.
         23    2    4    4    0    0 -0.11533672893E+03 -0.26817134691E+03  0.10326775115E+04  0.10765960675E+04  0.86126752102E+02 0.  0.
         23    2    4    4    0    0  0.40032765555E+02  0.35492380439E+03  0.11784718488E+03  0.38695366073E+03  0.90948597173E+02 0.  0.
          2    1    3    3  502    0  0.88394532480E+02 -0.68651995287E+02  0.62737344403E+03  0.63727868951E+03  0.00000000000E+00 0. -1.
         -1    1    3    3    0  502 -0.13090569103E+02 -0.18100462188E+02  0.47986847338E+02  0.52931344667E+02  0.00000000000E+00 0.  1.
         11    1    5    5    0    0 -0.20297433901E+01 -0.10651376188E+03  0.33550735109E+03  0.35201489168E+03  0.00000000000E+00 0. -1.
        -11    1    5    5    0    0 -0.11330698554E+03 -0.16165758503E+03  0.69717016038E+03  0.72458117578E+03  0.00000000000E+00 0.  1.
          2    1    6    6  503    0  0.53560162958E+02  0.17306399453E+03  0.26825605049E+02  0.18313779059E+03  0.00000000000E+00 0.  1.
         -2    1    6    6    0  503 -0.13527397404E+02  0.18185980986E+03  0.91021579834E+02  0.20381587013E+03  0.00000000000E+00 0. -1.
<mgrwt>
<rscale>  0 0.11422894E+04</rscale>
<asrwt>0</asrwt>
<pdfrwt beam="1">  1        2 0.30612650E+00 0.11422894E+04</pdfrwt>
<pdfrwt beam="2">  1       -1 0.25221138E-01 0.11422894E+04</pdfrwt>
<totfact> 0.10553650E+02</totfact>
</mgrwt>
</event>
<event>
12    6  0.1395358E-007  0.2914665E+04  0.7818608E-02  0.8268527E-01
         -1   -1    0    0    0  501 -0.00000000000E+00  0.00000000000E+00  0.10479232527E+04  0.10479232527E+04  0.00000000000E+00 0.  1.
          2   -1    0    0  501    0  0.00000000000E+00 -0.00000000000E+00 -0.20266930175E+04  0.20266930175E+04  0.00000000000E+00 0. -1.
         24    2    1    2    0    0 -0.10317383452E+04  0.63334438337E+03 -0.99034007171E+03  0.15661629001E+04  0.80521123355E+02 0.  0.
        254    2    1    2    0    0  0.10317383452E+04 -0.63334438337E+03  0.11570306946E+02  0.15084533701E+04  0.89982697056E+03 0.  0.
         23    2    4    4    0    0  0.61695523366E+03 -0.72690301432E+03  0.27960626307E+03  0.99776390368E+03  0.91276462327E+02 0.  0.
         23    2    4    4    0    0  0.41478311151E+03  0.93558630951E+02 -0.26803595612E+03  0.51068946642E+03  0.90344951851E+02 0.  0.
          4    1    3    3  502    0 -0.94479331271E+03  0.55764786060E+03 -0.91355962687E+03  0.14276542761E+04  0.00000000000E+00 0. -1.
         -3    1    3    3    0  502 -0.86945032456E+02  0.75696522763E+02 -0.76780444840E+02  0.13850862405E+03  0.00000000000E+00 0.  1.
         11    1    5    5    0    0  0.31788490631E+03 -0.38090407762E+03  0.19274867485E+03  0.53225067559E+03  0.00000000000E+00 0. -1.
        -11    1    5    5    0    0  0.29907032736E+03 -0.34599893670E+03  0.86857588216E+02  0.46551322810E+03  0.00000000000E+00 0.  1.
          1    1    6    6  503    0  0.19630720688E+03  0.12418606126E+02 -0.84686558700E+02  0.21415544465E+03  0.00000000000E+00 0. -1.
         -1    1    6    6    0  503  0.21847590463E+03  0.81140024825E+02 -0.18334939742E+03  0.29653402177E+03  0.00000000000E+00 0.  1.
<mgrwt>
<rscale>  0 0.29146655E+04</rscale>
<asrwt>0</asrwt>
<pdfrwt beam="1">  1        2 0.31179892E+00 0.29146655E+04</pdfrwt>
<pdfrwt beam="2">  1       -1 0.16121896E+00 0.29146655E+04</pdfrwt>
<totfact> 0.18112334E+00</totfact>
</mgrwt>
</event>
<event>
12    6  0.1395358E-007  0.3823464E+04  0.7818608E-02  0.8041138E-01
         -1   -1    0    0    0  501 -0.00000000000E+00  0.00000000000E+00  0.15070002372E+04  0.15070002372E+04  0.00000000000E+00 0.  1.
          2   -1    0    0  501    0  0.00000000000E+00 -0.00000000000E+00 -0.24251611302E+04  0.24251611302E+04  0.00000000000E+00 0. -1.
         24    2    1    2    0    0  0.52624746592E+03 -0.16253084891E+04 -0.10323368059E+04  0.19976612071E+04  0.79793091637E+02 0.  0.
        254    2    1    2    0    0 -0.52624746592E+03  0.16253084891E+04  0.11417591289E+03  0.19345001603E+04  0.90038361324E+03 0.  0.
         23    2    4    4    0    0 -0.40482663362E+03  0.13312040429E+04 -0.27729075401E+03  0.14218468125E+04  0.93645014803E+02 0.  0.
         23    2    4    4    0    0 -0.12142083230E+03  0.29410444621E+03  0.39146666691E+03  0.51265334782E+03  0.91251629764E+02 0.  0.
          4    1    3    3  502    0  0.20079622765E+03 -0.73856732915E+03 -0.44385465150E+03  0.88476424905E+03  0.00000000000E+00 0. -1.
         -3    1    3    3    0  502  0.32545123827E+03 -0.88674115994E+03 -0.58848215442E+03  0.11128969581E+04  0.00000000000E+00 0.  1.
         11    1    5    5    0    0 -0.18313234960E+03  0.53260538780E+03 -0.70216291799E+02  0.56757051035E+03  0.00000000000E+00 0. -1.
        -11    1    5    5    0    0 -0.22169428403E+03  0.79859865509E+03 -0.20707446221E+03  0.85427630214E+03  0.00000000000E+00 0.  1.
          1    1    6    6  503    0 -0.54118588213E+02  0.68629425685E+02  0.16150976952E+03  0.18364156749E+03  0.00000000000E+00 0. -1.
         -1    1    6    6    0  503 -0.67302244083E+02  0.22547502052E+03  0.22995689739E+03  0.32901178033E+03  0.00000000000E+00 0.  1.
<mgrwt>
<rscale>  0 0.38234636E+04</rscale>
<asrwt>0</asrwt>
<pdfrwt beam="1">  1        2 0.37310170E+00 0.38234636E+04</pdfrwt>
<pdfrwt beam="2">  1       -1 0.23184620E+00 0.38234636E+04</pdfrwt>
<totfact> 0.32100139E-01</totfact>
</mgrwt>
</event>
<event>
12    6  0.1395358E-007  0.1772227E+04  0.7818608E-02  0.8721210E-01
          2   -1    0    0  501    0  0.00000000000E+00  0.00000000000E+00  0.20133798814E+04  0.20133798814E+04  0.00000000000E+00 0. -1.
         -1   -1    0    0    0  501 -0.00000000000E+00 -0.00000000000E+00 -0.38998964854E+03  0.38998964854E+03  0.00000000000E+00 0.  1.
         24    2    1    2    0    0 -0.55187026336E+03 -0.33621484576E+03  0.49545319917E+03  0.81816924039E+03  0.79535044267E+02 0.  0.
        254    2    1    2    0    0  0.55187026336E+03  0.33621484576E+03  0.11279370337E+04  0.15852002896E+04  0.90720273146E+03 0.  0.
         23    2    4    4    0    0  0.34586759218E+03 -0.12832321869E+03  0.41674533357E+02  0.38239994202E+03  0.91660837576E+02 0.  0.
         23    2    4    4    0    0  0.20600267118E+03  0.46453806445E+03  0.10862625004E+04  0.12028003476E+04  0.92356605379E+02 0.  0.
          2    1    3    3  502    0 -0.14382183352E+03 -0.86733822794E+02  0.17446124559E+03  0.24216564997E+03  0.00000000000E+00 0. -1.
         -1    1    3    3    0  502 -0.40804842984E+03 -0.24948102296E+03  0.32099195358E+03  0.57600359042E+03  0.00000000000E+00 0.  1.
         11    1    5    5    0    0  0.13459140910E+03 -0.33776319037E+02 -0.26136519888E+02  0.14120483279E+03  0.00000000000E+00 0.  1.
        -11    1    5    5    0    0  0.21127618308E+03 -0.94546899655E+02  0.67811053245E+02  0.24119510923E+03  0.00000000000E+00 0. -1.
          4    1    6    6  503    0  0.74179133654E+02  0.77127192265E+02  0.24084121890E+03  0.26354438028E+03  0.00000000000E+00 0.  1.
         -4    1    6    6    0  503  0.13182353753E+03  0.38741087219E+03  0.84542128147E+03  0.93925596730E+03  0.00000000000E+00 0. -1.
<mgrwt>
<rscale>  0 0.17722272E+04</rscale>
<asrwt>0</asrwt>
<pdfrwt beam="1">  1        2 0.30975074E+00 0.17722272E+04</pdfrwt>
<pdfrwt beam="2">  1       -1 0.59998409E-01 0.17722272E+04</pdfrwt>
<totfact> 0.19934269E+01</totfact>
</mgrwt>
</event>
<event>
12    6  0.1395358E-007  0.1448282E+04  0.7818608E-02  0.8919592E-01
         -1   -1    0    0    0  501 -0.00000000000E+00  0.00000000000E+00  0.10050665249E+04  0.10050665249E+04  0.00000000000E+00 0.  1.
          2   -1    0    0  501    0  0.00000000000E+00 -0.00000000000E+00 -0.52173708309E+03  0.52173708309E+03  0.00000000000E+00 0. -1.
         24    2    1    2    0    0 -0.21164296655E+03 -0.35713701845E+03 -0.27182676836E+01  0.42291089750E+03  0.80663765113E+02 0.  0.
        254    2    1    2    0    0  0.21164296655E+03  0.35713701845E+03  0.48604770952E+03  0.11038927105E+04  0.89999841397E+03 0.  0.
         23    2    4    4    0    0  0.35197198389E+03 -0.76359616269E+02 -0.70942568119E+02  0.37840271930E+03  0.91873290777E+02 0.  0.
         23    2    4    4    0    0 -0.14032901734E+03  0.43349663472E+03  0.55699027764E+03  0.72548999122E+03  0.92119447202E+02 0.  0.
          2    1    3    3  502    0 -0.15140835918E+03 -0.31035190728E+03 -0.15086688604E+02  0.34564491281E+03  0.00000000000E+00 0. -1.
         -1    1    3    3    0  502 -0.60234607376E+02 -0.46785111175E+02  0.12368420920E+02  0.77265984686E+02  0.00000000000E+00 0.  1.
         11    1    5    5    0    0  0.28649548385E+03 -0.96061537537E+02 -0.46175780971E+02  0.30567905392E+03  0.00000000000E+00 0.  1.
        -11    1    5    5    0    0  0.65476500042E+02  0.19701921268E+02 -0.24766787148E+02  0.72723665371E+02  0.00000000000E+00 0. -1.
          2    1    6    6  503    0  0.12226366190E+02  0.48918054600E+02  0.48682132169E+02  0.70088587435E+02  0.00000000000E+00 0.  1.
         -2    1    6    6    0  503 -0.15255538353E+03  0.38457858012E+03  0.50830814547E+03  0.65540140379E+03  0.00000000000E+00 0. -1.
<mgrwt>
<rscale>  0 0.14482824E+04</rscale>
<asrwt>0</asrwt>
<pdfrwt beam="1">  1        2 0.80267244E-01 0.14482824E+04</pdfrwt>
<pdfrwt beam="2">  1       -1 0.15462562E+00 0.14482824E+04</pdfrwt>
<totfact> 0.20870287E+01</totfact>
</mgrwt>
</event>
<event>
12    6  0.1395358E-007  0.4166327E+04  0.7818608E-02  0.7971809E-01
         -1   -1    0    0    0  501 -0.00000000000E+00  0.00000000000E+00  0.19892948184E+04  0.19892948184E+04  0.00000000000E+00 0.  1.
          2   -1    0    0  501    0  0.00000000000E+00 -0.00000000000E+00 -0.21814619468E+04  0.21814619468E+04  0.00000000000E+00 0. -1.
         24    2    1    2    0    0 -0.97980348857E+03  0.16024327104E+04  0.55178217079E+03  0.19592233843E+04  0.79292106028E+02 0.  0.
        254    2    1    2    0    0  0.97980348857E+03 -0.16024327104E+04 -0.74394929920E+03  0.22115333809E+04  0.89978545638E+03 0.  0.
         23    2    4    4    0    0  0.74923433437E+03 -0.54454739952E+03 -0.61864232020E+03  0.11175825301E+04  0.91588389098E+02 0.  0.
         23    2    4    4    0    0  0.23056915420E+03 -0.10578853108E+04 -0.12530697899E+03  0.10939508508E+04  0.93504862206E+02 0.  0.
          4    1    3    3  502    0 -0.67199538072E+03  0.10342055491E+04  0.37932035039E+03  0.12903653892E+04  0.00000000000E+00 0. -1.
         -3    1    3    3    0  502 -0.30780810785E+03  0.56822716130E+03  0.17246182039E+03  0.66885799509E+03  0.00000000000E+00 0.  1.
         11    1    5    5    0    0  0.70563689171E+03 -0.52762117951E+03 -0.56624609848E+03  0.10473500733E+04  0.00000000000E+00 0. -1.
        -11    1    5    5    0    0  0.43597442662E+02 -0.16926220005E+02 -0.52396221719E+02  0.70232456747E+02  0.00000000000E+00 0.  1.
          4    1    6    6  503    0  0.23366650441E+03 -0.10313342804E+04 -0.13379597152E+03  0.10659042148E+04  0.00000000000E+00 0. -1.
         -4    1    6    6    0  503 -0.30973502101E+01 -0.26551030457E+02  0.84889925221E+01  0.28046635996E+02  0.00000000000E+00 0.  1.
<mgrwt>
<rscale>  0 0.41663274E+04</rscale>
<asrwt>0</asrwt>
<pdfrwt beam="1">  1        2 0.33560953E+00 0.41663274E+04</pdfrwt>
<pdfrwt beam="2">  1       -1 0.30604536E+00 0.41663274E+04</pdfrwt>
<totfact> 0.14129184E-01</totfact>
</mgrwt>
</event>
<event>
12    6  0.1395358E-007  0.1410598E+04  0.7818608E-02  0.8946183E-01
          2   -1    0    0  501    0  0.00000000000E+00  0.00000000000E+00  0.15360118074E+04  0.15360118074E+04  0.00000000000E+00 0. -1.
         -1   -1    0    0    0  501 -0.00000000000E+00 -0.00000000000E+00 -0.32385607914E+03  0.32385607914E+03  0.00000000000E+00 0.  1.
         24    2    1    2    0    0 -0.37080845609E+03  0.15809556473E+03  0.48507376973E+03  0.63597879738E+03  0.81727290057E+02 0.  0.
        254    2    1    2    0    0  0.37080845609E+03 -0.15809556473E+03  0.72708195857E+03  0.12238890892E+04  0.89819998301E+03 0.  0.
         23    2    4    4    0    0 -0.67757414938E+02 -0.44147328262E+03  0.33311616100E+03  0.56331843698E+03  0.82894862217E+02 0.  0.
         23    2    4    4    0    0  0.43856587103E+03  0.28337771789E+03  0.39396579757E+03  0.66057065221E+03  0.92204027465E+02 0.  0.
          4    1    3    3  502    0 -0.91465347949E+02  0.77029627668E+02  0.16039947698E+03  0.20006865229E+03  0.00000000000E+00 0. -1.
         -3    1    3    3    0  502 -0.27934310814E+03  0.81065937063E+02  0.32467429275E+03  0.43591014509E+03  0.00000000000E+00 0.  1.
         11    1    5    5    0    0 -0.84816770576E+02 -0.39775465412E+03  0.30743185993E+03  0.50982055465E+03  0.00000000000E+00 0. -1.
        -11    1    5    5    0    0  0.17059355638E+02 -0.43718628497E+02  0.25684301063E+02  0.53497882327E+02  0.00000000000E+00 0.  1.
          3    1    6    6  503    0  0.19322702373E+03  0.10133742344E+03  0.21596920000E+03  0.30699943231E+03  0.00000000000E+00 0. -1.
         -3    1    6    6    0  503  0.24533884730E+03  0.18204029445E+03  0.17799659757E+03  0.35357121990E+03  0.00000000000E+00 0.  1.
<mgrwt>
<rscale>  0 0.14105981E+04</rscale>
<asrwt>0</asrwt>
<pdfrwt beam="1">  1        2 0.23630950E+00 0.14105981E+04</pdfrwt>
<pdfrwt beam="2">  1       -1 0.49824013E-01 0.14105981E+04</pdfrwt>
<totfact> 0.54239507E+01</totfact>
</mgrwt>
</event>
<event>
12    6  0.1395358E-007  0.3030085E+04  0.7818608E-02  0.8235192E-01
          2   -1    0    0  501    0  0.00000000000E+00  0.00000000000E+00  0.29390501799E+04  0.29390501799E+04  0.00000000000E+00 0. -1.
         -3   -1    0    0    0  501 -0.00000000000E+00 -0.00000000000E+00 -0.78098464008E+03  0.78098464008E+03  0.00000000000E+00 0.  1.
         24    2    1    2    0    0  0.56246889959E+03 -0.12186129332E+04  0.13927011683E+04  0.19358514962E+04  0.80720055015E+02 0.  0.
        254    2    1    2    0    0 -0.56246889959E+03  0.12186129332E+04  0.76536437155E+03  0.17841833238E+04  0.89226608560E+03 0.  0.
         23    2    4    4    0    0 -0.62222441929E+02  0.94377729576E+03  0.74152099329E+03  0.12054304459E+04  0.92854510967E+02 0.  0.
         23    2    4    4    0    0 -0.50024645767E+03  0.27483563747E+03  0.23843378262E+02  0.57875287784E+03  0.92764437617E+02 0.  0.
          4    1    3    3  502    0  0.15871282132E+03 -0.31126021765E+03  0.41054021508E+03  0.53908807345E+03  0.00000000000E+00 0. -1.
         -3    1    3    3    0  502  0.40375607828E+03 -0.90735271558E+03  0.98216095320E+03  0.13967634228E+04  0.00000000000E+00 0.  1.
         11    1    5    5    0    0 -0.70473776587E+02  0.91541707718E+03  0.70029362392E+03  0.11547147432E+04  0.00000000000E+00 0. -1.
        -11    1    5    5    0    0  0.82513346578E+01  0.28360218578E+02  0.41227369367E+02  0.50715702759E+02  0.00000000000E+00 0.  1.
          2    1    6    6  503    0 -0.28007857262E+03  0.14864193913E+03 -0.32703430179E+02  0.31876001514E+03  0.00000000000E+00 0. -1.
         -2    1    6    6    0  503 -0.22016788505E+03  0.12619369834E+03  0.56546808441E+02  0.25999286270E+03  0.00000000000E+00 0.  1.
<mgrwt>
<rscale>  0 0.30300845E+04</rscale>
<asrwt>0</asrwt>
<pdfrwt beam="1">  1        2 0.45216156E+00 0.30300845E+04</pdfrwt>
<pdfrwt beam="2">  1       -3 0.12015148E+00 0.30300845E+04</pdfrwt>
<totfact> 0.58376497E-01</totfact>
</mgrwt>
</event>
<event>
12    6  0.1395358E-007  0.1475459E+04  0.7818608E-02  0.8900939E-01
          2   -1    0    0  501    0  0.00000000000E+00  0.00000000000E+00  0.38734111544E+04  0.38734111544E+04  0.00000000000E+00 0. -1.
         -1   -1    0    0    0  501 -0.00000000000E+00 -0.00000000000E+00 -0.14050779527E+03  0.14050779527E+03  0.00000000000E+00 0.  1.
         24    2    1    2    0    0  0.42231274712E+01  0.19767799959E+03  0.49555173093E+02  0.21712080564E+03  0.74775014109E+02 0.  0.
        254    2    1    2    0    0 -0.42231274712E+01 -0.19767799959E+03  0.36833481861E+04  0.37967981441E+04  0.89973766212E+03 0.  0.
         23    2    4    4    0    0  0.25386587813E+03 -0.41195262957E+03  0.13374236853E+04  0.14252453670E+04  0.92029284516E+02 0.  0.
         23    2    4    4    0    0 -0.25808900560E+03  0.21427462998E+03  0.23459245008E+04  0.23715527770E+04  0.91527367392E+02 0.  0.
          2    1    3    3  502    0  0.16969435577E+02  0.93640191241E+02  0.58853254966E+02  0.11189348855E+03  0.00000000000E+00 0. -1.
         -1    1    3    3    0  502 -0.12746308106E+02  0.10403780835E+03 -0.92980818725E+01  0.10522731709E+03  0.00000000000E+00 0.  1.
         11    1    5    5    0    0  0.40250677517E+02 -0.20764739581E+02  0.93782808933E+02  0.10414656356E+03  0.00000000000E+00 0.  1.
        -11    1    5    5    0    0  0.21361520061E+03 -0.39118788999E+03  0.12436408763E+04  0.13210988035E+04  0.00000000000E+00 0. -1.
          2    1    6    6  503    0 -0.11822950735E+03  0.15002703288E+03  0.14460103400E+04  0.14585719833E+04  0.00000000000E+00 0. -1.
         -2    1    6    6    0  503 -0.13985949825E+03  0.64247597100E+02  0.89991416082E+03  0.91298079379E+03  0.00000000000E+00 0.  1.
<mgrwt>
<rscale>  0 0.14754585E+04</rscale>
<asrwt>0</asrwt>
<pdfrwt beam="1">  1        2 0.59590933E+00 0.14754585E+04</pdfrwt>
<pdfrwt beam="2">  1       -1 0.21616587E-01 0.14754585E+04</pdfrwt>
<totfact> 0.87197570E+00</totfact>
</mgrwt>
</event>
<event>
12    6  0.1395358E-007  0.1329854E+04  0.7818608E-02  0.9006220E-01
          2   -1    0    0  501    0  0.00000000000E+00  0.00000000000E+00  0.15864504395E+04  0.15864504395E+04  0.00000000000E+00 0. -1.
         -1   -1    0    0    0  501 -0.00000000000E+00 -0.00000000000E+00 -0.27868998389E+03  0.27868998389E+03  0.00000000000E+00 0.  1.
         24    2    1    2    0    0  0.34206007865E+03  0.10448142802E+02  0.23086749997E+03  0.42048294394E+03  0.79948999390E+02 0.  0.
        254    2    1    2    0    0 -0.34206007865E+03 -0.10448142802E+02  0.10768929557E+04  0.14446574795E+04  0.90012362149E+03 0.  0.
         23    2    4    4    0    0  0.64434114272E+02 -0.37598197044E+03  0.57374291946E+03  0.69646913698E+03  0.10185344356E+03 0.  0.
         23    2    4    4    0    0 -0.40649419293E+03  0.36553382764E+03  0.50315003620E+03  0.74818834249E+03  0.88166483913E+02 0.  0.
          4    1    3    3  502    0  0.66035953610E+02 -0.19361006342E+02  0.19425170258E+02  0.71504775891E+02  0.00000000000E+00 0. -1.
         -3    1    3    3    0  502  0.27602412504E+03  0.29809149144E+02  0.21144232971E+03  0.34897816804E+03  0.00000000000E+00 0.  1.
         11    1    5    5    0    0  0.86307135984E+02 -0.33325832415E+03  0.52697577915E+03  0.62945492623E+03  0.00000000000E+00 0.  1.
        -11    1    5    5    0    0 -0.21873021713E+02 -0.42723646286E+02  0.46767140306E+02  0.67014210756E+02  0.00000000000E+00 0. -1.
          3    1    6    6  503    0 -0.94735164597E+02  0.13942802618E+03  0.14854315308E+03  0.22467753386E+03  0.00000000000E+00 0. -1.
         -3    1    6    6    0  503 -0.31175902833E+03  0.22610580146E+03  0.35460688312E+03  0.52351080863E+03  0.00000000000E+00 0.  1.
<mgrwt>
<rscale>  0 0.13298539E+04</rscale>
<asrwt>0</asrwt>
<pdfrwt beam="1">  1        2 0.24406929E+00 0.13298539E+04</pdfrwt>
<pdfrwt beam="2">  1       -1 0.42875383E-01 0.13298539E+04</pdfrwt>
<totfact> 0.67766450E+01</totfact>
</mgrwt>
</event>
<event>
12    6  0.1395358E-007  0.1217438E+04  0.7818608E-02  0.9097728E-01
          2   -1    0    0  501    0  0.00000000000E+00  0.00000000000E+00  0.91395629803E+03  0.91395629803E+03  0.00000000000E+00 0. -1.
         -1   -1    0    0    0  501 -0.00000000000E+00 -0.00000000000E+00 -0.40542300637E+03  0.40542300637E+03  0.00000000000E+00 0.  1.
         24    2    1    2    0    0  0.96692500447E+02 -0.23509756228E+03  0.29835850453E+02  0.26821184596E+03  0.80169276570E+02 0.  0.
        254    2    1    2    0    0 -0.96692500447E+02  0.23509756228E+03  0.47869744121E+03  0.10511674584E+04  0.90065613972E+03 0.  0.
         23    2    4    4    0    0  0.16572881039E+03 -0.27565873348E+03  0.73107844108E+02  0.34224368870E+03  0.91280938022E+02 0.  0.
         23    2    4    4    0    0 -0.26242131084E+03  0.51075629576E+03  0.40558959710E+03  0.70892376973E+03  0.91285551842E+02 0.  0.
          2    1    3    3  502    0  0.10576988147E+03 -0.22275410541E+03  0.15255864240E+02  0.24706153220E+03  0.00000000000E+00 0. -1.
         -1    1    3    3    0  502 -0.90773810227E+01 -0.12343456877E+02  0.14579986213E+02  0.21150313754E+02  0.00000000000E+00 0.  1.
         11    1    5    5    0    0  0.13639762964E+03 -0.27200739236E+03  0.71859526451E+02  0.31265976142E+03  0.00000000000E+00 0.  1.
        -11    1    5    5    0    0  0.29331180753E+02 -0.36513411223E+01  0.12483176570E+01  0.29583927280E+02  0.00000000000E+00 0. -1.
          2    1    6    6  503    0 -0.26406958549E+02  0.11722974232E+03  0.59017585203E+02  0.13387761317E+03  0.00000000000E+00 0. -1.
         -2    1    6    6    0  503 -0.23601435229E+03  0.39352655344E+03  0.34657201190E+03  0.57504615656E+03  0.00000000000E+00 0.  1.
<mgrwt>
<rscale>  0 0.12174381E+04</rscale>
<asrwt>0</asrwt>
<pdfrwt beam="1">  1        2 0.14060866E+00 0.12174381E+04</pdfrwt>
<pdfrwt beam="2">  1       -1 0.62372770E-01 0.12174381E+04</pdfrwt>
<totfact> 0.84141371E+01</totfact>
</mgrwt>
</event>
<event>
12    6  0.1395358E-007  0.2225112E+04  0.7818608E-02  0.8508048E-01
          2   -1    0    0  501    0  0.00000000000E+00  0.00000000000E+00  0.19426424969E+04  0.19426424969E+04  0.00000000000E+00 0. -1.
         -1   -1    0    0    0  501 -0.00000000000E+00 -0.00000000000E+00 -0.63716342225E+03  0.63716342225E+03  0.00000000000E+00 0.  1.
         24    2    1    2    0    0  0.91043639928E+03 -0.31884722145E+02  0.75580838236E+03  0.11864142731E+04  0.80133912151E+02 0.  0.
        254    2    1    2    0    0 -0.91043639928E+03  0.31884722145E+02  0.54967069225E+03  0.13933916460E+04  0.89971736491E+03 0.  0.
         23    2    4    4    0    0 -0.80271278509E+03  0.32428035226E+02  0.77997433540E+03  0.11233637652E+04  0.90480893986E+02 0.  0.
         23    2    4    4    0    0 -0.10772361419E+03 -0.54331308131E+00 -0.23030364314E+03  0.27002788089E+03  0.90942928086E+02 0.  0.
          2    1    3    3  502    0  0.62406020823E+03 -0.58894426381E+02  0.51345146838E+03  0.81027903054E+03  0.00000000000E+00 0. -1.
         -1    1    3    3    0  502  0.28637619104E+03  0.27009704237E+02  0.24235691399E+03  0.37613524253E+03  0.00000000000E+00 0.  1.
         11    1    5    5    0    0 -0.42622207086E+03  0.35386009151E+02  0.47199156296E+03  0.63694070276E+03  0.00000000000E+00 0.  1.
        -11    1    5    5    0    0 -0.37649071423E+03 -0.29579739247E+01  0.30798277244E+03  0.48642306239E+03  0.00000000000E+00 0. -1.
          4    1    6    6  503    0 -0.37949793462E+02  0.41003872294E+02 -0.63996597130E+02  0.84953333137E+02  0.00000000000E+00 0. -1.
         -4    1    6    6    0  503 -0.69773820725E+02 -0.41547185376E+02 -0.16630704601E+03  0.18507454775E+03  0.00000000000E+00 0.  1.
<mgrwt>
<rscale>  0 0.22251119E+04</rscale>
<asrwt>0</asrwt>
<pdfrwt beam="1">  1        2 0.29886807E+00 0.22251119E+04</pdfrwt>
<pdfrwt beam="2">  1       -1 0.98025143E-01 0.22251119E+04</pdfrwt>
<totfact> 0.74465997E+00</totfact>
</mgrwt>
</event>
<event>
12    6  0.1395358E-007  0.3267845E+04  0.7818608E-02  0.8171126E-01
         -1   -1    0    0    0  501 -0.00000000000E+00  0.00000000000E+00  0.11772084710E+04  0.11772084710E+04  0.00000000000E+00 0.  1.
          2   -1    0    0  501    0  0.00000000000E+00 -0.00000000000E+00 -0.22678253388E+04  0.22678253388E+04  0.00000000000E+00 0. -1.
         24    2    1    2    0    0  0.30990206312E+03  0.12540052890E+04  0.31630086551E+03  0.13323881766E+04  0.81507434307E+02 0.  0.
        254    2    1    2    0    0 -0.30990206312E+03 -0.12540052890E+04 -0.14069177332E+04  0.21126456332E+04  0.90293161970E+03 0.  0.
         23    2    4    4    0    0 -0.48528734662E+03 -0.12804400146E+04 -0.12729149673E+04  0.18719690325E+04  0.94472772681E+02 0.  0.
         23    2    4    4    0    0  0.17538528350E+03  0.26434725568E+02 -0.13400276592E+03  0.24067660074E+03  0.92247994489E+02 0.  0.
          2    1    3    3  502    0  0.13818264450E+03  0.72651519505E+03  0.18466632406E+03  0.76224695678E+03  0.00000000000E+00 0. -1.
         -1    1    3    3    0  502  0.17171941862E+03  0.52749009398E+03  0.13163454145E+03  0.57014121977E+03  0.00000000000E+00 0.  1.
         11    1    5    5    0    0 -0.20885698804E+03 -0.65054325324E+03 -0.67719055305E+03  0.96198482884E+03  0.00000000000E+00 0. -1.
        -11    1    5    5    0    0 -0.27643035858E+03 -0.62989676137E+03 -0.59572441428E+03  0.90998420365E+03  0.00000000000E+00 0.  1.
          2    1    6    6  503    0  0.13386838946E+02 -0.22054953573E+02 -0.38871182354E+02  0.46654016458E+02  0.00000000000E+00 0.  1.
         -2    1    6    6    0  503  0.16199844455E+03  0.48489679142E+02 -0.95131583561E+02  0.19402258428E+03  0.00000000000E+00 0. -1.
<mgrwt>
<rscale>  0 0.32678453E+04</rscale>
<asrwt>0</asrwt>
<pdfrwt beam="1">  1        2 0.34889620E+00 0.32678453E+04</pdfrwt>
<pdfrwt beam="2">  1       -1 0.18110900E+00 0.32678453E+04</pdfrwt>
<totfact> 0.91966877E-01</totfact>
</mgrwt>
</event>
<event>
12    6  0.1395358E-007  0.2639930E+04  0.7818608E-02  0.8354763E-01
         -1   -1    0    0    0  501 -0.00000000000E+00  0.00000000000E+00  0.98139052518E+03  0.98139052518E+03  0.00000000000E+00 0.  1.
          2   -1    0    0  501    0  0.00000000000E+00 -0.00000000000E+00 -0.17753457376E+04  0.17753457376E+04  0.00000000000E+00 0. -1.
         24    2    1    2    0    0  0.42402386793E+03  0.86839442867E+03  0.32857760373E+03  0.10239059697E+04  0.80715975817E+02 0.  0.
        254    2    1    2    0    0 -0.42402386793E+03 -0.86839442867E+03 -0.11225328162E+04  0.17328302931E+04  0.89928625978E+03 0.  0.
         23    2    4    4    0    0 -0.14119516192E+03 -0.98093239393E+03 -0.92550643427E+03  0.13591793551E+04  0.92961950512E+02 0.  0.
         23    2    4    4    0    0 -0.28282870601E+03  0.11253796526E+03 -0.19702638189E+03  0.37365093801E+03  0.90215063873E+02 0.  0.
          2    1    3    3  502    0  0.28909848081E+03  0.54634714698E+03  0.17470613354E+03  0.64233586986E+03  0.00000000000E+00 0. -1.
         -1    1    3    3    0  502  0.13492538712E+03  0.32204728169E+03  0.15387147019E+03  0.38157009981E+03  0.00000000000E+00 0.  1.
         11    1    5    5    0    0  0.15669192291E+01 -0.74151486108E+02 -0.10099109237E+03  0.12530003538E+03  0.00000000000E+00 0. -1.
        -11    1    5    5    0    0 -0.14276208115E+03 -0.90678090782E+03 -0.82451534190E+03  0.12338793197E+04  0.00000000000E+00 0.  1.
          2    1    6    6  503    0 -0.76622309974E+02  0.21978539528E+01 -0.84592389695E+02  0.11415638984E+03  0.00000000000E+00 0.  1.
         -2    1    6    6    0  503 -0.20620639603E+03  0.11034011130E+03 -0.11243399219E+03  0.25949454817E+03  0.00000000000E+00 0. -1.
<mgrwt>
<rscale>  0 0.26399299E+04</rscale>
<asrwt>0</asrwt>
<pdfrwt beam="1">  1        2 0.27313011E+00 0.26399299E+04</pdfrwt>
<pdfrwt beam="2">  1       -1 0.15098316E+00 0.26399299E+04</pdfrwt>
<totfact> 0.30634298E+00</totfact>
</mgrwt>
</event>
<event>
12    6  0.1395358E-007  0.1100445E+04  0.7818608E-02  0.9204759E-01
         -1   -1    0    0    0  501 -0.00000000000E+00  0.00000000000E+00  0.18715656006E+03  0.18715656006E+03  0.00000000000E+00 0.  1.
          2   -1    0    0  501    0  0.00000000000E+00 -0.00000000000E+00 -0.16176007873E+04  0.16176007873E+04  0.00000000000E+00 0. -1.
         24    2    1    2    0    0 -0.11427457681E+03 -0.12141661636E+03 -0.22482067694E+03  0.29086826728E+03  0.79115981286E+02 0.  0.
        254    2    1    2    0    0  0.11427457681E+03  0.12141661636E+03 -0.12056235503E+04  0.15138890801E+04  0.90029513390E+03 0.  0.
         23    2    4    4    0    0  0.35433566849E+03  0.12964958766E+03 -0.11950532979E+04  0.12564197691E+04  0.89863617256E+02 0.  0.
         23    2    4    4    0    0 -0.24006109168E+03 -0.82329712939E+01 -0.10570252370E+02  0.25746931100E+03  0.92095636780E+02 0.  0.
          2    1    3    3  502    0 -0.11282400067E+03 -0.12305542681E+03 -0.23059924155E+03  0.28468913467E+03  0.00000000000E+00 0. -1.
         -1    1    3    3    0  502 -0.14505761437E+01  0.16388104497E+01  0.57785646105E+01  0.61791326088E+01  0.00000000000E+00 0.  1.
         11    1    5    5    0    0  0.24385651669E+03  0.12145195025E+03 -0.75536663318E+03  0.80299148655E+03  0.00000000000E+00 0.  1.
        -11    1    5    5    0    0  0.11047915180E+03  0.81976374092E+01 -0.43968666476E+03  0.45342828255E+03  0.00000000000E+00 0. -1.
          3    1    6    6  503    0 -0.42515050997E+02  0.19868316346E+02  0.27417426064E+02  0.54350665200E+02  0.00000000000E+00 0. -1.
         -3    1    6    6    0  503 -0.19754604068E+03 -0.28101287640E+02 -0.37987678435E+02  0.20311864580E+03  0.00000000000E+00 0.  1.
<mgrwt>
<rscale>  0 0.11004446E+04</rscale>
<asrwt>0</asrwt>
<pdfrwt beam="1">  1        2 0.24886166E+00 0.11004446E+04</pdfrwt>
<pdfrwt beam="2">  1       -1 0.28793317E-01 0.11004446E+04</pdfrwt>
<totfact> 0.13517202E+02</totfact>
</mgrwt>
</event>
<event>
12    6  0.1395358E-007  0.3380783E+04  0.7818608E-02  0.8142639E-01
          2   -1    0    0  501    0  0.00000000000E+00  0.00000000000E+00  0.28386383350E+04  0.28386383350E+04  0.00000000000E+00 0. -1.
         -1   -1    0    0    0  501 -0.00000000000E+00 -0.00000000000E+00 -0.10066175240E+04  0.10066175240E+04  0.00000000000E+00 0.  1.
         24    2    1    2    0    0  0.74886335374E+03 -0.20772321441E+03 -0.69931366306E+03  0.10484196460E+04  0.78733083577E+02 0.  0.
        254    2    1    2    0    0 -0.74886335374E+03  0.20772321441E+03  0.25313344741E+04  0.27968362130E+04  0.90038509884E+03 0.  0.
         23    2    4    4    0    0 -0.88274682675E+03 -0.60438892766E+01  0.21826606638E+04  0.23561671118E+04  0.90760107186E+02 0.  0.
         23    2    4    4    0    0  0.13388347302E+03  0.21376710369E+03  0.34867381034E+03  0.44066910116E+03  0.94840243208E+02 0.  0.
          2    1    3    3  502    0  0.30950738737E+03 -0.71211142233E+02 -0.23778254626E+03  0.39674474025E+03  0.00000000000E+00 0. -1.
         -1    1    3    3    0  502  0.43935596637E+03 -0.13651207218E+03 -0.46153111680E+03  0.65167490577E+03  0.00000000000E+00 0.  1.
         11    1    5    5    0    0 -0.26009663839E+03  0.14910300889E+02  0.74815172009E+03  0.79221434893E+03  0.00000000000E+00 0. -1.
        -11    1    5    5    0    0 -0.62265018836E+03 -0.20954190165E+02  0.14345089437E+04  0.15639527629E+04  0.00000000000E+00 0.  1.
          3    1    6    6  503    0  0.11102434966E+03  0.15442821499E+03  0.18608170791E+03  0.26608435095E+03  0.00000000000E+00 0. -1.
         -3    1    6    6    0  503  0.22859123360E+02  0.59338888700E+02  0.16259210243E+03  0.17458475021E+03  0.00000000000E+00 0.  1.
<mgrwt>
<rscale>  0 0.33807828E+04</rscale>
<asrwt>0</asrwt>
<pdfrwt beam="1">  1        2 0.43671359E+00 0.33807828E+04</pdfrwt>
<pdfrwt beam="2">  1       -1 0.15486424E+00 0.33807828E+04</pdfrwt>
<totfact> 0.66016729E-01</totfact>
</mgrwt>
</event>
<event>
12    6  0.1395358E-007  0.2636602E+04  0.7818608E-02  0.8355873E-01
         -1   -1    0    0    0  501 -0.00000000000E+00  0.00000000000E+00  0.37531790054E+04  0.37531790054E+04  0.00000000000E+00 0.  1.
          2   -1    0    0  501    0  0.00000000000E+00 -0.00000000000E+00 -0.46305226374E+03  0.46305226374E+03  0.00000000000E+00 0. -1.
         24    2    1    2    0    0  0.54440213510E+03  0.81644372702E+03  0.24420700333E+04  0.26329470024E+04  0.75827605721E+02 0.  0.
        254    2    1    2    0    0 -0.54440213510E+03 -0.81644372702E+03  0.84805670835E+03  0.15832842667E+04  0.90809407255E+03 0.  0.
         23    2    4    4    0    0 -0.66957491677E+03 -0.60866851854E+03  0.94018794504E+03  0.13082908004E+04  0.94146225980E+02 0.  0.
         23    2    4    4    0    0  0.12517278167E+03 -0.20777520848E+03 -0.92131236696E+02  0.27499346629E+03  0.91074031408E+02 0.  0.
          4    1    3    3  502    0  0.28104494009E+03  0.38160373586E+03  0.10960994302E+04  0.11941698499E+04  0.00000000000E+00 0. -1.
         -3    1    3    3    0  502  0.26335719501E+03  0.43483999116E+03  0.13459706031E+04  0.14387771525E+04  0.00000000000E+00 0.  1.
         11    1    5    5    0    0 -0.34716905362E+03 -0.28169889366E+03  0.40658039746E+03  0.60430806554E+03  0.00000000000E+00 0. -1.
        -11    1    5    5    0    0 -0.32240586315E+03 -0.32696962487E+03  0.53360754758E+03  0.70398273489E+03  0.00000000000E+00 0.  1.
          3    1    6    6  503    0  0.10290764627E+03 -0.92388004302E+02 -0.27941503793E+02  0.14108952702E+03  0.00000000000E+00 0. -1.
         -3    1    6    6    0  503  0.22265135400E+02 -0.11538720418E+03 -0.64189732903E+02  0.13390393927E+03  0.00000000000E+00 0.  1.
<mgrwt>
<rscale>  0 0.26366024E+04</rscale>
<asrwt>0</asrwt>
<pdfrwt beam="1">  1        2 0.71238812E-01 0.26366024E+04</pdfrwt>
<pdfrwt beam="2">  1       -1 0.57741213E+00 0.26366024E+04</pdfrwt>
<totfact> 0.36750753E-02</totfact>
</mgrwt>
</event>
<event>
12    6  0.1395358E-007  0.2469173E+04  0.7818608E-02  0.8414051E-01
         -1   -1    0    0    0  501 -0.00000000000E+00  0.00000000000E+00  0.69366255007E+03  0.69366255007E+03  0.00000000000E+00 0.  1.
          2   -1    0    0  501    0  0.00000000000E+00 -0.00000000000E+00 -0.21973277272E+04  0.21973277272E+04  0.00000000000E+00 0. -1.
         24    2    1    2    0    0  0.10521424180E+04  0.95662393450E+02 -0.46815500638E+03  0.11583512208E+04  0.80333551206E+02 0.  0.
        254    2    1    2    0    0 -0.10521424180E+04 -0.95662393450E+02 -0.10355101708E+04  0.17326390565E+04  0.90199879436E+03 0.  0.
         23    2    4    4    0    0 -0.10943154705E+04  0.16281900795E+03 -0.87093850751E+03  0.14111052272E+04  0.92993009675E+02 0.  0.
         23    2    4    4    0    0  0.42173052538E+02 -0.25848140140E+03 -0.16457166327E+03  0.32153382933E+03  0.87800739328E+02 0.  0.
          4    1    3    3  502    0  0.80035174831E+03  0.84837776634E+02 -0.39097629890E+03  0.89477529899E+03  0.00000000000E+00 0. -1.
         -3    1    3    3    0  502  0.25179066969E+03  0.10824616816E+02 -0.77178707472E+02  0.26357592181E+03  0.00000000000E+00 0.  1.
         11    1    5    5    0    0 -0.87394085983E+03  0.94676364299E+02 -0.70750814277E+03  0.11284077333E+04  0.00000000000E+00 0. -1.
        -11    1    5    5    0    0 -0.22037461071E+03  0.68142643647E+02 -0.16343036474E+03  0.28269749388E+03  0.00000000000E+00 0.  1.
          2    1    6    6  503    0  0.22786771598E+02 -0.50001866614E+02 -0.76960820130E+02  0.94564218708E+02  0.00000000000E+00 0.  1.
         -2    1    6    6    0  503  0.19386280939E+02 -0.20847953478E+03 -0.87610843135E+02  0.22696961062E+03  0.00000000000E+00 0. -1.
<mgrwt>
<rscale>  0 0.24691731E+04</rscale>
<asrwt>0</asrwt>
<pdfrwt beam="1">  1        2 0.33805041E+00 0.24691731E+04</pdfrwt>
<pdfrwt beam="2">  1       -1 0.10671732E+00 0.24691731E+04</pdfrwt>
<totfact> 0.43198123E+00</totfact>
</mgrwt>
</event>
<event>
12    6  0.1395358E-007  0.1945351E+04  0.7818608E-02  0.8632606E-01
         -3   -1    0    0    0  501 -0.00000000000E+00  0.00000000000E+00  0.98106369685E+03  0.98106369685E+03  0.00000000000E+00 0.  1.
          4   -1    0    0  501    0  0.00000000000E+00 -0.00000000000E+00 -0.96435892773E+03  0.96435892773E+03  0.00000000000E+00 0. -1.
         24    2    1    2    0    0 -0.33496165902E+03 -0.66358593741E+03  0.17321831399E+03  0.76725955178E+03  0.78339173779E+02 0.  0.
        254    2    1    2    0    0  0.33496165902E+03  0.66358593741E+03 -0.15651354487E+03  0.11781630728E+04  0.90056989016E+03 0.  0.
         23    2    4    4    0    0  0.47562446065E+03  0.68853596812E+03 -0.35812717282E+03  0.91482247705E+03  0.91349250912E+02 0.  0.
         23    2    4    4    0    0 -0.14066280163E+03 -0.24950030710E+02  0.20161362794E+03  0.26334059576E+03  0.91058698690E+02 0.  0.
          2    1    3    3  502    0 -0.15571201178E+03 -0.36367602725E+03  0.60986418412E+02  0.40028218376E+03  0.00000000000E+00 0. -1.
         -1    1    3    3    0  502 -0.17924964724E+03 -0.29990991016E+03  0.11223189558E+03  0.36697736801E+03  0.00000000000E+00 0.  1.
         11    1    5    5    0    0  0.18020701564E+03  0.18838081167E+03 -0.12088810232E+03  0.28736010852E+03  0.00000000000E+00 0. -1.
        -11    1    5    5    0    0  0.29541744501E+03  0.50015515645E+03 -0.23723907050E+03  0.62746236852E+03  0.00000000000E+00 0.  1.
          4    1    6    6  503    0 -0.14807015312E+02 -0.81756241617E+01  0.98031407349E+02  0.99479874145E+02  0.00000000000E+00 0. -1.
         -4    1    6    6    0  503 -0.12585578632E+03 -0.16774406549E+02  0.10358222059E+03  0.16386072161E+03  0.00000000000E+00 0.  1.
<mgrwt>
<rscale>  0 0.19453509E+04</rscale>
<asrwt>0</asrwt>
<pdfrwt beam="1">  1        4 0.14836291E+00 0.19453509E+04</pdfrwt>
<pdfrwt beam="2">  1       -3 0.15093288E+00 0.19453509E+04</pdfrwt>
<totfact> 0.20761995E-01</totfact>
</mgrwt>
</event>
<event>
12    6  0.1395358E-007  0.1453800E+04  0.7818608E-02  0.8915771E-01
         -1   -1    0    0    0  501 -0.00000000000E+00  0.00000000000E+00  0.22049343433E+03  0.22049343433E+03  0.00000000000E+00 0.  1.
          2   -1    0    0  501    0  0.00000000000E+00 -0.00000000000E+00 -0.23963672646E+04  0.23963672646E+04  0.00000000000E+00 0. -1.
         24    2    1    2    0    0  0.40971096851E+03  0.14515998093E+03 -0.56262870391E+03  0.71549976006E+03  0.80338971899E+02 0.  0.
        254    2    1    2    0    0 -0.40971096851E+03 -0.14515998093E+03 -0.16132451263E+04  0.19013609388E+04  0.90756767481E+03 0.  0.
         23    2    4    4    0    0 -0.68703045002E+03 -0.16646017633E+03 -0.11922274591E+04  0.13885949487E+04  0.84082030332E+02 0.  0.
         23    2    4    4    0    0  0.27731948151E+03  0.21300195406E+02 -0.42101766725E+03  0.51276599014E+03  0.91177252422E+02 0.  0.
          2    1    3    3  502    0  0.14475022975E+03  0.91598412786E+02 -0.23336979544E+03  0.28948982653E+03  0.00000000000E+00 0. -1.
         -1    1    3    3    0  502  0.26496073876E+03  0.53561568141E+02 -0.32925890847E+03  0.42600993353E+03  0.00000000000E+00 0.  1.
         11    1    5    5    0    0 -0.17644053680E+03 -0.76061437149E+02 -0.35944015560E+03  0.40757064505E+03  0.00000000000E+00 0. -1.
        -11    1    5    5    0    0 -0.51058991321E+03 -0.90398739183E+02 -0.83278730347E+03  0.98102430364E+03  0.00000000000E+00 0.  1.
          1    1    6    6  503    0  0.71906712757E+02 -0.17708743312E+02 -0.58905821278E+02  0.94625951565E+02  0.00000000000E+00 0. -1.
         -1    1    6    6    0  503  0.20541276875E+03  0.39008938718E+02 -0.36211184597E+03  0.41814003857E+03  0.00000000000E+00 0.  1.
<mgrwt>
<rscale>  0 0.14537995E+04</rscale>
<asrwt>0</asrwt>
<pdfrwt beam="1">  1        2 0.36867187E+00 0.14537995E+04</pdfrwt>
<pdfrwt beam="2">  1       -1 0.33922068E-01 0.14537995E+04</pdfrwt>
<totfact> 0.36287832E+01</totfact>
</mgrwt>
</event>
<event>
12    6  0.1395358E-007  0.1531888E+04  0.7818608E-02  0.8863521E-01
          2   -1    0    0  501    0  0.00000000000E+00  0.00000000000E+00  0.39731008044E+04  0.39731008044E+04  0.00000000000E+00 0. -1.
         -1   -1    0    0    0  501 -0.00000000000E+00 -0.00000000000E+00 -0.14766046162E+03  0.14766046162E+03  0.00000000000E+00 0.  1.
         24    2    1    2    0    0 -0.16160619679E+03 -0.42683340122E+03  0.72243862074E+03  0.85836161778E+03  0.81017225997E+02 0.  0.
        254    2    1    2    0    0  0.16160619679E+03  0.42683340122E+03  0.31030017220E+04  0.32623996482E+04  0.89795794031E+03 0.  0.
         23    2    4    4    0    0 -0.28186563063E+03  0.30199440865E+03  0.22431016605E+04  0.22826395687E+04  0.91046607992E+02 0.  0.
         23    2    4    4    0    0  0.44347182741E+03  0.12483899257E+03  0.85990006155E+03  0.97976007951E+03  0.90827648713E+02 0.  0.
          2    1    3    3  502    0 -0.42605358608E+02 -0.48335675400E+02  0.73521030431E+02  0.97759378139E+02  0.00000000000E+00 0. -1.
         -1    1    3    3    0  502 -0.11900083818E+03 -0.37849772582E+03  0.64891759031E+03  0.76060223964E+03  0.00000000000E+00 0.  1.
         11    1    5    5    0    0 -0.21064794098E+03  0.16719020658E+03  0.15250392475E+04  0.15485702524E+04  0.00000000000E+00 0.  1.
        -11    1    5    5    0    0 -0.71217689652E+02  0.13480420206E+03  0.71806241298E+03  0.73406931631E+03  0.00000000000E+00 0. -1.
          2    1    6    6  503    0  0.22906257753E+03  0.21057812038E+02  0.45949028286E+03  0.51385252350E+03  0.00000000000E+00 0. -1.
         -2    1    6    6    0  503  0.21440924989E+03  0.10378118054E+03  0.40040977869E+03  0.46590755600E+03  0.00000000000E+00 0.  1.
<mgrwt>
<rscale>  0 0.15318876E+04</rscale>
<asrwt>0</asrwt>
<pdfrwt beam="1">  1        2 0.61124620E+00 0.15318876E+04</pdfrwt>
<pdfrwt beam="2">  1       -1 0.22716997E-01 0.15318876E+04</pdfrwt>
<totfact> 0.66567517E+00</totfact>
</mgrwt>
</event>
<event>
12    6  0.1395358E-007  0.4598372E+04  0.7818608E-02  0.7893638E-01
         -1   -1    0    0    0  501 -0.00000000000E+00  0.00000000000E+00  0.35280154161E+04  0.35280154161E+04  0.00000000000E+00 0.  1.
          2   -1    0    0  501    0  0.00000000000E+00 -0.00000000000E+00 -0.14983653318E+04  0.14983653318E+04  0.00000000000E+00 0. -1.
         24    2    1    2    0    0 -0.19725998722E+04  0.81854115168E+03  0.15971988016E+04  0.26680703619E+04  0.79972316969E+02 0.  0.
        254    2    1    2    0    0  0.19725998722E+04 -0.81854115168E+03  0.43245128274E+03  0.23583103860E+04  0.90191678779E+03 0.  0.
         23    2    4    4    0    0  0.40263778733E+03  0.19491853476E+02 -0.20837030288E+03  0.46474575463E+03  0.10036589656E+03 0.  0.
         23    2    4    4    0    0  0.15699620849E+04 -0.83803300515E+03  0.64082158562E+03  0.18935646314E+04  0.88625295463E+02 0.  0.
          2    1    3    3  502    0 -0.17400526164E+04  0.74509194036E+03  0.14319897657E+04  0.23735079095E+04  0.00000000000E+00 0. -1.
         -3    1    3    3    0  502 -0.23254725576E+03  0.73449211315E+02  0.16520903590E+03  0.29456245237E+03  0.00000000000E+00 0.  1.
         11    1    5    5    0    0  0.19009025882E+03 -0.39643001219E+02 -0.84944400671E+02  0.21194675098E+03  0.00000000000E+00 0.  1.
        -11    1    5    5    0    0  0.21254752851E+03  0.59134854695E+02 -0.12342590221E+03  0.25279900366E+03  0.00000000000E+00 0. -1.
          1    1    6    6  503    0  0.11211684874E+04 -0.64317915681E+03  0.46785141219E+03  0.13746210928E+04  0.00000000000E+00 0. -1.
         -1    1    6    6    0  503  0.44879359744E+03 -0.19485384834E+03  0.17297017343E+03  0.51894353856E+03  0.00000000000E+00 0.  1.
<mgrwt>
<rscale>  0 0.45983719E+04</rscale>
<asrwt>0</asrwt>
<pdfrwt beam="1">  1        2 0.23051774E+00 0.45983719E+04</pdfrwt>
<pdfrwt beam="2">  1       -1 0.54277160E+00 0.45983719E+04</pdfrwt>
<totfact> 0.90144644E-03</totfact>
</mgrwt>
</event>
<event>
12    6  0.1395358E-007  0.1594269E+04  0.7818608E-02  0.8824077E-01
         -3   -1    0    0    0  501 -0.00000000000E+00  0.00000000000E+00  0.34107928465E+03  0.34107928465E+03  0.00000000000E+00 0.  1.
          2   -1    0    0  501    0  0.00000000000E+00 -0.00000000000E+00 -0.18629784003E+04  0.18629784003E+04  0.00000000000E+00 0. -1.
         24    2    1    2    0    0  0.13976044372E+03 -0.49866304390E+03 -0.34639174414E+03  0.62925538455E+03  0.88188919917E+02 0.  0.
        254    2    1    2    0    0 -0.13976044372E+03  0.49866304390E+03 -0.11755073715E+04  0.15748023004E+04  0.91103616391E+03 0.  0.
         23    2    4    4    0    0 -0.45028115712E+03  0.38853905546E+03 -0.38745494175E+03  0.71620571813E+03  0.95465075956E+02 0.  0.
         23    2    4    4    0    0  0.31052071340E+03  0.11012398844E+03 -0.78805242979E+03  0.85859658231E+03  0.87241347818E+02 0.  0.
          2    1    3    3  502    0  0.95269993525E+02 -0.22353199696E+03 -0.19839388328E+03  0.31369261747E+03  0.00000000000E+00 0. -1.
         -1    1    3    3    0  502  0.44490450195E+02 -0.27513104694E+03 -0.14799786086E+03  0.31556276708E+03  0.00000000000E+00 0.  1.
         11    1    5    5    0    0 -0.27129538786E+03  0.28012042717E+03 -0.21675273688E+03  0.44615063615E+03  0.00000000000E+00 0.  1.
        -11    1    5    5    0    0 -0.17898576926E+03  0.10841862829E+03 -0.17070220487E+03  0.27005508198E+03  0.00000000000E+00 0. -1.
          4    1    6    6  503    0  0.27236288795E+03  0.94867863900E+02 -0.59496348621E+03  0.66118303386E+03  0.00000000000E+00 0. -1.
         -4    1    6    6    0  503  0.38157825445E+02  0.15256124538E+02 -0.19308894358E+03  0.19741354845E+03  0.00000000000E+00 0.  1.
<mgrwt>
<rscale>  0 0.15942689E+04</rscale>
<asrwt>0</asrwt>
<pdfrwt beam="1">  1        2 0.28661206E+00 0.15942689E+04</pdfrwt>
<pdfrwt beam="2">  1       -3 0.52473736E-01 0.15942689E+04</pdfrwt>
<totfact> 0.17607850E+01</totfact>
</mgrwt>
</event>
<event>
12    6  0.1395358E-007  0.1239892E+04  0.7818608E-02  0.9078638E-01
          2   -1    0    0  501    0  0.00000000000E+00  0.00000000000E+00  0.10075491901E+04  0.10075491901E+04  0.00000000000E+00 0. -1.
         -1   -1    0    0    0  501 -0.00000000000E+00 -0.00000000000E+00 -0.38145345490E+03  0.38145345490E+03  0.00000000000E+00 0.  1.
         24    2    1    2    0    0 -0.24554264077E+03  0.49652275818E+02  0.48654312294E+01  0.26711027099E+03  0.92561803782E+02 0.  0.
        254    2    1    2    0    0  0.24554264077E+03 -0.49652275818E+02  0.62123030402E+03  0.11218923741E+04  0.89997715049E+03 0.  0.
         23    2    4    4    0    0  0.31863769771E+03 -0.18041963287E+03 -0.91873961576E+02  0.38782155301E+03  0.88789108751E+02 0.  0.
         23    2    4    4    0    0 -0.73095056945E+02  0.13076735705E+03  0.71310426559E+03  0.73407082105E+03  0.88877937008E+02 0.  0.
          2    1    3    3  502    0 -0.16886449110E+03  0.71369994169E+02  0.24702593578E+02  0.18498408189E+03  0.00000000000E+00 0. -1.
         -1    1    3    3    0  502 -0.76678149666E+02 -0.21717718351E+02 -0.19837162349E+02  0.82126189104E+02  0.00000000000E+00 0.  1.
         11    1    5    5    0    0  0.16612543660E+03 -0.79440566189E+02 -0.23054858965E+01  0.18415694260E+03  0.00000000000E+00 0.  1.
        -11    1    5    5    0    0  0.15251226111E+03 -0.10097906668E+03 -0.89568475679E+02  0.20366461041E+03  0.00000000000E+00 0. -1.
          3    1    6    6  503    0 -0.51556868413E+02  0.13093822008E+03  0.68115429016E+03  0.69553870860E+03  0.00000000000E+00 0. -1.
         -3    1    6    6    0  503 -0.21538188532E+02 -0.17086303284E+00  0.31949975433E+02  0.38532112446E+02  0.00000000000E+00 0.  1.
<mgrwt>
<rscale>  0 0.12398921E+04</rscale>
<asrwt>0</asrwt>
<pdfrwt beam="1">  1        2 0.15500757E+00 0.12398921E+04</pdfrwt>
<pdfrwt beam="2">  1       -1 0.58685147E-01 0.12398921E+04</pdfrwt>
<totfact> 0.82286803E+01</totfact>
</mgrwt>
</event>
<event>
12    6  0.1395358E-007  0.2182146E+04  0.7818608E-02  0.8525896E-01
         -1   -1    0    0    0  501 -0.00000000000E+00  0.00000000000E+00  0.14297387039E+04  0.14297387039E+04  0.00000000000E+00 0.  1.
          2   -1    0    0  501    0  0.00000000000E+00 -0.00000000000E+00 -0.83262758919E+03  0.83262758919E+03  0.00000000000E+00 0. -1.
         24    2    1    2    0    0  0.52518119209E+03 -0.68611200637E+03  0.52491225434E+03  0.10142011047E+04  0.80660003906E+02 0.  0.
        254    2    1    2    0    0 -0.52518119209E+03  0.68611200637E+03  0.72198860408E+02  0.12481651884E+04  0.89785226643E+03 0.  0.
         23    2    4    4    0    0 -0.68112455141E+03  0.28136135860E+03 -0.14396466795E+03  0.75652691916E+03  0.92262046091E+02 0.  0.
         23    2    4    4    0    0  0.15594335932E+03  0.40475064777E+03  0.21616352836E+03  0.49163826926E+03  0.82704888742E+02 0.  0.
          2    1    3    3  502    0  0.34917368249E+03 -0.50526899921E+03  0.39656153972E+03  0.73108144341E+03  0.00000000000E+00 0. -1.
         -1    1    3    3    0  502  0.17600750960E+03 -0.18084300716E+03  0.12835071462E+03  0.28311966131E+03  0.00000000000E+00 0.  1.
         11    1    5    5    0    0 -0.45997019507E+03  0.17148021634E+03 -0.13627580243E+03  0.50945965422E+03  0.00000000000E+00 0. -1.
        -11    1    5    5    0    0 -0.22115435634E+03  0.10988114226E+03 -0.76888655212E+01  0.24706726494E+03  0.00000000000E+00 0.  1.
          4    1    6    6  503    0  0.37260675384E+02  0.73351808471E+02  0.78353723458E+02  0.11361404718E+03  0.00000000000E+00 0. -1.
         -4    1    6    6    0  503  0.11868268394E+03  0.33139883930E+03  0.13780980490E+03  0.37802422209E+03  0.00000000000E+00 0.  1.
<mgrwt>
<rscale>  0 0.21821456E+04</rscale>
<asrwt>0</asrwt>
<pdfrwt beam="1">  1        2 0.12809655E+00 0.21821456E+04</pdfrwt>
<pdfrwt beam="2">  1       -1 0.21995980E+00 0.21821456E+04</pdfrwt>
<totfact> 0.37538428E+00</totfact>
</mgrwt>
</event>
<event>
12    6  0.1395358E-007  0.1959058E+04  0.7818608E-02  0.8626005E-01
         -1   -1    0    0    0  501 -0.00000000000E+00  0.00000000000E+00  0.59161162284E+03  0.59161162284E+03  0.00000000000E+00 0.  1.
          2   -1    0    0  501    0  0.00000000000E+00 -0.00000000000E+00 -0.16218030499E+04  0.16218030499E+04  0.00000000000E+00 0. -1.
         24    2    1    2    0    0  0.42798358546E+03 -0.14521186740E+03 -0.10879874265E+04  0.11808974627E+04  0.80905755960E+02 0.  0.
        254    2    1    2    0    0 -0.42798358546E+03  0.14521186740E+03  0.57795999456E+02  0.10325172100E+04  0.92655003944E+03 0.  0.
         23    2    4    4    0    0 -0.58187990944E+03 -0.63290424969E+02  0.30240449626E+03  0.66487071545E+03  0.89524756395E+02 0.  0.
         23    2    4    4    0    0  0.15389632398E+03  0.20850229237E+03 -0.24460849680E+03  0.36764649457E+03  0.90406547371E+02 0.  0.
          2    1    3    3  502    0  0.21259661315E+03 -0.70510005001E+02 -0.64330775122E+03  0.68118561605E+03  0.00000000000E+00 0. -1.
         -1    1    3    3    0  502  0.21538697230E+03 -0.74701862396E+02 -0.44467967529E+03  0.49971184667E+03  0.00000000000E+00 0.  1.
         11    1    5    5    0    0 -0.21919436331E+03 -0.64524859241E+02  0.13519554483E+03  0.26549474893E+03  0.00000000000E+00 0.  1.
        -11    1    5    5    0    0 -0.36268554612E+03  0.12344342717E+01  0.16720895142E+03  0.39937596652E+03  0.00000000000E+00 0. -1.
          4    1    6    6  503    0  0.34286068923E+02  0.53842366848E+02 -0.11964374136E+03  0.13560663641E+03  0.00000000000E+00 0. -1.
         -4    1    6    6    0  503  0.11961025506E+03  0.15465992552E+03 -0.12496475544E+03  0.23203985817E+03  0.00000000000E+00 0.  1.
<mgrwt>
<rscale>  0 0.19590585E+04</rscale>
<asrwt>0</asrwt>
<pdfrwt beam="1">  1        2 0.24950816E+00 0.19590585E+04</pdfrwt>
<pdfrwt beam="2">  1       -1 0.91017173E-01 0.19590585E+04</pdfrwt>
<totfact> 0.13565410E+01</totfact>
</mgrwt>
</event>
<event>
12    6  0.1395358E-007  0.1262151E+04  0.7818608E-02  0.9060130E-01
         -1   -1    0    0    0  501 -0.00000000000E+00  0.00000000000E+00  0.28868807469E+03  0.28868807469E+03  0.00000000000E+00 0.  1.
          2   -1    0    0  501    0  0.00000000000E+00 -0.00000000000E+00 -0.13795393387E+04  0.13795393387E+04  0.00000000000E+00 0. -1.
         24    2    1    2    0    0  0.19675055545E+03 -0.22280058185E+03 -0.34690867859E+03  0.46359861649E+03  0.78912391838E+02 0.  0.
        254    2    1    2    0    0 -0.19675055545E+03  0.22280058185E+03 -0.74394258539E+03  0.12046287969E+04  0.89962719365E+03 0.  0.
         23    2    4    4    0    0 -0.34947694512E+02 -0.31353934562E+03 -0.91851776203E+02  0.34045588348E+03  0.89135835682E+02 0.  0.
         23    2    4    4    0    0 -0.16180286093E+03  0.53633992747E+03 -0.65209080919E+03  0.86417291339E+03  0.87930183725E+02 0.  0.
          4    1    3    3  502    0  0.20335355484E+03 -0.21396202053E+03 -0.34123863380E+03  0.45119421505E+03  0.00000000000E+00 0. -1.
         -3    1    3    3    0  502 -0.66029993912E+01 -0.88385613171E+01 -0.56700447920E+01  0.12404401439E+02  0.00000000000E+00 0.  1.
         11    1    5    5    0    0 -0.23519617224E+02 -0.22400879167E+03 -0.10627597020E+03  0.24905359460E+03  0.00000000000E+00 0.  1.
        -11    1    5    5    0    0 -0.11428077288E+02 -0.89530553947E+02  0.14424193997E+02  0.91402288883E+02  0.00000000000E+00 0. -1.
          4    1    6    6  503    0 -0.18478212322E+02  0.96539965174E+01 -0.30432359140E+02  0.36888649504E+02  0.00000000000E+00 0. -1.
         -4    1    6    6    0  503 -0.14332464861E+03  0.52668593095E+03 -0.62165845005E+03  0.82728426389E+03  0.00000000000E+00 0.  1.
<mgrwt>
<rscale>  0 0.12621514E+04</rscale>
<asrwt>0</asrwt>
<pdfrwt beam="1">  1        2 0.21223682E+00 0.12621514E+04</pdfrwt>
<pdfrwt beam="2">  1       -1 0.44413550E-01 0.12621514E+04</pdfrwt>
<totfact> 0.83535241E+01</totfact>
</mgrwt>
</event>
<event>
12    6  0.1395358E-007  0.2533473E+04  0.7818608E-02  0.8391157E-01
         -1   -1    0    0    0  501 -0.00000000000E+00  0.00000000000E+00  0.73402835877E+03  0.73402835877E+03  0.00000000000E+00 0.  1.
          2   -1    0    0  501    0  0.00000000000E+00 -0.00000000000E+00 -0.21860488311E+04  0.21860488311E+04  0.00000000000E+00 0. -1.
         24    2    1    2    0    0  0.10597313790E+04  0.19302377531E+03 -0.91634286473E+03  0.14163404339E+04  0.77763781330E+02 0.  0.
        254    2    1    2    0    0 -0.10597313790E+04 -0.19302377531E+03 -0.53567760758E+03  0.15037367559E+04  0.90221114955E+03 0.  0.
         23    2    4    4    0    0 -0.54484133797E+03 -0.53971683179E+03 -0.23033515569E+03  0.80579243055E+03  0.90004528261E+02 0.  0.
         23    2    4    4    0    0 -0.51489004100E+03  0.34669305648E+03 -0.30534245188E+03  0.69794432535E+03  0.92652245718E+02 0.  0.
          4    1    3    3  502    0  0.43379639676E+03  0.89866386185E+02 -0.42536918562E+03  0.61416140003E+03  0.00000000000E+00 0. -1.
         -3    1    3    3    0  502  0.62593498220E+03  0.10315738913E+03 -0.49097367911E+03  0.80217903392E+03  0.00000000000E+00 0.  1.
         11    1    5    5    0    0 -0.22553786551E+03 -0.23962557190E+03 -0.54086259676E+02  0.33348623206E+03  0.00000000000E+00 0.  1.
        -11    1    5    5    0    0 -0.31930347246E+03 -0.30009125989E+03 -0.17624889602E+03  0.47230619849E+03  0.00000000000E+00 0. -1.
          1    1    6    6  503    0 -0.70785465272E+02  0.41317499165E+02 -0.78755071469E+01  0.82339185349E+02  0.00000000000E+00 0. -1.
         -1    1    6    6    0  503 -0.44410457573E+03  0.30537555731E+03 -0.29746694474E+03  0.61560514000E+03  0.00000000000E+00 0.  1.
<mgrwt>
<rscale>  0 0.25334734E+04</rscale>
<asrwt>0</asrwt>
<pdfrwt beam="1">  1        2 0.33631520E+00 0.25334734E+04</pdfrwt>
<pdfrwt beam="2">  1       -1 0.11292744E+00 0.25334734E+04</pdfrwt>
<totfact> 0.38137585E+00</totfact>
</mgrwt>
</event>
<event>
12    6  0.1395358E-007  0.1977326E+04  0.7818608E-02  0.8617295E-01
         -3   -1    0    0    0  501 -0.00000000000E+00  0.00000000000E+00  0.92784169458E+03  0.92784169458E+03  0.00000000000E+00 0.  1.
          4   -1    0    0  501    0  0.00000000000E+00 -0.00000000000E+00 -0.10534714814E+04  0.10534714814E+04  0.00000000000E+00 0. -1.
         24    2    1    2    0    0  0.66064631471E+03  0.10083940842E+03  0.35995656733E+03  0.76316698406E+03  0.78949197414E+02 0.  0.
        254    2    1    2    0    0 -0.66064631471E+03 -0.10083940842E+03 -0.48558635418E+03  0.12181461919E+04  0.89524516093E+03 0.  0.
         23    2    4    4    0    0 -0.63727838171E+03  0.19567899326E+03 -0.37980108731E+02  0.67336391132E+03  0.86962429859E+02 0.  0.
         23    2    4    4    0    0 -0.23367932993E+02 -0.29651840168E+03 -0.44760624545E+03  0.54478228063E+03  0.89258946293E+02 0.  0.
          2    1    3    3  502    0  0.38360680253E+03  0.33441345325E+02  0.17243511448E+03  0.42190801276E+03  0.00000000000E+00 0. -1.
         -1    1    3    3    0  502  0.27703951218E+03  0.67398063097E+02  0.18752145285E+03  0.34125897130E+03  0.00000000000E+00 0.  1.
         11    1    5    5    0    0 -0.60485032533E+03  0.16419809714E+03 -0.40897235189E+02  0.62807445021E+03  0.00000000000E+00 0.  1.
        -11    1    5    5    0    0 -0.32428056384E+02  0.31480896117E+02  0.29171264581E+01  0.45289461114E+02  0.00000000000E+00 0. -1.
          2    1    6    6  503    0 -0.12522514890E+02 -0.26434499835E+03 -0.33356483936E+03  0.42579407416E+03  0.00000000000E+00 0. -1.
         -2    1    6    6    0  503 -0.10845418104E+02 -0.32173403330E+02 -0.11404140609E+03  0.11898820647E+03  0.00000000000E+00 0.  1.
<mgrwt>
<rscale>  0 0.19773262E+04</rscale>
<asrwt>0</asrwt>
<pdfrwt beam="1">  1        4 0.16207254E+00 0.19773262E+04</pdfrwt>
<pdfrwt beam="2">  1       -3 0.14274488E+00 0.19773262E+04</pdfrwt>
<totfact> 0.18823665E-01</totfact>
</mgrwt>
</event>
<event>
12    6  0.1395358E-007  0.1903647E+04  0.7818608E-02  0.8653043E-01
         -1   -1    0    0    0  501 -0.00000000000E+00  0.00000000000E+00  0.39084288913E+03  0.39084288913E+03  0.00000000000E+00 0.  1.
          2   -1    0    0  501    0  0.00000000000E+00 -0.00000000000E+00 -0.23179854933E+04  0.23179854933E+04  0.00000000000E+00 0. -1.
         24    2    1    2    0    0 -0.26140428275E+03 -0.11260316303E+03 -0.17164265943E+04  0.17417278022E+04  0.80522121673E+02 0.  0.
        254    2    1    2    0    0  0.26140428275E+03  0.11260316303E+03 -0.21071600983E+03  0.96710058016E+03  0.89992812157E+03 0.  0.
         23    2    4    4    0    0 -0.10506988970E+03 -0.14352858848E+03  0.24907441920E+03  0.31949512811E+03  0.91645693578E+02 0.  0.
         23    2    4    4    0    0  0.36647417245E+03  0.25613175152E+03 -0.45979042903E+03  0.64760545205E+03  0.89882087724E+02 0.  0.
          2    1    3    3  502    0 -0.51934947434E+02 -0.20748405934E+02 -0.56795639341E+03  0.57070325032E+03  0.00000000000E+00 0. -1.
         -1    1    3    3    0  502 -0.20946933531E+03 -0.91854757100E+02 -0.11484702009E+04  0.11710245519E+04  0.00000000000E+00 0.  1.
         11    1    5    5    0    0 -0.11724740235E+03 -0.99558720420E+02  0.18076026620E+03  0.23734608909E+03  0.00000000000E+00 0.  1.
        -11    1    5    5    0    0  0.12177512646E+02 -0.43969868063E+02  0.68314153006E+02  0.82149039025E+02  0.00000000000E+00 0. -1.
          1    1    6    6  503    0  0.76541580911E+02  0.97245061228E+02 -0.15078928587E+03  0.19507081862E+03  0.00000000000E+00 0. -1.
         -1    1    6    6    0  503  0.28993259154E+03  0.15888669029E+03 -0.30900114316E+03  0.45253463344E+03  0.00000000000E+00 0.  1.
<mgrwt>
<rscale>  0 0.19036472E+04</rscale>
<asrwt>0</asrwt>
<pdfrwt beam="1">  1        2 0.35661316E+00 0.19036472E+04</pdfrwt>
<pdfrwt beam="2">  1       -1 0.60129674E-01 0.19036472E+04</pdfrwt>
<totfact> 0.13243003E+01</totfact>
</mgrwt>
</event>
<event>
12    6  0.1395358E-007  0.2357796E+04  0.7818608E-02  0.8455475E-01
          2   -1    0    0  501    0  0.00000000000E+00  0.00000000000E+00  0.68513205934E+03  0.68513205934E+03  0.00000000000E+00 0. -1.
         -1   -1    0    0    0  501 -0.00000000000E+00 -0.00000000000E+00 -0.20285146992E+04  0.20285146992E+04  0.00000000000E+00 0.  1.
         24    2    1    2    0    0 -0.68599519089E+03 -0.45780298999E+03 -0.12400007871E+04  0.14904156086E+04  0.59697192755E+02 0.  0.
        254    2    1    2    0    0  0.68599519089E+03  0.45780298999E+03 -0.10338185278E+03  0.12232311500E+04  0.89745955851E+03 0.  0.
         23    2    4    4    0    0  0.25347437703E+03  0.50337478050E+03  0.28091144815E+03  0.63606471801E+03  0.89619497536E+02 0.  0.
         23    2    4    4    0    0  0.43252081386E+03 -0.45571790515E+02 -0.38429330093E+03  0.58716643194E+03  0.89061973637E+02 0.  0.
          4    1    3    3  502    0 -0.14698962141E+03 -0.77982700510E+02 -0.28173031029E+03  0.32719904969E+03  0.00000000000E+00 0. -1.
         -3    1    3    3    0  502 -0.53900556948E+03 -0.37982028948E+03 -0.95827047678E+03  0.11632165589E+04  0.00000000000E+00 0.  1.
         11    1    5    5    0    0  0.10218086072E+02  0.92563685064E+02  0.41137565177E+02  0.10180738846E+03  0.00000000000E+00 0. -1.
        -11    1    5    5    0    0  0.24325629096E+03  0.41081109544E+03  0.23977388297E+03  0.53425732955E+03  0.00000000000E+00 0.  1.
          1    1    6    6  503    0  0.11497536967E+03 -0.32264828333E+02 -0.62113245950E+02  0.13460464368E+03  0.00000000000E+00 0. -1.
         -1    1    6    6    0  503  0.31754544419E+03 -0.13306962182E+02 -0.32218005498E+03  0.45256178826E+03  0.00000000000E+00 0.  1.
<mgrwt>
<rscale>  0 0.23577960E+04</rscale>
<asrwt>0</asrwt>
<pdfrwt beam="1">  1        2 0.10540493E+00 0.23577960E+04</pdfrwt>
<pdfrwt beam="2">  1       -1 0.31207918E+00 0.23577960E+04</pdfrwt>
<totfact> 0.11951951E+00</totfact>
</mgrwt>
</event>
<event>
12    6  0.1395358E-007  0.1573997E+04  0.7818608E-02  0.8836684E-01
          2   -1    0    0  501    0  0.00000000000E+00  0.00000000000E+00  0.91109790028E+03  0.91109790028E+03  0.00000000000E+00 0. -1.
         -1   -1    0    0    0  501 -0.00000000000E+00 -0.00000000000E+00 -0.67980228869E+03  0.67980228869E+03  0.00000000000E+00 0.  1.
         24    2    1    2    0    0 -0.51902241833E+03 -0.74786286150E+02  0.73915122391E+02  0.53558298270E+03  0.80052649659E+02 0.  0.
        254    2    1    2    0    0  0.51902241833E+03  0.74786286150E+02  0.15738048921E+03  0.10553172063E+04  0.90219095992E+03 0.  0.
         23    2    4    4    0    0 -0.13705524417E+03 -0.56111399253E+01 -0.23063854263E+03  0.28343763593E+03  0.91253116476E+02 0.  0.
         23    2    4    4    0    0  0.65607766249E+03  0.80397426076E+02  0.38801903184E+03  0.77187957035E+03  0.91310769942E+02 0.  0.
          2    1    3    3  502    0 -0.24526474019E+03 -0.72677699183E+02  0.51170130997E+02  0.26087396007E+03  0.00000000000E+00 0. -1.
         -1    1    3    3    0  502 -0.27375767814E+03 -0.21085869674E+01  0.22744991394E+02  0.27470902262E+03  0.00000000000E+00 0.  1.
         11    1    5    5    0    0 -0.35618842876E+02 -0.42582550833E+02 -0.95546238598E+02  0.11050366199E+03  0.00000000000E+00 0.  1.
        -11    1    5    5    0    0 -0.10143640129E+03  0.36971410907E+02 -0.13509230403E+03  0.17293397393E+03  0.00000000000E+00 0. -1.
          1    1    6    6  503    0  0.61236384135E+03  0.51417826655E+02  0.36356199076E+03  0.71401021576E+03  0.00000000000E+00 0. -1.
         -1    1    6    6    0  503  0.43713821149E+02  0.28979599420E+02  0.24457041080E+02  0.57869354588E+02  0.00000000000E+00 0.  1.
<mgrwt>
<rscale>  0 0.15739967E+04</rscale>
<asrwt>0</asrwt>
<pdfrwt beam="1">  1        2 0.14016891E+00 0.15739967E+04</pdfrwt>
<pdfrwt beam="2">  1       -1 0.10458497E+00 0.15739967E+04</pdfrwt>
<totfact> 0.27161766E+01</totfact>
</mgrwt>
</event>
<event>
12    6  0.1395358E-007  0.1549138E+04  0.7818608E-02  0.8852419E-01
          2   -1    0    0  501    0  0.00000000000E+00  0.00000000000E+00  0.23625448260E+04  0.23625448260E+04  0.00000000000E+00 0. -1.
         -1   -1    0    0    0  501 -0.00000000000E+00 -0.00000000000E+00 -0.25394521109E+03  0.25394521109E+03  0.00000000000E+00 0.  1.
         24    2    1    2    0    0 -0.23259863519E+03 -0.20758811655E+03  0.13821095511E+04  0.14190882475E+04  0.79935547400E+02 0.  0.
        254    2    1    2    0    0  0.23259863519E+03  0.20758811655E+03  0.72649006382E+03  0.11974017896E+04  0.89932657119E+03 0.  0.
         23    2    4    4    0    0  0.28343943349E+02 -0.18257412478E+03 -0.12024082790E+03  0.23816232871E+03  0.90148477290E+02 0.  0.
         23    2    4    4    0    0  0.20425469184E+03  0.39016224133E+03  0.84673089173E+03  0.95923946088E+03  0.96127969986E+02 0.  0.
          2    1    3    3  502    0 -0.23751238018E+03 -0.19687660017E+03  0.12980286355E+04  0.13341854687E+04  0.00000000000E+00 0. -1.
         -1    1    3    3    0  502  0.49137449857E+01 -0.10711516383E+02  0.84080915620E+02  0.84902778779E+02  0.00000000000E+00 0.  1.
         11    1    5    5    0    0  0.41381161295E+02 -0.26911080296E+02 -0.29913473706E+02  0.57718477648E+02  0.00000000000E+00 0. -1.
        -11    1    5    5    0    0 -0.13037217946E+02 -0.15566304448E+03 -0.90327354197E+02  0.18044385106E+03  0.00000000000E+00 0.  1.
          2    1    6    6  503    0  0.11092151764E+03  0.24748426252E+03  0.42277222086E+03  0.50228318108E+03  0.00000000000E+00 0.  1.
         -2    1    6    6    0  503  0.93333174207E+02  0.14267797881E+03  0.42395867087E+03  0.45695627980E+03  0.00000000000E+00 0. -1.
<mgrwt>
<rscale>  0 0.15491378E+04</rscale>
<asrwt>0</asrwt>
<pdfrwt beam="1">  1        2 0.36346842E+00 0.15491378E+04</pdfrwt>
<pdfrwt beam="2">  1       -1 0.39068496E-01 0.15491378E+04</pdfrwt>
<totfact> 0.29166968E+01</totfact>
</mgrwt>
</event>
<event>
12    6  0.1395358E-007  0.1994204E+04  0.7818608E-02  0.8609335E-01
         -1   -1    0    0    0  501 -0.00000000000E+00  0.00000000000E+00  0.12711342835E+04  0.12711342835E+04  0.00000000000E+00 0.  1.
          2   -1    0    0  501    0  0.00000000000E+00 -0.00000000000E+00 -0.78214617925E+03  0.78214617925E+03  0.00000000000E+00 0. -1.
         24    2    1    2    0    0  0.11471003564E+03 -0.67043041908E+03  0.61054844088E+03  0.91952890370E+03  0.10064127870E+03 0.  0.
        254    2    1    2    0    0 -0.11471003564E+03  0.67043041908E+03 -0.12156033661E+03  0.11337515591E+04  0.89887726813E+03 0.  0.
         23    2    4    4    0    0  0.21895508282E+03 -0.81585810094E+02 -0.17164316958E+03  0.30421696765E+03  0.92135840129E+02 0.  0.
         23    2    4    4    0    0 -0.33366511846E+03  0.75201622917E+03  0.50082832979E+02  0.82953459142E+03  0.93587007636E+02 0.  0.
          2    1    3    3  502    0  0.42479760196E+02 -0.31483562126E+03  0.21997447475E+03  0.38641269128E+03  0.00000000000E+00 0. -1.
         -1    1    3    3    0  502  0.72230275442E+02 -0.35559479781E+03  0.39057396613E+03  0.53311621242E+03  0.00000000000E+00 0.  1.
         11    1    5    5    0    0  0.15967660347E+03 -0.46094699596E+02 -0.67810576758E+02  0.17949822659E+03  0.00000000000E+00 0. -1.
        -11    1    5    5    0    0  0.59278479349E+02 -0.35491110499E+02 -0.10383259283E+03  0.12471874106E+03  0.00000000000E+00 0.  1.
          3    1    6    6  503    0 -0.28523557441E+03  0.55659502696E+03  0.57514850330E+02  0.62806473786E+03  0.00000000000E+00 0. -1.
         -3    1    6    6    0  503 -0.48429544054E+02  0.19542120221E+03 -0.74320173509E+01  0.20146985356E+03  0.00000000000E+00 0.  1.
<mgrwt>
<rscale>  0 0.19942044E+04</rscale>
<asrwt>0</asrwt>
<pdfrwt beam="1">  1        2 0.12033018E+00 0.19942044E+04</pdfrwt>
<pdfrwt beam="2">  1       -1 0.19555912E+00 0.19942044E+04</pdfrwt>
<totfact> 0.60827579E+00</totfact>
</mgrwt>
</event>
<event>
12    6  0.1395358E-007  0.2722566E+04  0.7818608E-02  0.8327720E-01
          2   -1    0    0  501    0  0.00000000000E+00  0.00000000000E+00  0.13914825550E+04  0.13914825550E+04  0.00000000000E+00 0. -1.
         -1   -1    0    0    0  501 -0.00000000000E+00 -0.00000000000E+00 -0.13317393067E+04  0.13317393067E+04  0.00000000000E+00 0.  1.
         24    2    1    2    0    0 -0.11114072169E+04 -0.37127952400E+03 -0.27901282942E+03  0.12071684054E+04  0.79579604805E+02 0.  0.
        254    2    1    2    0    0  0.11114072169E+04  0.37127952400E+03  0.33875607777E+03  0.15160534563E+04  0.90032656044E+03 0.  0.
         23    2    4    4    0    0  0.79931683143E+03  0.52186221261E+03  0.54448677644E+03  0.11026026075E+04  0.89549396054E+02 0.  0.
         23    2    4    4    0    0  0.31209038543E+03 -0.15058268861E+03 -0.20573069867E+03  0.41345084880E+03  0.92417147826E+02 0.  0.
          2    1    3    3  502    0 -0.97153073036E+03 -0.35082293979E+03 -0.23841327912E+03  0.10600894240E+04  0.00000000000E+00 0. -1.
         -3    1    3    3    0  502 -0.13987648649E+03 -0.20456584209E+02 -0.40599550296E+02  0.14707898148E+03  0.00000000000E+00 0.  1.
         11    1    5    5    0    0  0.35954684163E+03  0.22341601446E+03  0.19167104959E+03  0.46467885479E+03  0.00000000000E+00 0.  1.
        -11    1    5    5    0    0  0.43976998980E+03  0.29844619816E+03  0.35281572685E+03  0.63792375268E+03  0.00000000000E+00 0. -1.
          2    1    6    6  503    0  0.16393459183E+03 -0.83060586200E+02 -0.16169657080E+03  0.24478437938E+03  0.00000000000E+00 0. -1.
         -2    1    6    6    0  503  0.14815579359E+03 -0.67522102413E+02 -0.44034127868E+02  0.16866646942E+03  0.00000000000E+00 0.  1.
<mgrwt>
<rscale>  0 0.27225664E+04</rscale>
<asrwt>0</asrwt>
<pdfrwt beam="1">  1        2 0.21407424E+00 0.27225664E+04</pdfrwt>
<pdfrwt beam="2">  1       -1 0.20488297E+00 0.27225664E+04</pdfrwt>
<totfact> 0.20335738E+00</totfact>
</mgrwt>
</event>
<event>
12    6  0.1395358E-007  0.1575028E+04  0.7818608E-02  0.8836038E-01
         -1   -1    0    0    0  501 -0.00000000000E+00  0.00000000000E+00  0.14864569620E+04  0.14864569620E+04  0.00000000000E+00 0.  1.
          2   -1    0    0  501    0  0.00000000000E+00 -0.00000000000E+00 -0.41721913726E+03  0.41721913726E+03  0.00000000000E+00 0. -1.
         24    2    1    2    0    0 -0.46425034214E+03 -0.24350569641E+03  0.43885740209E+03  0.68829410318E+03  0.79558461155E+02 0.  0.
        254    2    1    2    0    0  0.46425034214E+03  0.24350569641E+03  0.63038042264E+03  0.12153819961E+04  0.89719034476E+03 0.  0.
         23    2    4    4    0    0 -0.22973308489E+03  0.21722711932E+03  0.28098206103E+03  0.43228092674E+03  0.89168208139E+02 0.  0.
         23    2    4    4    0    0  0.69398342703E+03  0.26278577093E+02  0.34939836161E+03  0.78310106932E+03  0.94151521886E+02 0.  0.
          4    1    3    3  502    0 -0.36199341580E+03 -0.15057414145E+03  0.32388313174E+03  0.50853917075E+03  0.00000000000E+00 0. -1.
         -3    1    3    3    0  502 -0.10225692634E+03 -0.92931554966E+02  0.11497427035E+03  0.17975493244E+03  0.00000000000E+00 0.  1.
         11    1    5    5    0    0  0.52597350690E+01  0.19501330906E+02  0.27210679247E+02  0.33887870768E+02  0.00000000000E+00 0.  1.
        -11    1    5    5    0    0 -0.23499281995E+03  0.19772578842E+03  0.25377138178E+03  0.39839305597E+03  0.00000000000E+00 0. -1.
          2    1    6    6  503    0  0.58590891082E+03 -0.78859770367E+01  0.27318516329E+03  0.64651494481E+03  0.00000000000E+00 0. -1.
         -2    1    6    6    0  503  0.10807451620E+03  0.34164554130E+02  0.76213198326E+02  0.13658612452E+03  0.00000000000E+00 0.  1.
<mgrwt>
<rscale>  0 0.15750280E+04</rscale>
<asrwt>0</asrwt>
<pdfrwt beam="1">  1        2 0.64187560E-01 0.15750280E+04</pdfrwt>
<pdfrwt beam="2">  1       -1 0.22868568E+00 0.15750280E+04</pdfrwt>
<totfact> 0.80236100E+00</totfact>
</mgrwt>
</event>
<event>
12    6  0.1395358E-007  0.1573201E+04  0.7818608E-02  0.8837183E-01
         -3   -1    0    0    0  501 -0.00000000000E+00  0.00000000000E+00  0.29163894941E+04  0.29163894941E+04  0.00000000000E+00 0.  1.
          4   -1    0    0  501    0  0.00000000000E+00 -0.00000000000E+00 -0.21215962844E+03  0.21215962844E+03  0.00000000000E+00 0. -1.
         24    2    1    2    0    0 -0.40939179601E+02  0.30716898833E+03  0.69185774277E+02  0.32736581911E+03  0.79705108635E+02 0.  0.
        254    2    1    2    0    0  0.40939179601E+02 -0.30716898833E+03  0.26350440913E+04  0.28011833034E+04  0.89841067005E+03 0.  0.
         23    2    4    4    0    0  0.24827932824E+03 -0.53299269835E+03  0.13288254965E+04  0.14562813095E+04  0.96198808490E+02 0.  0.
         23    2    4    4    0    0 -0.20734014864E+03  0.22582371003E+03  0.13062185948E+04  0.13449019939E+04  0.92563872890E+02 0.  0.
          4    1    3    3  502    0  0.23588303465E+02  0.60324759533E+02  0.11469464094E+02  0.65780189112E+02  0.00000000000E+00 0. -1.
         -3    1    3    3    0  502 -0.64527483066E+02  0.24684422879E+03  0.57716310182E+02  0.26158563000E+03  0.00000000000E+00 0.  1.
         11    1    5    5    0    0  0.21885995892E+03 -0.38287540443E+03  0.10343413708E+04  0.11244355598E+04  0.00000000000E+00 0. -1.
        -11    1    5    5    0    0  0.29419369325E+02 -0.15011729392E+03  0.29448412573E+03  0.33184574961E+03  0.00000000000E+00 0.  1.
          3    1    6    6  503    0 -0.17171833842E+03  0.22324225841E+03  0.12077919249E+04  0.12401958021E+04  0.00000000000E+00 0. -1.
         -3    1    6    6    0  503 -0.35621810215E+02  0.25814516142E+01  0.98426669952E+02  0.10470619186E+03  0.00000000000E+00 0.  1.
<mgrwt>
<rscale>  0 0.15732007E+04</rscale>
<asrwt>0</asrwt>
<pdfrwt beam="1">  1        4 0.32639945E-01 0.15732007E+04</pdfrwt>
<pdfrwt beam="2">  1       -3 0.44867528E+00 0.15732007E+04</pdfrwt>
<totfact> 0.11653718E-01</totfact>
</mgrwt>
</event>
<event>
12    6  0.1395358E-007  0.1572487E+04  0.7818608E-02  0.8837631E-01
          2   -1    0    0  501    0  0.00000000000E+00  0.00000000000E+00  0.28344734078E+04  0.28344734078E+04  0.00000000000E+00 0. -1.
         -1   -1    0    0    0  501 -0.00000000000E+00 -0.00000000000E+00 -0.21809304608E+03  0.21809304608E+03  0.00000000000E+00 0.  1.
         24    2    1    2    0    0 -0.48850205039E+03 -0.95770804240E+02  0.56216987628E+03  0.75520017079E+03  0.80535880093E+02 0.  0.
        254    2    1    2    0    0  0.48850205039E+03  0.95770804240E+02  0.20542104855E+04  0.22973662831E+04  0.90016932855E+03 0.  0.
         23    2    4    4    0    0  0.58826915733E+03 -0.24151077398E+03  0.15323258358E+04  0.16615211647E+04  0.90785781291E+02 0.  0.
         23    2    4    4    0    0 -0.99767106948E+02  0.33728157822E+03  0.52188464962E+03  0.63584511844E+03  0.90681246650E+02 0.  0.
          2    1    3    3  502    0 -0.90412674191E+02 -0.15140866205E+02  0.15499950027E+03  0.18007926745E+03  0.00000000000E+00 0. -1.
         -1    1    3    3    0  502 -0.39808937620E+03 -0.80629938035E+02  0.40717037602E+03  0.57512090333E+03  0.00000000000E+00 0.  1.
         11    1    5    5    0    0  0.12909297115E+02 -0.17498913863E+01  0.96723687429E+01  0.16225498111E+02  0.00000000000E+00 0.  1.
        -11    1    5    5    0    0  0.57535986022E+03 -0.23976088259E+03  0.15226534671E+04  0.16452956666E+04  0.00000000000E+00 0. -1.
          1    1    6    6  503    0 -0.71191129532E+02  0.19196633879E+03  0.37503995208E+03  0.42728704381E+03  0.00000000000E+00 0. -1.
         -1    1    6    6    0  503 -0.28575977417E+02  0.14531523943E+03  0.14684469754E+03  0.20855807462E+03  0.00000000000E+00 0.  1.
<mgrwt>
<rscale>  0 0.15724871E+04</rscale>
<asrwt>0</asrwt>
<pdfrwt beam="1">  1        2 0.43607281E+00 0.15724871E+04</pdfrwt>
<pdfrwt beam="2">  1       -1 0.33552778E-01 0.15724871E+04</pdfrwt>
<totfact> 0.20276432E+01</totfact>
</mgrwt>
</event>
<event>
12    6  0.1395358E-007  0.2092459E+04  0.7818608E-02  0.8564572E-01
         -1   -1    0    0    0  501 -0.00000000000E+00  0.00000000000E+00  0.51888670433E+03  0.51888670433E+03  0.00000000000E+00 0.  1.
          2   -1    0    0  501    0  0.00000000000E+00 -0.00000000000E+00 -0.21095093884E+04  0.21095093884E+04  0.00000000000E+00 0. -1.
         24    2    1    2    0    0  0.36011133027E+03  0.55275109104E+03 -0.13238148264E+04  0.14812443453E+04  0.79907301915E+02 0.  0.
        254    2    1    2    0    0 -0.36011133027E+03 -0.55275109104E+03 -0.26680785763E+03  0.11471517474E+04  0.89975372183E+03 0.  0.
         23    2    4    4    0    0 -0.13675329096E+03 -0.50779891150E+03 -0.55399116234E+03  0.76993907666E+03  0.96637346406E+02 0.  0.
         23    2    4    4    0    0 -0.22335803931E+03 -0.44952179544E+02  0.28718330471E+03  0.37721267078E+03  0.88913645318E+02 0.  0.
          2    1    3    3  502    0  0.55048157788E+02  0.12957426576E+03 -0.33161544356E+03  0.36026183871E+03  0.00000000000E+00 0. -1.
         -1    1    3    3    0  502  0.30506317248E+03  0.42317682528E+03 -0.99219938289E+03  0.11209825066E+04  0.00000000000E+00 0.  1.
         11    1    5    5    0    0 -0.10190019254E+03 -0.34780081692E+03 -0.31470761531E+03  0.47998952137E+03  0.00000000000E+00 0. -1.
        -11    1    5    5    0    0 -0.34853098423E+02 -0.15999809457E+03 -0.23928354702E+03  0.28994955529E+03  0.00000000000E+00 0.  1.
          2    1    6    6  503    0 -0.20583718004E+03 -0.33896538609E+02  0.28898958321E+03  0.35641674935E+03  0.00000000000E+00 0. -1.
         -2    1    6    6    0  503 -0.17520859273E+02 -0.11055640936E+02 -0.18062784968E+01  0.20795921432E+02  0.00000000000E+00 0.  1.
<mgrwt>
<rscale>  0 0.20924592E+04</rscale>
<asrwt>0</asrwt>
<pdfrwt beam="1">  1        2 0.32453991E+00 0.20924592E+04</pdfrwt>
<pdfrwt beam="2">  1       -1 0.79828724E-01 0.20924592E+04</pdfrwt>
<totfact> 0.95469222E+00</totfact>
</mgrwt>
</event>
<event>
12    6  0.1395358E-007  0.1337975E+04  0.7818608E-02  0.8999981E-01
          2   -1    0    0  501    0  0.00000000000E+00  0.00000000000E+00  0.18830442877E+04  0.18830442877E+04  0.00000000000E+00 0. -1.
         -1   -1    0    0    0  501 -0.00000000000E+00 -0.00000000000E+00 -0.23767078165E+03  0.23767078165E+03  0.00000000000E+00 0.  1.
         24    2    1    2    0    0  0.26371632399E+03 -0.23553757550E+03  0.34004405814E+03  0.49653410351E+03  0.76758748402E+02 0.  0.
        254    2    1    2    0    0 -0.26371632399E+03  0.23553757550E+03  0.13053294479E+04  0.16241809658E+04  0.89947462067E+03 0.  0.
         23    2    4    4    0    0 -0.44065204878E+03  0.47531972548E+03  0.89928888143E+03  0.11124055879E+04  0.92858118895E+02 0.  0.
         23    2    4    4    0    0  0.17693572479E+03 -0.23978214998E+03  0.40604056647E+03  0.51177537792E+03  0.90792982521E+02 0.  0.
          2    1    3    3  502    0  0.11397223132E+03 -0.11706789404E+03  0.20747568091E+03  0.26408468243E+03  0.00000000000E+00 0. -1.
         -1    1    3    3    0  502  0.14974409267E+03 -0.11846968147E+03  0.13256837723E+03  0.23244942108E+03  0.00000000000E+00 0.  1.
         11    1    5    5    0    0 -0.51994078932E+02  0.78213916321E+02  0.85473836502E+02  0.12699046294E+03  0.00000000000E+00 0. -1.
        -11    1    5    5    0    0 -0.38865796985E+03  0.39710580916E+03  0.81381504493E+03  0.98541512498E+03  0.00000000000E+00 0.  1.
          1    1    6    6  503    0 -0.10526295648E+02 -0.19039427940E+02  0.32780724387E+02  0.39343088436E+02  0.00000000000E+00 0. -1.
         -1    1    6    6    0  503  0.18746202043E+03 -0.22074272204E+03  0.37325984208E+03  0.47243228949E+03  0.00000000000E+00 0.  1.
<mgrwt>
<rscale>  0 0.13379755E+04</rscale>
<asrwt>0</asrwt>
<pdfrwt beam="1">  1        2 0.28969911E+00 0.13379755E+04</pdfrwt>
<pdfrwt beam="2">  1       -1 0.36564737E-01 0.13379755E+04</pdfrwt>
<totfact> 0.62000197E+01</totfact>
</mgrwt>
</event>
<event>
12    6  0.1395358E-007  0.2382314E+04  0.7818608E-02  0.8446155E-01
         -1   -1    0    0    0  501 -0.00000000000E+00  0.00000000000E+00  0.48477703933E+03  0.48477703933E+03  0.00000000000E+00 0.  1.
          2   -1    0    0  501    0  0.00000000000E+00 -0.00000000000E+00 -0.29268193840E+04  0.29268193840E+04  0.00000000000E+00 0. -1.
         24    2    1    2    0    0 -0.17665918043E+03  0.91725392496E+03 -0.16322658040E+04  0.18823059867E+04  0.78872960298E+02 0.  0.
        254    2    1    2    0    0  0.17665918043E+03 -0.91725392496E+03 -0.80977654061E+03  0.15292904365E+04  0.90023772678E+03 0.  0.
         23    2    4    4    0    0 -0.24624753675E+03 -0.57445709712E+03 -0.73957112662E+03  0.97265720215E+03  0.91966166490E+02 0.  0.
         23    2    4    4    0    0  0.42290671718E+03 -0.34279682784E+03 -0.70205413995E+02  0.55663323440E+03  0.92477028906E+02 0.  0.
          2    1    3    3  502    0 -0.15785453177E+03  0.82016400571E+03 -0.15039120676E+04  0.17202728146E+04  0.00000000000E+00 0. -1.
         -1    1    3    3    0  502 -0.18804648656E+02  0.97089919251E+02 -0.12835373638E+03  0.16203317214E+03  0.00000000000E+00 0.  1.
         11    1    5    5    0    0 -0.19523615599E+02 -0.11467672173E+03 -0.10338182436E+03  0.15562687326E+03  0.00000000000E+00 0.  1.
        -11    1    5    5    0    0 -0.22672392115E+03 -0.45978037539E+03 -0.63618930226E+03  0.81703032889E+03  0.00000000000E+00 0. -1.
          4    1    6    6  503    0  0.32436829764E+03 -0.22415691327E+03 -0.79141716363E+02  0.40214987946E+03  0.00000000000E+00 0. -1.
         -4    1    6    6    0  503  0.98538419535E+02 -0.11863991457E+03  0.89363023688E+01  0.15448335494E+03  0.00000000000E+00 0.  1.
<mgrwt>
<rscale>  0 0.23823139E+04</rscale>
<asrwt>0</asrwt>
<pdfrwt beam="1">  1        2 0.45027991E+00 0.23823139E+04</pdfrwt>
<pdfrwt beam="2">  1       -1 0.74581082E-01 0.23823139E+04</pdfrwt>
<totfact> 0.35849944E+00</totfact>
</mgrwt>
</event>
<event>
12    6  0.1395358E-007  0.2007332E+04  0.7818608E-02  0.8603200E-01
         -1   -1    0    0    0  501 -0.00000000000E+00  0.00000000000E+00  0.88354771458E+03  0.88354771458E+03  0.00000000000E+00 0.  1.
          2   -1    0    0  501    0  0.00000000000E+00 -0.00000000000E+00 -0.11401146850E+04  0.11401146850E+04  0.00000000000E+00 0. -1.
         24    2    1    2    0    0 -0.12612881852E+03  0.53963157730E+03  0.47813781942E+03  0.73644657567E+03  0.81406795652E+02 0.  0.
        254    2    1    2    0    0  0.12612881852E+03 -0.53963157730E+03 -0.73470478986E+03  0.12872158239E+04  0.90001262827E+03 0.  0.
         23    2    4    4    0    0  0.71508331231E+02  0.88546576032E+02 -0.62374332928E+03  0.64045797211E+03  0.90425304307E+02 0.  0.
         23    2    4    4    0    0  0.54620487289E+02 -0.62817815333E+03 -0.11096146059E+03  0.64675785182E+03  0.91608314004E+02 0.  0.
          2    1    3    3  502    0 -0.10244380427E+03  0.27701797020E+03  0.22963755452E+03  0.37412176533E+03  0.00000000000E+00 0. -1.
         -1    1    3    3    0  502 -0.23685014249E+02  0.26261360710E+03  0.24850026490E+03  0.36232481034E+03  0.00000000000E+00 0.  1.
         11    1    5    5    0    0  0.44493311195E+02 -0.67981130637E+01 -0.23582309364E+03  0.24007998787E+03  0.00000000000E+00 0.  1.
        -11    1    5    5    0    0  0.27015020037E+02  0.95344689096E+02 -0.38792023564E+03  0.40037798424E+03  0.00000000000E+00 0. -1.
          3    1    6    6  503    0  0.60239125545E+02 -0.60800220273E+03 -0.12206448127E+03  0.62305310236E+03  0.00000000000E+00 0. -1.
         -3    1    6    6    0  503 -0.56186382559E+01 -0.20175950605E+02  0.11103020684E+02  0.23704749460E+02  0.00000000000E+00 0.  1.
<mgrwt>
<rscale>  0 0.20073323E+04</rscale>
<asrwt>0</asrwt>
<pdfrwt beam="1">  1        2 0.17540226E+00 0.20073323E+04</pdfrwt>
<pdfrwt beam="2">  1       -1 0.13593042E+00 0.20073323E+04</pdfrwt>
<totfact> 0.98651775E+00</totfact>
</mgrwt>
</event>
<event>
12    6  0.1395358E-007  0.2849121E+04  0.7818608E-02  0.8288179E-01
         -1   -1    0    0    0  501 -0.00000000000E+00  0.00000000000E+00  0.12555621132E+04  0.12555621132E+04  0.00000000000E+00 0.  1.
          2   -1    0    0  501    0  0.00000000000E+00 -0.00000000000E+00 -0.16163056107E+04  0.16163056107E+04  0.00000000000E+00 0. -1.
         24    2    1    2    0    0 -0.12321944470E+04 -0.32620698548E+03 -0.35107219692E+02  0.12776349660E+04  0.80027725380E+02 0.  0.
        254    2    1    2    0    0  0.12321944470E+04  0.32620698548E+03 -0.32563627782E+03  0.15942327579E+04  0.90045818802E+03 0.  0.
         23    2    4    4    0    0  0.68021683964E+03  0.17062184259E+03 -0.62217875180E+03  0.94197502169E+03  0.91672134216E+02 0.  0.
         23    2    4    4    0    0  0.55197760739E+03  0.15558514289E+03  0.29654247398E+03  0.65225773625E+03  0.92826180962E+02 0.  0.
          2    1    3    3  502    0 -0.30853018251E+03 -0.11038684939E+03 -0.30286400789E+02  0.32907961971E+03  0.00000000000E+00 0. -1.
         -1    1    3    3    0  502 -0.92366426452E+03 -0.21582013609E+03 -0.48208189024E+01  0.94855534630E+03  0.00000000000E+00 0.  1.
         11    1    5    5    0    0  0.54859100424E+03  0.13496539093E+03 -0.44957812836E+03  0.72200293641E+03  0.00000000000E+00 0. -1.
        -11    1    5    5    0    0  0.13162583540E+03  0.35656451657E+02 -0.17260062344E+03  0.21997208528E+03  0.00000000000E+00 0.  1.
          3    1    6    6  503    0  0.13333057418E+03  0.71646190501E+02  0.10542423464E+03  0.18445727927E+03  0.00000000000E+00 0. -1.
         -3    1    6    6    0  503  0.41864703321E+03  0.83938952387E+02  0.19111823934E+03  0.46780045698E+03  0.00000000000E+00 0.  1.
<mgrwt>
<rscale>  0 0.28491206E+04</rscale>
<asrwt>0</asrwt>
<pdfrwt beam="1">  1        2 0.24866240E+00 0.28491206E+04</pdfrwt>
<pdfrwt beam="2">  1       -1 0.19316340E+00 0.28491206E+04</pdfrwt>
<totfact> 0.18091663E+00</totfact>
</mgrwt>
</event>
<event>
12    6  0.1395358E-007  0.4838450E+04  0.7818608E-02  0.7853923E-01
          2   -1    0    0  501    0  0.00000000000E+00  0.00000000000E+00  0.21505285146E+04  0.21505285146E+04  0.00000000000E+00 0. -1.
         -1   -1    0    0    0  501 -0.00000000000E+00 -0.00000000000E+00 -0.27214930879E+04  0.27214930879E+04  0.00000000000E+00 0.  1.
         24    2    1    2    0    0  0.58095240716E+03  0.15402781439E+04 -0.19415806181E+04  0.25466810713E+04  0.76724980310E+02 0.  0.
        254    2    1    2    0    0 -0.58095240716E+03 -0.15402781439E+04  0.13706160448E+04  0.23253405311E+04  0.90479709511E+03 0.  0.
         23    2    4    4    0    0 -0.77475431808E+03 -0.12346767357E+04  0.86727901676E+03  0.16986778874E+04  0.93074041293E+02 0.  0.
         23    2    4    4    0    0  0.19380191092E+03 -0.30560140815E+03  0.50333702805E+03  0.62666264367E+03  0.91686988289E+02 0.  0.
          2    1    3    3  502    0  0.20339154768E+03  0.54398985436E+03 -0.62899394339E+03  0.85611124518E+03  0.00000000000E+00 0. -1.
         -1    1    3    3    0  502  0.37756085948E+03  0.99628828951E+03 -0.13125866747E+04  0.16905698262E+04  0.00000000000E+00 0.  1.
         11    1    5    5    0    0 -0.63484392719E+03 -0.94187606959E+03  0.66189375300E+03  0.13146332883E+04  0.00000000000E+00 0. -1.
        -11    1    5    5    0    0 -0.13991039089E+03 -0.29280066612E+03  0.20538526376E+03  0.38404459914E+03  0.00000000000E+00 0.  1.
          3    1    6    6  503    0  0.17327029212E+03 -0.25906568252E+03  0.36894848577E+03  0.48297060691E+03  0.00000000000E+00 0. -1.
         -3    1    6    6    0  503  0.20531618806E+02 -0.46535725633E+02  0.13438854228E+03  0.14369203676E+03  0.00000000000E+00 0.  1.
<mgrwt>
<rscale>  0 0.48384495E+04</rscale>
<asrwt>0</asrwt>
<pdfrwt beam="1">  1        2 0.33085055E+00 0.48384495E+04</pdfrwt>
<pdfrwt beam="2">  1       -1 0.41869124E+00 0.48384495E+04</pdfrwt>
<totfact> 0.24617322E-02</totfact>
</mgrwt>
</event>
<event>
12    6  0.1395358E-007  0.1910178E+04  0.7818608E-02  0.8649807E-01
          2   -1    0    0  501    0  0.00000000000E+00  0.00000000000E+00  0.71761241132E+03  0.71761241132E+03  0.00000000000E+00 0. -1.
         -1   -1    0    0    0  501 -0.00000000000E+00 -0.00000000000E+00 -0.12711525397E+04  0.12711525397E+04  0.00000000000E+00 0.  1.
         24    2    1    2    0    0 -0.55291261110E+03  0.42372190227E+03  0.44108622267E+02  0.70225266474E+03  0.77205107375E+02 0.  0.
        254    2    1    2    0    0  0.55291261110E+03 -0.42372190227E+03 -0.59764875061E+03  0.12865122862E+04  0.90148612168E+03 0.  0.
         23    2    4    4    0    0  0.33579047008E+03 -0.68174964722E+03 -0.27973986009E+03  0.81512006603E+03  0.92889781102E+02 0.  0.
         23    2    4    4    0    0  0.21712214102E+03  0.25802774496E+03 -0.31790889052E+03  0.47139222022E+03  0.86163921212E+02 0.  0.
          2    1    3    3  502    0 -0.43557531788E+03  0.35510161304E+03  0.60980947533E+02  0.56528018636E+03  0.00000000000E+00 0. -1.
         -1    1    3    3    0  502 -0.11733729322E+03  0.68620289222E+02 -0.16872325267E+02  0.13697247838E+03  0.00000000000E+00 0.  1.
         11    1    5    5    0    0  0.11885151107E+03 -0.24714972450E+03 -0.14896077274E+03  0.31208649413E+03  0.00000000000E+00 0. -1.
        -11    1    5    5    0    0  0.21693895902E+03 -0.43459992272E+03 -0.13077908735E+03  0.50303357190E+03  0.00000000000E+00 0.  1.
          3    1    6    6  503    0  0.12447626253E+02  0.28957409392E+02 -0.33132058718E+01  0.31693095323E+02  0.00000000000E+00 0. -1.
         -3    1    6    6    0  503  0.20467451476E+03  0.22907033557E+03 -0.31459568465E+03  0.43969912489E+03  0.00000000000E+00 0.  1.
<mgrwt>
<rscale>  0 0.19101778E+04</rscale>
<asrwt>0</asrwt>
<pdfrwt beam="1">  1        2 0.11040191E+00 0.19101778E+04</pdfrwt>
<pdfrwt beam="2">  1       -1 0.19556193E+00 0.19101778E+04</pdfrwt>
<totfact> 0.68505733E+00</totfact>
</mgrwt>
</event>
<event>
12    6  0.1395358E-007  0.3319811E+04  0.7818608E-02  0.8157873E-01
         -1   -1    0    0    0  501 -0.00000000000E+00  0.00000000000E+00  0.69900247202E+03  0.69900247202E+03  0.00000000000E+00 0.  1.
          2   -1    0    0  501    0  0.00000000000E+00 -0.00000000000E+00 -0.39417415550E+04  0.39417415550E+04  0.00000000000E+00 0. -1.
         24    2    1    2    0    0 -0.27364296929E+03  0.15114513729E+04 -0.15696830680E+04  0.21975629303E+04  0.77538193230E+02 0.  0.
        254    2    1    2    0    0  0.27364296929E+03 -0.15114513729E+04 -0.16730560150E+04  0.24431810967E+04  0.90036199111E+03 0.  0.
         23    2    4    4    0    0 -0.20784641413E+03 -0.42242403672E+03 -0.13900512564E+03  0.49914121970E+03  0.90428610455E+02 0.  0.
         23    2    4    4    0    0  0.48148938342E+03 -0.10890273361E+04 -0.15340508893E+04  0.19440398770E+04  0.90367843968E+02 0.  0.
          4    1    3    3  502    0 -0.21912142397E+03  0.12716290628E+04 -0.13547838890E+04  0.18709607312E+04  0.00000000000E+00 0. -1.
         -1    1    3    3    0  502 -0.54521545323E+02  0.23982231005E+03 -0.21489917896E+03  0.32660219904E+03  0.00000000000E+00 0.  1.
         11    1    5    5    0    0 -0.54247015713E+02 -0.17585866881E+03 -0.88803239613E+02  0.20434046461E+03  0.00000000000E+00 0.  1.
        -11    1    5    5    0    0 -0.15359939842E+03 -0.24656536791E+03 -0.50201886028E+02  0.29480075510E+03  0.00000000000E+00 0. -1.
          2    1    6    6  503    0  0.15979441083E+02 -0.35933484632E+02 -0.27968309041E+02  0.48257477822E+02  0.00000000000E+00 0.  1.
         -2    1    6    6    0  503  0.46550994233E+03 -0.10530938515E+04 -0.15060825803E+04  0.18957823992E+04  0.00000000000E+00 0. -1.
<mgrwt>
<rscale>  0 0.33198115E+04</rscale>
<asrwt>0</asrwt>
<pdfrwt beam="1">  1        2 0.60642177E+00 0.33198115E+04</pdfrwt>
<pdfrwt beam="2">  1       -1 0.10753884E+00 0.33198115E+04</pdfrwt>
<totfact> 0.28977774E-01</totfact>
</mgrwt>
</event>
<event>
12    6  0.1395358E-007  0.1697379E+04  0.7818608E-02  0.8762861E-01
         -1   -1    0    0    0  501 -0.00000000000E+00  0.00000000000E+00  0.27534561418E+03  0.27534561418E+03  0.00000000000E+00 0.  1.
          2   -1    0    0  501    0  0.00000000000E+00 -0.00000000000E+00 -0.26158887644E+04  0.26158887644E+04  0.00000000000E+00 0. -1.
         24    2    1    2    0    0  0.56329065478E+03 -0.89231428840E+02 -0.48827163397E+03  0.75496075720E+03  0.79359603802E+02 0.  0.
        254    2    1    2    0    0 -0.56329065478E+03  0.89231428840E+02 -0.18522715163E+04  0.21362736214E+04  0.89860814923E+03 0.  0.
         23    2    4    4    0    0 -0.66910169440E+03  0.22620952160E+03 -0.17959223113E+04  0.19320480273E+04  0.92762095765E+02 0.  0.
         23    2    4    4    0    0  0.10581103962E+03 -0.13697809276E+03 -0.56349204979E+02  0.20422559412E+03  0.92595282768E+02 0.  0.
          2    1    3    3  502    0  0.27720728863E+03 -0.97613446498E+01 -0.26321634207E+03  0.38238986317E+03  0.00000000000E+00 0. -1.
         -3    1    3    3    0  502  0.28608336614E+03 -0.79470084190E+02 -0.22505529190E+03  0.37257089403E+03  0.00000000000E+00 0.  1.
         11    1    5    5    0    0 -0.15861839984E+03  0.85551524210E+02 -0.38682428514E+03  0.42674569434E+03  0.00000000000E+00 0.  1.
        -11    1    5    5    0    0 -0.51048329456E+03  0.14065799739E+03 -0.14090980262E+04  0.15053023330E+04  0.00000000000E+00 0. -1.
          1    1    6    6  503    0  0.10090570478E+03 -0.11210016809E+03 -0.97087917249E+01  0.15113791575E+03  0.00000000000E+00 0. -1.
         -1    1    6    6    0  503  0.49053348425E+01 -0.24877924675E+02 -0.46640413254E+02  0.53087678368E+02  0.00000000000E+00 0.  1.
<mgrwt>
<rscale>  0 0.16973786E+04</rscale>
<asrwt>0</asrwt>
<pdfrwt beam="1">  1        2 0.40244444E+00 0.16973786E+04</pdfrwt>
<pdfrwt beam="2">  1       -1 0.42360862E-01 0.16973786E+04</pdfrwt>
<totfact> 0.17729035E+01</totfact>
</mgrwt>
</event>
<event>
12    6  0.1395358E-007  0.1989573E+04  0.7818608E-02  0.8611511E-01
          2   -1    0    0  501    0  0.00000000000E+00  0.00000000000E+00  0.10105293547E+04  0.10105293547E+04  0.00000000000E+00 0. -1.
         -1   -1    0    0    0  501 -0.00000000000E+00 -0.00000000000E+00 -0.97928867203E+03  0.97928867203E+03  0.00000000000E+00 0.  1.
         24    2    1    2    0    0 -0.11051296039E+03  0.24331252215E+02 -0.76371728091E+03  0.77617016878E+03  0.79818052468E+02 0.  0.
        254    2    1    2    0    0  0.11051296039E+03 -0.24331252215E+02  0.79495796357E+03  0.12136478579E+04  0.91004276546E+03 0.  0.
         23    2    4    4    0    0 -0.38446237936E+03 -0.99981878330E+02  0.33368313433E+03  0.52667377161E+03  0.90736599163E+02 0.  0.
         23    2    4    4    0    0  0.49497533976E+03  0.75650626115E+02  0.46127482925E+03  0.68697408632E+03  0.91844014418E+02 0.  0.
          2    1    3    3  502    0 -0.15491611278E+02  0.17292701488E+02 -0.40334121690E+02  0.46538896820E+02  0.00000000000E+00 0. -1.
         -1    1    3    3    0  502 -0.95021349117E+02  0.70385507275E+01 -0.72338315922E+03  0.72963127196E+03  0.00000000000E+00 0.  1.
         11    1    5    5    0    0 -0.14919278568E+03 -0.11862809500E+02  0.80258394387E+02  0.16982527320E+03  0.00000000000E+00 0.  1.
        -11    1    5    5    0    0 -0.23526959368E+03 -0.88119068830E+02  0.25342473994E+03  0.35684849841E+03  0.00000000000E+00 0. -1.
          3    1    6    6  503    0  0.34530301914E+03  0.35673940177E+02  0.26389842671E+03  0.43606098731E+03  0.00000000000E+00 0. -1.
         -3    1    6    6    0  503  0.14967232062E+03  0.39976685938E+02  0.19737640253E+03  0.25091309901E+03  0.00000000000E+00 0.  1.
<mgrwt>
<rscale>  0 0.19895728E+04</rscale>
<asrwt>0</asrwt>
<pdfrwt beam="1">  1        2 0.15546605E+00 0.19895728E+04</pdfrwt>
<pdfrwt beam="2">  1       -1 0.15065980E+00 0.19895728E+04</pdfrwt>
<totfact> 0.90696540E+00</totfact>
</mgrwt>
</event>
<event>
12    6  0.1395358E-007  0.3128144E+04  0.7818608E-02  0.8208056E-01
          2   -1    0    0  501    0  0.00000000000E+00  0.00000000000E+00  0.30073509368E+04  0.30073509368E+04  0.00000000000E+00 0. -1.
         -1   -1    0    0    0  501 -0.00000000000E+00 -0.00000000000E+00 -0.81344732300E+03  0.81344732300E+03  0.00000000000E+00 0.  1.
         24    2    1    2    0    0 -0.12446110204E+04  0.56400983692E+03  0.15412666057E+04  0.20613305454E+04  0.80107298997E+02 0.  0.
        254    2    1    2    0    0  0.12446110204E+04 -0.56400983692E+03  0.65263700807E+03  0.17594677144E+04  0.89589501917E+03 0.  0.
         23    2    4    4    0    0  0.57144312950E+03  0.17443342272E+03  0.95542767650E+02  0.61188847583E+03  0.91130769727E+02 0.  0.
         23    2    4    4    0    0  0.67316789088E+03 -0.73844325964E+03  0.55709424042E+03  0.11475792385E+04  0.90170166744E+02 0.  0.
          2    1    3    3  502    0 -0.65744439945E+03  0.33181782601E+03  0.79156452843E+03  0.10811616950E+04  0.00000000000E+00 0. -1.
         -1    1    3    3    0  502 -0.58716662094E+03  0.23219201091E+03  0.74970207729E+03  0.98016885044E+03  0.00000000000E+00 0.  1.
         11    1    5    5    0    0  0.50166140613E+03  0.12492056187E+03  0.98471080690E+02  0.52627546676E+03  0.00000000000E+00 0. -1.
        -11    1    5    5    0    0  0.69781723375E+02  0.49512860843E+02 -0.29283130402E+01  0.85613009078E+02  0.00000000000E+00 0.  1.
          3    1    6    6  503    0  0.41036814882E+03 -0.46382800453E+03  0.39366296734E+03  0.73383170223E+03  0.00000000000E+00 0. -1.
         -3    1    6    6    0  503  0.26279974207E+03 -0.27461525511E+03  0.16343127308E+03  0.41374753630E+03  0.00000000000E+00 0.  1.
<mgrwt>
<rscale>  0 0.31281442E+04</rscale>
<asrwt>0</asrwt>
<pdfrwt beam="1">  1        2 0.46266937E+00 0.31281442E+04</pdfrwt>
<pdfrwt beam="2">  1       -1 0.12514574E+00 0.31281442E+04</pdfrwt>
<totfact> 0.92435622E-01</totfact>
</mgrwt>
</event>
<event>
12    6  0.1395358E-007  0.1273184E+04  0.7818608E-02  0.9051105E-01
          2   -1    0    0  501    0  0.00000000000E+00  0.00000000000E+00  0.24881712039E+04  0.24881712039E+04  0.00000000000E+00 0. -1.
         -1   -1    0    0    0  501 -0.00000000000E+00 -0.00000000000E+00 -0.16287035956E+03  0.16287035956E+03  0.00000000000E+00 0.  1.
         24    2    1    2    0    0  0.18119590588E+03 -0.17421413869E+03  0.20788685122E+03  0.33683577398E+03  0.84017101214E+02 0.  0.
        254    2    1    2    0    0 -0.18119590588E+03  0.17421413869E+03  0.21174139931E+04  0.23142057895E+04  0.89940196542E+03 0.  0.
         23    2    4    4    0    0 -0.31951142957E+03  0.48114147133E+03  0.13065631504E+04  0.14314554809E+04  0.91503326203E+02 0.  0.
         23    2    4    4    0    0  0.13831552368E+03 -0.30692733264E+03  0.81085084276E+03  0.88275030864E+03  0.91833798714E+02 0.  0.
          4    1    3    3  502    0  0.88513927279E+02 -0.71259403343E+02  0.14627166818E+03  0.18522423923E+03  0.00000000000E+00 0. -1.
         -3    1    3    3    0  502  0.92681978606E+02 -0.10295473535E+03  0.61615183041E+02  0.15161153475E+03  0.00000000000E+00 0.  1.
         11    1    5    5    0    0 -0.11949832562E+02  0.71623048825E+02  0.16003466206E+03  0.17573773836E+03  0.00000000000E+00 0.  1.
        -11    1    5    5    0    0 -0.30756159701E+03  0.40951842250E+03  0.11465284883E+04  0.12557177425E+04  0.00000000000E+00 0. -1.
          1    1    6    6  503    0  0.14516298401E+03 -0.30602552220E+03  0.76837539422E+03  0.83971701103E+03  0.00000000000E+00 0. -1.
         -1    1    6    6    0  503 -0.68474603238E+01 -0.90181044127E+00  0.42475448532E+02  0.43033297607E+02  0.00000000000E+00 0.  1.
<mgrwt>
<rscale>  0 0.12731839E+04</rscale>
<asrwt>0</asrwt>
<pdfrwt beam="1">  1        2 0.38279554E+00 0.12731839E+04</pdfrwt>
<pdfrwt beam="2">  1       -1 0.25056980E-01 0.12731839E+04</pdfrwt>
<totfact> 0.55464506E+01</totfact>
</mgrwt>
</event>
<event>
12    6  0.1395358E-007  0.3623252E+04  0.7818608E-02  0.8085186E-01
          2   -1    0    0  501    0  0.00000000000E+00  0.00000000000E+00  0.25576840480E+04  0.25576840480E+04  0.00000000000E+00 0. -1.
         -1   -1    0    0    0  501 -0.00000000000E+00 -0.00000000000E+00 -0.12831877082E+04  0.12831877082E+04  0.00000000000E+00 0.  1.
         24    2    1    2    0    0  0.20021522970E+03 -0.16578134392E+04  0.26735650167E+03  0.16929898887E+04  0.79396014667E+02 0.  0.
        254    2    1    2    0    0 -0.20021522970E+03  0.16578134392E+04  0.10071398381E+04  0.21478818675E+04  0.90035233427E+03 0.  0.
         23    2    4    4    0    0 -0.96357744062E+02  0.77882916744E+03  0.97859840832E+03  0.12577053241E+04  0.91149056709E+02 0.  0.
         23    2    4    4    0    0 -0.10385748564E+03  0.87898427171E+03  0.28541429780E+02  0.89017654339E+03  0.90553508721E+02 0.  0.
          4    1    3    3  502    0  0.20305120295E+03 -0.14813803956E+04  0.23476881131E+03  0.15135501518E+04  0.00000000000E+00 0. -1.
         -3    1    3    3    0  502 -0.28359732427E+01 -0.17643304358E+03  0.32587690363E+02  0.17943973689E+03  0.00000000000E+00 0.  1.
         11    1    5    5    0    0  0.55994511040E+01  0.10981113131E+02  0.33772899616E+02  0.35952015893E+02  0.00000000000E+00 0.  1.
        -11    1    5    5    0    0 -0.10195719517E+03  0.76784805431E+03  0.94482550870E+03  0.12217533082E+04  0.00000000000E+00 0. -1.
          1    1    6    6  503    0 -0.10045602636E+03  0.87810487257E+03  0.23643062066E+02  0.88414850271E+03  0.00000000000E+00 0. -1.
         -1    1    6    6    0  503 -0.34014592804E+01  0.87939913871E+00  0.48983677141E+01  0.60280406720E+01  0.00000000000E+00 0.  1.
<mgrwt>
<rscale>  0 0.36232520E+04</rscale>
<asrwt>0</asrwt>
<pdfrwt beam="1">  1        2 0.39348985E+00 0.36232520E+04</pdfrwt>
<pdfrwt beam="2">  1       -1 0.19741349E+00 0.36232520E+04</pdfrwt>
<totfact> 0.46706414E-01</totfact>
</mgrwt>
</event>
<event>
12    6  0.1395358E-007  0.2293206E+04  0.7818608E-02  0.8480605E-01
          2   -1    0    0  501    0  0.00000000000E+00  0.00000000000E+00  0.18227085390E+04  0.18227085390E+04  0.00000000000E+00 0. -1.
         -1   -1    0    0    0  501 -0.00000000000E+00 -0.00000000000E+00 -0.72128836683E+03  0.72128836683E+03  0.00000000000E+00 0.  1.
         24    2    1    2    0    0 -0.72916461403E+03 -0.14977891304E+03  0.11532300640E+04  0.13749356795E+04  0.79961147830E+02 0.  0.
        254    2    1    2    0    0  0.72916461403E+03  0.14977891304E+03 -0.51809891809E+02  0.11690612263E+04  0.89994729226E+03 0.  0.
         23    2    4    4    0    0 -0.38874235201E+02  0.16813403579E+02  0.29446016626E+03  0.31112682869E+03  0.91100040128E+02 0.  0.
         23    2    4    4    0    0  0.76803884923E+03  0.13296550946E+03 -0.34627005807E+03  0.85793439763E+03  0.92655150355E+02 0.  0.
          4    1    3    3  502    0 -0.38324853614E+03 -0.42189858915E+02  0.62719844526E+03  0.73623183468E+03  0.00000000000E+00 0. -1.
         -3    1    3    3    0  502 -0.34591607789E+03 -0.10758905412E+03  0.52603161874E+03  0.63870384485E+03  0.00000000000E+00 0.  1.
         11    1    5    5    0    0 -0.29152857916E-01 -0.38499752880E+01  0.24459508785E+03  0.24462538740E+03  0.00000000000E+00 0. -1.
        -11    1    5    5    0    0 -0.38845082343E+02  0.20663378867E+02  0.49865078415E+02  0.66501441291E+02  0.00000000000E+00 0.  1.
          3    1    6    6  503    0  0.47179948664E+03  0.11942026812E+03 -0.24254741521E+03  0.54376944072E+03  0.00000000000E+00 0. -1.
         -3    1    6    6    0  503  0.29623936259E+03  0.13545241341E+02 -0.10372264286E+03  0.31416495692E+03  0.00000000000E+00 0.  1.
<mgrwt>
<rscale>  0 0.22932060E+04</rscale>
<asrwt>0</asrwt>
<pdfrwt beam="1">  1        2 0.28041670E+00 0.22932060E+04</pdfrwt>
<pdfrwt beam="2">  1       -1 0.11096744E+00 0.22932060E+04</pdfrwt>
<totfact> 0.64699801E+00</totfact>
</mgrwt>
</event>
<event>
12    6  0.1395358E-007  0.1741995E+04  0.7818608E-02  0.8737769E-01
         -1   -1    0    0    0  501 -0.00000000000E+00  0.00000000000E+00  0.38965364766E+03  0.38965364766E+03  0.00000000000E+00 0.  1.
          2   -1    0    0  501    0  0.00000000000E+00 -0.00000000000E+00 -0.19469519469E+04  0.19469519469E+04  0.00000000000E+00 0. -1.
         24    2    1    2    0    0  0.49901703290E+03  0.37737626281E+03 -0.72281188882E+03  0.95924162125E+03  0.79098789290E+02 0.  0.
        254    2    1    2    0    0 -0.49901703290E+03 -0.37737626281E+03 -0.83448641041E+03  0.13773639733E+04  0.89962942533E+03 0.  0.
         23    2    4    4    0    0 -0.68280805328E+03 -0.17510102086E+03 -0.82421963258E+03  0.10883260741E+04  0.90710725082E+02 0.  0.
         23    2    4    4    0    0  0.18379102039E+03 -0.20227524195E+03 -0.10266777823E+02  0.28903789922E+03  0.93504479982E+02 0.  0.
          2    1    3    3  502    0  0.36163830904E+03  0.22719769797E+03 -0.49134771557E+03  0.65101738696E+03  0.00000000000E+00 0. -1.
         -1    1    3    3    0  502  0.13737872386E+03  0.15017856484E+03 -0.23146417325E+03  0.30822423429E+03  0.00000000000E+00 0.  1.
         11    1    5    5    0    0 -0.38736871714E+03 -0.14536132909E+03 -0.47428451450E+03  0.62938878263E+03  0.00000000000E+00 0.  1.
        -11    1    5    5    0    0 -0.29543933615E+03 -0.29739691772E+02 -0.34993511808E+03  0.45893729144E+03  0.00000000000E+00 0. -1.
          1    1    6    6  503    0  0.10172487530E+03 -0.63457040813E+02 -0.37220160624E+02  0.12553918369E+03  0.00000000000E+00 0. -1.
         -1    1    6    6    0  503  0.82066145086E+02 -0.13881820114E+03  0.26953382801E+02  0.16349871553E+03  0.00000000000E+00 0.  1.
<mgrwt>
<rscale>  0 0.17419953E+04</rscale>
<asrwt>0</asrwt>
<pdfrwt beam="1">  1        2 0.29953107E+00 0.17419953E+04</pdfrwt>
<pdfrwt beam="2">  1       -1 0.59946715E-01 0.17419953E+04</pdfrwt>
<totfact> 0.21794418E+01</totfact>
</mgrwt>
</event>
<event>
12    6  0.1395358E-007  0.1648340E+04  0.7818608E-02  0.8791389E-01
          2   -1    0    0  501    0  0.00000000000E+00  0.00000000000E+00  0.25115277618E+04  0.25115277618E+04  0.00000000000E+00 0. -1.
         -3   -1    0    0    0  501 -0.00000000000E+00 -0.00000000000E+00 -0.27045550967E+03  0.27045550967E+03  0.00000000000E+00 0.  1.
         24    2    1    2    0    0  0.29947024836E+03  0.36452175877E+03  0.13428062367E+04  0.14254893298E+04  0.79578248657E+02 0.  0.
        254    2    1    2    0    0 -0.29947024836E+03 -0.36452175877E+03  0.89826601537E+03  0.13564939417E+04  0.90035295140E+03 0.  0.
         23    2    4    4    0    0 -0.76579321425E+02  0.21980065513E+03  0.61448942502E+03  0.66338585210E+03  0.91141729356E+02 0.  0.
         23    2    4    4    0    0 -0.22289092694E+03 -0.58432241390E+03  0.28377659034E+03  0.69310808955E+03  0.93576823445E+02 0.  0.
          4    1    3    3  502    0  0.10016632685E+03  0.15335447226E+03  0.62154738076E+03  0.64797533419E+03  0.00000000000E+00 0. -1.
         -3    1    3    3    0  502  0.19930392151E+03  0.21116728651E+03  0.72125885599E+03  0.77751399561E+03  0.00000000000E+00 0.  1.
         11    1    5    5    0    0 -0.80388849203E+02  0.21211973289E+03  0.50555579520E+03  0.55411534017E+03  0.00000000000E+00 0. -1.
        -11    1    5    5    0    0  0.38095277778E+01  0.76809222333E+01  0.10893362983E+03  0.10927051192E+03  0.00000000000E+00 0.  1.
          1    1    6    6  503    0 -0.20402171443E+03 -0.53443000843E+03  0.28632711578E+03  0.63970580043E+03  0.00000000000E+00 0. -1.
         -1    1    6    6    0  503 -0.18869212509E+02 -0.49892405469E+02 -0.25505254387E+01  0.53402289129E+02  0.00000000000E+00 0.  1.
<mgrwt>
<rscale>  0 0.16483404E+04</rscale>
<asrwt>0</asrwt>
<pdfrwt beam="1">  1        2 0.38638887E+00 0.16483404E+04</pdfrwt>
<pdfrwt beam="2">  1       -3 0.41608542E-01 0.16483404E+04</pdfrwt>
<totfact> 0.12176886E+01</totfact>
</mgrwt>
</event>
<event>
12    6  0.1395358E-007  0.3297493E+04  0.7818608E-02  0.8163534E-01
          2   -1    0    0  501    0  0.00000000000E+00  0.00000000000E+00  0.21067569204E+04  0.21067569204E+04  0.00000000000E+00 0. -1.
         -1   -1    0    0    0  501 -0.00000000000E+00 -0.00000000000E+00 -0.12903076625E+04  0.12903076625E+04  0.00000000000E+00 0.  1.
         24    2    1    2    0    0 -0.14722677971E+04 -0.28979535285E+03  0.65688709980E+03  0.16399941824E+04  0.80786408100E+02 0.  0.
        254    2    1    2    0    0  0.14722677971E+04  0.28979535285E+03  0.15956215809E+03  0.17570704004E+04  0.90015692906E+03 0.  0.
         23    2    4    4    0    0 -0.44164357191E+02 -0.13206519109E+03 -0.19824867640E+02  0.17022802112E+03  0.95879344245E+02 0.  0.
         23    2    4    4    0    0  0.15164321543E+04  0.42186054394E+03  0.17938702573E+03  0.15868423793E+04  0.91412443110E+02 0.  0.
          4    1    3    3  502    0 -0.65837930636E+03 -0.89129877212E+02  0.29675985657E+03  0.72764954376E+03  0.00000000000E+00 0. -1.
         -3    1    3    3    0  502 -0.81388849070E+03 -0.20066547564E+03  0.36012724323E+03  0.91234463868E+03  0.00000000000E+00 0.  1.
         11    1    5    5    0    0  0.28745552315E+02 -0.37081721801E+02  0.72217937892E+01  0.47471203641E+02  0.00000000000E+00 0. -1.
        -11    1    5    5    0    0 -0.72909909506E+02 -0.94983469292E+02 -0.27046661429E+02  0.12275681748E+03  0.00000000000E+00 0.  1.
          2    1    6    6  503    0  0.10223920948E+03  0.30825173424E+02 -0.10705434220E+02  0.10732033169E+03  0.00000000000E+00 0. -1.
         -2    1    6    6    0  503  0.14141929448E+04  0.39103537052E+03  0.19009245995E+03  0.14795220476E+04  0.00000000000E+00 0.  1.
<mgrwt>
<rscale>  0 0.32974927E+04</rscale>
<asrwt>0</asrwt>
<pdfrwt beam="1">  1        2 0.32411645E+00 0.32974927E+04</pdfrwt>
<pdfrwt beam="2">  1       -1 0.19850887E+00 0.32974927E+04</pdfrwt>
<totfact> 0.85285821E-01</totfact>
</mgrwt>
</event>
<event>
12    6  0.1395358E-007  0.3654989E+04  0.7818608E-02  0.8078011E-01
         -1   -1    0    0    0  501 -0.00000000000E+00  0.00000000000E+00  0.72113247453E+03  0.72113247453E+03  0.00000000000E+00 0.  1.
          2   -1    0    0  501    0  0.00000000000E+00 -0.00000000000E+00 -0.46312380838E+04  0.46312380838E+04  0.00000000000E+00 0. -1.
         24    2    1    2    0    0  0.16020804203E+04 -0.61093225075E+03 -0.17738357980E+04  0.24686105165E+04  0.87433150226E+02 0.  0.
        254    2    1    2    0    0 -0.16020804203E+04  0.61093225075E+03 -0.21362698112E+04  0.28837600418E+04  0.90140079015E+03 0.  0.
         23    2    4    4    0    0 -0.15432161698E+03 -0.13278180209E+02  0.52071818892E+02  0.18499582390E+03  0.86720868307E+02 0.  0.
         23    2    4    4    0    0 -0.14477588033E+04  0.62421043095E+03 -0.21883416301E+04  0.26987642179E+04  0.94047856133E+02 0.  0.
          2    1    3    3  502    0  0.21593490707E+03 -0.11263804134E+03 -0.26814962574E+03  0.36224223143E+03  0.00000000000E+00 0. -1.
         -1    1    3    3    0  502  0.13861455132E+04 -0.49829420941E+03 -0.15056861723E+04  0.21063682851E+04  0.00000000000E+00 0.  1.
         11    1    5    5    0    0 -0.12849169616E+03  0.22757713304E+02  0.24460996028E+02  0.13276433943E+03  0.00000000000E+00 0. -1.
        -11    1    5    5    0    0 -0.25829920823E+02 -0.36035893513E+02  0.27610822864E+02  0.52231484473E+02  0.00000000000E+00 0.  1.
          3    1    6    6  503    0 -0.38999578741E+03  0.20250414704E+03 -0.65786838136E+03  0.79113554525E+03  0.00000000000E+00 0. -1.
         -3    1    6    6    0  503 -0.10577630159E+04  0.42170628391E+03 -0.15304732488E+04  0.19076286727E+04  0.00000000000E+00 0.  1.
<mgrwt>
<rscale>  0 0.36549890E+04</rscale>
<asrwt>0</asrwt>
<pdfrwt beam="1">  1        2 0.71249819E+00 0.36549890E+04</pdfrwt>
<pdfrwt beam="2">  1       -1 0.11094345E+00 0.36549890E+04</pdfrwt>
<totfact> 0.62060973E-02</totfact>
</mgrwt>
</event>
<event>
12    6  0.1395358E-007  0.2688417E+04  0.7818608E-02  0.8338773E-01
          2   -1    0    0  501    0  0.00000000000E+00  0.00000000000E+00  0.12016397697E+04  0.12016397697E+04  0.00000000000E+00 0. -1.
         -1   -1    0    0    0  501 -0.00000000000E+00 -0.00000000000E+00 -0.15036924711E+04  0.15036924711E+04  0.00000000000E+00 0.  1.
         24    2    1    2    0    0 -0.19322357824E+03 -0.10610035806E+04 -0.64484310074E+03  0.12590221048E+04  0.79057488158E+02 0.  0.
        254    2    1    2    0    0  0.19322357824E+03  0.10610035806E+04  0.34279039932E+03  0.14463101361E+04  0.90069073639E+03 0.  0.
         23    2    4    4    0    0  0.33284999609E+03  0.21344357176E+03  0.41382168494E+03  0.57975200496E+03  0.92286088359E+02 0.  0.
         23    2    4    4    0    0 -0.13962641785E+03  0.84756000886E+03 -0.71031285624E+02  0.86655813113E+03  0.89577038918E+02 0.  0.
          2    1    3    3  502    0 -0.11055411877E+03 -0.39320270054E+03 -0.24280144387E+03  0.47516641089E+03  0.00000000000E+00 0. -1.
         -1    1    3    3    0  502 -0.82669459469E+02 -0.66780088008E+03 -0.40204165687E+03  0.78385569388E+03  0.00000000000E+00 0.  1.
         11    1    5    5    0    0  0.62736465277E+01 -0.61090775113E+01  0.25231695172E+02  0.26708012095E+02  0.00000000000E+00 0. -1.
        -11    1    5    5    0    0  0.32657634957E+03  0.21955264927E+03  0.38858998977E+03  0.55304399287E+03  0.00000000000E+00 0.  1.
          3    1    6    6  503    0 -0.34902147422E+02  0.47063223595E+03 -0.23982341179E+02  0.47253361161E+03  0.00000000000E+00 0. -1.
         -3    1    6    6    0  503 -0.10472427043E+03  0.37692777291E+03 -0.47048944445E+02  0.39402451952E+03  0.00000000000E+00 0.  1.
<mgrwt>
<rscale>  0 0.26884171E+04</rscale>
<asrwt>0</asrwt>
<pdfrwt beam="1">  1        2 0.18486766E+00 0.26884171E+04</pdfrwt>
<pdfrwt beam="2">  1       -1 0.23133730E+00 0.26884171E+04</pdfrwt>
<totfact> 0.17488303E+00</totfact>
</mgrwt>
</event>
<event>
12    6  0.1395358E-007  0.2364638E+04  0.7818608E-02  0.8452862E-01
         -1   -1    0    0    0  501 -0.00000000000E+00  0.00000000000E+00  0.47199446054E+03  0.47199446054E+03  0.00000000000E+00 0.  1.
          2   -1    0    0  501    0  0.00000000000E+00 -0.00000000000E+00 -0.29616420487E+04  0.29616420487E+04  0.00000000000E+00 0. -1.
         24    2    1    2    0    0  0.76492600066E+03 -0.47787922342E+03 -0.17254897128E+04  0.19486307177E+04  0.79790890454E+02 0.  0.
        254    2    1    2    0    0 -0.76492600066E+03  0.47787922342E+03 -0.76415787538E+03  0.14850057916E+04  0.89879063406E+03 0.  0.
         23    2    4    4    0    0 -0.31978770321E+03  0.63732708599E+03 -0.20719286446E+03  0.74828724548E+03  0.92492859270E+02 0.  0.
         23    2    4    4    0    0 -0.44513829745E+03 -0.15944786256E+03 -0.55696501092E+03  0.73671854611E+03  0.94723112540E+02 0.  0.
          4    1    3    3  502    0  0.17818422465E+03 -0.14795298962E+03 -0.47608405051E+03  0.52942962535E+03  0.00000000000E+00 0. -1.
         -3    1    3    3    0  502  0.58674177602E+03 -0.32992623380E+03 -0.12494056623E+04  0.14192010923E+04  0.00000000000E+00 0.  1.
         11    1    5    5    0    0 -0.16979230808E+03  0.32124660725E+03 -0.15297447198E+03  0.39424611555E+03  0.00000000000E+00 0. -1.
        -11    1    5    5    0    0 -0.14999539513E+03  0.31608047874E+03 -0.54218392477E+02  0.35404112993E+03  0.00000000000E+00 0.  1.
          2    1    6    6  503    0 -0.10730565998E+03 -0.58608883959E+02 -0.91054750691E+02  0.15244826521E+03  0.00000000000E+00 0. -1.
         -2    1    6    6    0  503 -0.33783263748E+03 -0.10083897860E+03 -0.46591026023E+03  0.58427028090E+03  0.00000000000E+00 0.  1.
<mgrwt>
<rscale>  0 0.23646384E+04</rscale>
<asrwt>0</asrwt>
<pdfrwt beam="1">  1        2 0.45563724E+00 0.23646384E+04</pdfrwt>
<pdfrwt beam="2">  1       -1 0.72614532E-01 0.23646384E+04</pdfrwt>
<totfact> 0.36120382E+00</totfact>
</mgrwt>
</event>
<event>
12    6  0.1395358E-007  0.1727136E+04  0.7818608E-02  0.8746037E-01
          2   -1    0    0  501    0  0.00000000000E+00  0.00000000000E+00  0.12161098522E+04  0.12161098522E+04  0.00000000000E+00 0. -1.
         -1   -1    0    0    0  501 -0.00000000000E+00 -0.00000000000E+00 -0.61322565789E+03  0.61322565789E+03  0.00000000000E+00 0.  1.
         24    2    1    2    0    0 -0.54493350558E+03 -0.21483086950E+03  0.44985644749E+03  0.74302212945E+03  0.81278739618E+02 0.  0.
        254    2    1    2    0    0  0.54493350558E+03  0.21483086950E+03  0.15302774681E+03  0.10863133806E+04  0.90197252823E+03 0.  0.
         23    2    4    4    0    0  0.21833293169E+03 -0.16748414485E+02 -0.35799140461E+03  0.42939523220E+03  0.90954060962E+02 0.  0.
         23    2    4    4    0    0  0.32660057388E+03  0.23157928398E+03  0.51101915143E+03  0.65691814844E+03  0.10051856049E+03 0.  0.
          2    1    3    3  502    0 -0.51953984439E+03 -0.18626892337E+03  0.40808006569E+03  0.68640156012E+03  0.00000000000E+00 0. -1.
         -1    1    3    3    0  502 -0.25393661190E+02 -0.28561946124E+02  0.41776381799E+02  0.56620569329E+02  0.00000000000E+00 0.  1.
         11    1    5    5    0    0 -0.39271537330E+01 -0.36644302581E+00 -0.44968152648E+02  0.45140797174E+02  0.00000000000E+00 0. -1.
        -11    1    5    5    0    0  0.22226008543E+03 -0.16381971459E+02 -0.31302325197E+03  0.38425443502E+03  0.00000000000E+00 0.  1.
          3    1    6    6  503    0  0.11504544160E+03  0.30971418246E+02  0.11921228871E+03  0.16854154432E+03  0.00000000000E+00 0. -1.
         -3    1    6    6    0  503  0.21155513229E+03  0.20060786573E+03  0.39180686271E+03  0.48837660413E+03  0.00000000000E+00 0.  1.
<mgrwt>
<rscale>  0 0.17271361E+04</rscale>
<asrwt>0</asrwt>
<pdfrwt beam="1">  1        2 0.18709382E+00 0.17271361E+04</pdfrwt>
<pdfrwt beam="2">  1       -1 0.94342409E-01 0.17271361E+04</pdfrwt>
<totfact> 0.21816945E+01</totfact>
</mgrwt>
</event>
<event>
12    6  0.1395358E-007  0.1528852E+04  0.7818608E-02  0.8865490E-01
          2   -1    0    0  501    0  0.00000000000E+00  0.00000000000E+00  0.96346402035E+03  0.96346402035E+03  0.00000000000E+00 0. -1.
         -1   -1    0    0    0  501 -0.00000000000E+00 -0.00000000000E+00 -0.60650608201E+03  0.60650608201E+03  0.00000000000E+00 0.  1.
         24    2    1    2    0    0  0.41961168668E+03 -0.23763886827E+03  0.22990325521E+03  0.53996610597E+03  0.78496430049E+02 0.  0.
        254    2    1    2    0    0 -0.41961168668E+03  0.23763886827E+03  0.12705468313E+03  0.10300039964E+04  0.90123201273E+03 0.  0.
         23    2    4    4    0    0 -0.22563800650E+03 -0.21268237632E+03  0.35656211930E+03  0.48102820378E+03  0.90029354890E+02 0.  0.
         23    2    4    4    0    0 -0.19397368018E+03  0.45032124459E+03 -0.22950743617E+03  0.54897579261E+03  0.91026071478E+02 0.  0.
          4    1    3    3  502    0  0.36514608133E+03 -0.17306894681E+03  0.19195143070E+03  0.44735877415E+03  0.00000000000E+00 0. -1.
         -3    1    3    3    0  502  0.54465605353E+02 -0.64569921463E+02  0.37951824514E+02  0.92607331827E+02  0.00000000000E+00 0.  1.
         11    1    5    5    0    0  0.31511633652E+01 -0.34070024951E+01  0.31348991352E+02  0.31690641447E+02  0.00000000000E+00 0. -1.
        -11    1    5    5    0    0 -0.22878916987E+03 -0.20927537382E+03  0.32521312795E+03  0.44933756234E+03  0.00000000000E+00 0.  1.
          3    1    6    6  503    0 -0.28855918712E+01  0.48980017731E+01 -0.20281069916E+02  0.21062736260E+02  0.00000000000E+00 0. -1.
         -3    1    6    6    0  503 -0.19108808831E+03  0.44542324281E+03 -0.20922636625E+03  0.52791305635E+03  0.00000000000E+00 0.  1.
<mgrwt>
<rscale>  0 0.15288516E+04</rscale>
<asrwt>0</asrwt>
<pdfrwt beam="1">  1        2 0.14822523E+00 0.15288516E+04</pdfrwt>
<pdfrwt beam="2">  1       -1 0.93308628E-01 0.15288516E+04</pdfrwt>
<totfact> 0.32632855E+01</totfact>
</mgrwt>
</event>
<event>
12    6  0.1395358E-007  0.1482636E+04  0.7818608E-02  0.8896083E-01
          2   -1    0    0  501    0  0.00000000000E+00  0.00000000000E+00  0.76265026523E+03  0.76265026523E+03  0.00000000000E+00 0. -1.
         -1   -1    0    0    0  501 -0.00000000000E+00 -0.00000000000E+00 -0.72058223883E+03  0.72058223883E+03  0.00000000000E+00 0.  1.
         24    2    1    2    0    0 -0.41900158818E+03 -0.11305428388E+02 -0.18500030882E+03  0.46524364984E+03  0.80847979851E+02 0.  0.
        254    2    1    2    0    0  0.41900158818E+03  0.11305428388E+02  0.22706833521E+03  0.10179888542E+04  0.89947269822E+03 0.  0.
         23    2    4    4    0    0  0.53553163891E+02 -0.33552262218E+03  0.34427564035E+03  0.49269034619E+03  0.93673311740E+02 0.  0.
         23    2    4    4    0    0  0.36544842429E+03  0.34682805057E+03 -0.11720730514E+03  0.52529850803E+03  0.91426050344E+02 0.  0.
          2    1    3    3  502    0 -0.11028674035E+03 -0.25396652127E+02 -0.20031655931E+02  0.11493225081E+03  0.00000000000E+00 0. -1.
         -1    1    3    3    0  502 -0.30871484783E+03  0.14091223739E+02 -0.16496865289E+03  0.35031139903E+03  0.00000000000E+00 0.  1.
         11    1    5    5    0    0  0.26489721608E+02 -0.23520755113E+03  0.29348761602E+03  0.37704015465E+03  0.00000000000E+00 0.  1.
        -11    1    5    5    0    0  0.27063442283E+02 -0.10031507105E+03  0.50788024328E+02  0.11565019154E+03  0.00000000000E+00 0. -1.
          1    1    6    6  503    0  0.11983658992E+03  0.14698852142E+03 -0.61525382248E+01  0.18974795767E+03  0.00000000000E+00 0. -1.
         -1    1    6    6    0  503  0.24561183437E+03  0.19983952915E+03 -0.11105476691E+03  0.33555055036E+03  0.00000000000E+00 0.  1.
<mgrwt>
<rscale>  0 0.14826358E+04</rscale>
<asrwt>0</asrwt>
<pdfrwt beam="1">  1        2 0.11733081E+00 0.14826358E+04</pdfrwt>
<pdfrwt beam="2">  1       -1 0.11085881E+00 0.14826358E+04</pdfrwt>
<totfact> 0.30379430E+01</totfact>
</mgrwt>
</event>
<event>
12    6  0.1395358E-007  0.3353569E+04  0.7818608E-02  0.8149397E-01
         -1   -1    0    0    0  501 -0.00000000000E+00  0.00000000000E+00  0.14247772767E+04  0.14247772767E+04  0.00000000000E+00 0.  1.
          2   -1    0    0  501    0  0.00000000000E+00 -0.00000000000E+00 -0.19733650346E+04  0.19733650346E+04  0.00000000000E+00 0. -1.
         24    2    1    2    0    0  0.12063976187E+04 -0.70840660869E+03  0.43693458288E+03  0.14678321558E+04  0.79901629535E+02 0.  0.
        254    2    1    2    0    0 -0.12063976187E+04  0.70840660869E+03 -0.98552234082E+03  0.19303101554E+04  0.89308895097E+03 0.  0.
         23    2    4    4    0    0 -0.57215554684E+03  0.48873970430E+03 -0.99724441276E+03  0.12528088726E+04  0.93835942451E+02 0.  0.
         23    2    4    4    0    0 -0.63424207183E+03  0.21966690439E+03  0.11722071941E+02  0.67750128285E+03  0.91400365058E+02 0.  0.
          4    1    3    3  502    0  0.18462294285E+03 -0.13811147834E+03  0.56474879377E+02  0.23738117759E+03  0.00000000000E+00 0. -1.
         -3    1    3    3    0  502  0.10217746758E+04 -0.57029513035E+03  0.38045970351E+03  0.12304509782E+04  0.00000000000E+00 0.  1.
         11    1    5    5    0    0 -0.19904564060E+03  0.12265520435E+03 -0.34892107726E+03  0.42001117170E+03  0.00000000000E+00 0.  1.
        -11    1    5    5    0    0 -0.37310990624E+03  0.36608449995E+03 -0.64832333549E+03  0.83279770088E+03  0.00000000000E+00 0. -1.
          2    1    6    6  503    0 -0.46746168193E+03  0.12906908205E+03  0.35338242674E+02  0.48623866919E+03  0.00000000000E+00 0. -1.
         -2    1    6    6    0  503 -0.16678038990E+03  0.90597822333E+02 -0.23616170733E+02  0.19126261367E+03  0.00000000000E+00 0.  1.
<mgrwt>
<rscale>  0 0.33535686E+04</rscale>
<asrwt>0</asrwt>
<pdfrwt beam="1">  1        2 0.30359462E+00 0.33535686E+04</pdfrwt>
<pdfrwt beam="2">  1       -1 0.21919650E+00 0.33535686E+04</pdfrwt>
<totfact> 0.72866021E-01</totfact>
</mgrwt>
</event>
<event>
12    6  0.1395358E-007  0.2419741E+04  0.7818608E-02  0.8432150E-01
          2   -1    0    0  501    0  0.00000000000E+00  0.00000000000E+00  0.21011599380E+04  0.21011599380E+04  0.00000000000E+00 0. -1.
         -1   -1    0    0    0  501 -0.00000000000E+00 -0.00000000000E+00 -0.69665645657E+03  0.69665645657E+03  0.00000000000E+00 0.  1.
         24    2    1    2    0    0 -0.32271366174E+02 -0.83600956949E+03  0.13202969484E+04  0.15651375342E+04  0.80734301324E+02 0.  0.
        254    2    1    2    0    0  0.32271366174E+02  0.83600956949E+03  0.84206532988E+02  0.12326788604E+04  0.90136174279E+03 0.  0.
         23    2    4    4    0    0  0.19017336543E+03  0.96191444743E+03 -0.28879109129E+02  0.98535840128E+03  0.93015390863E+02 0.  0.
         23    2    4    4    0    0 -0.15790199925E+03 -0.12590487794E+03  0.11308564212E+03  0.24732045913E+03  0.87143372637E+02 0.  0.
          4    1    3    3  502    0 -0.27389804321E+02 -0.56694425095E+03  0.96304480874E+03  0.11178690839E+04  0.00000000000E+00 0. -1.
         -3    1    3    3    0  502 -0.48815618529E+01 -0.26906531854E+03  0.35725213970E+03  0.44726845027E+03  0.00000000000E+00 0.  1.
         11    1    5    5    0    0  0.19280047305E+02  0.24805888176E+03 -0.35337286836E+02  0.25130390544E+03  0.00000000000E+00 0.  1.
        -11    1    5    5    0    0  0.17089331812E+03  0.71385556566E+03  0.64581777068E+01  0.73405449584E+03  0.00000000000E+00 0. -1.
          1    1    6    6  503    0 -0.14184604235E+03 -0.11489067387E+03  0.12787270525E+03  0.22287125302E+03  0.00000000000E+00 0. -1.
         -1    1    6    6    0  503 -0.16055956905E+02 -0.11014204072E+02 -0.14787063137E+02  0.24449206116E+02  0.00000000000E+00 0.  1.
<mgrwt>
<rscale>  0 0.24197410E+04</rscale>
<asrwt>0</asrwt>
<pdfrwt beam="1">  1        2 0.32325537E+00 0.24197410E+04</pdfrwt>
<pdfrwt beam="2">  1       -1 0.10717792E+00 0.24197410E+04</pdfrwt>
<totfact> 0.48626032E+00</totfact>
</mgrwt>
</event>
<event>
12    6  0.1395358E-007  0.2128146E+04  0.7818608E-02  0.8548945E-01
         -1   -1    0    0    0  501 -0.00000000000E+00  0.00000000000E+00  0.87103156460E+03  0.87103156460E+03  0.00000000000E+00 0.  1.
          2   -1    0    0  501    0  0.00000000000E+00 -0.00000000000E+00 -0.12998973147E+04  0.12998973147E+04  0.00000000000E+00 0. -1.
         24    2    1    2    0    0  0.15649768065E+03 -0.85780259565E+03 -0.28218390258E+03  0.91978930733E+03  0.77896070782E+02 0.  0.
        254    2    1    2    0    0 -0.15649768065E+03  0.85780259565E+03 -0.14668184756E+03  0.12511395720E+04  0.88516543488E+03 0.  0.
         23    2    4    4    0    0 -0.20574418726E+01  0.18182040009E+03  0.34189602551E+03  0.39828545165E+03  0.93142459582E+02 0.  0.
         23    2    4    4    0    0 -0.15444023877E+03  0.67598219557E+03 -0.48857787308E+03  0.85285412037E+03  0.88589482998E+02 0.  0.
          4    1    3    3  502    0  0.12273960486E+03 -0.79166951514E+03 -0.26111623314E+03  0.84260745250E+03  0.00000000000E+00 0. -1.
         -3    1    3    3    0  502  0.33758075782E+02 -0.66133080518E+02 -0.21067669435E+02  0.77181854828E+02  0.00000000000E+00 0.  1.
         11    1    5    5    0    0 -0.16757540215E+02 -0.43439083764E+01  0.23901638955E+02  0.29512252350E+02  0.00000000000E+00 0. -1.
        -11    1    5    5    0    0  0.14700098343E+02  0.18616430846E+03  0.31799438656E+03  0.36877319930E+03  0.00000000000E+00 0.  1.
          1    1    6    6  503    0 -0.42414238491E+02  0.38079947790E+03 -0.25886848464E+03  0.46240685802E+03  0.00000000000E+00 0. -1.
         -1    1    6    6    0  503 -0.11202600028E+03  0.29518271766E+03 -0.22970938843E+03  0.39044726235E+03  0.00000000000E+00 0.  1.
<mgrwt>
<rscale>  0 0.21281462E+04</rscale>
<asrwt>0</asrwt>
<pdfrwt beam="1">  1        2 0.19998420E+00 0.21281462E+04</pdfrwt>
<pdfrwt beam="2">  1       -1 0.13400486E+00 0.21281462E+04</pdfrwt>
<totfact> 0.81348140E+00</totfact>
</mgrwt>
</event>
<event>
12    6  0.1395358E-007  0.1390475E+04  0.7818608E-02  0.8960742E-01
         -1   -1    0    0    0  501 -0.00000000000E+00  0.00000000000E+00  0.29593615201E+03  0.29593615201E+03  0.00000000000E+00 0.  1.
          2   -1    0    0  501    0  0.00000000000E+00 -0.00000000000E+00 -0.16333098428E+04  0.16333098428E+04  0.00000000000E+00 0. -1.
         24    2    1    2    0    0  0.38233536597E+03 -0.86805885341E+02 -0.29132397741E+03  0.49492523730E+03  0.79785568228E+02 0.  0.
        254    2    1    2    0    0 -0.38233536597E+03  0.86805885341E+02 -0.10460497134E+04  0.14343207575E+04  0.89963350249E+03 0.  0.
         23    2    4    4    0    0  0.26107039898E+03  0.16195625874E+03 -0.42048840997E+03  0.52887684268E+03  0.92263908603E+02 0.  0.
         23    2    4    4    0    0 -0.64340576495E+03 -0.75150373396E+02 -0.62556130341E+03  0.90544391485E+03  0.94250631889E+02 0.  0.
          4    1    3    3  502    0  0.10298130321E+03  0.55970325926E-01 -0.11029307415E+03  0.15089636891E+03  0.00000000000E+00 0. -1.
         -3    1    3    3    0  502  0.27935406276E+03 -0.86861855667E+02 -0.18103090326E+03  0.34402886839E+03  0.00000000000E+00 0.  1.
         11    1    5    5    0    0  0.48448515875E+02  0.59476907596E+02 -0.57381808337E+02  0.95798920431E+02  0.00000000000E+00 0. -1.
        -11    1    5    5    0    0  0.21262188311E+03  0.10247935114E+03 -0.36310660164E+03  0.43307792225E+03  0.00000000000E+00 0.  1.
          1    1    6    6  503    0 -0.77355339922E+02 -0.23547816318E+02 -0.12024612445E+03  0.14490506793E+03  0.00000000000E+00 0. -1.
         -1    1    6    6    0  503 -0.56605042503E+03 -0.51602557079E+02 -0.50531517896E+03  0.76053884691E+03  0.00000000000E+00 0.  1.
<mgrwt>
<rscale>  0 0.13904754E+04</rscale>
<asrwt>0</asrwt>
<pdfrwt beam="1">  1        2 0.25127844E+00 0.13904754E+04</pdfrwt>
<pdfrwt beam="2">  1       -1 0.45528638E-01 0.13904754E+04</pdfrwt>
<totfact> 0.56798802E+01</totfact>
</mgrwt>
</event>
<event>
12    6  0.1395358E-007  0.2854291E+04  0.7818608E-02  0.8286608E-01
          2   -1    0    0  501    0  0.00000000000E+00  0.00000000000E+00  0.19424644077E+04  0.19424644077E+04  0.00000000000E+00 0. -1.
         -1   -1    0    0    0  501 -0.00000000000E+00 -0.00000000000E+00 -0.10485365621E+04  0.10485365621E+04  0.00000000000E+00 0.  1.
         24    2    1    2    0    0 -0.32281647989E+03 -0.73182043947E+03  0.14562667534E+04  0.16633064435E+04  0.78127029217E+02 0.  0.
        254    2    1    2    0    0  0.32281647989E+03  0.73182043947E+03 -0.56233890772E+03  0.13276945263E+04  0.89820714350E+03 0.  0.
         23    2    4    4    0    0 -0.53043025760E+02  0.37125492753E+03 -0.68366371806E+03  0.78519056661E+03  0.92110600445E+02 0.  0.
         23    2    4    4    0    0  0.37585950565E+03  0.36056551194E+03  0.12132481034E+03  0.54250395966E+03  0.91175546344E+02 0.  0.
          4    1    3    3  502    0 -0.13035657355E+03 -0.30566130953E+03  0.68536048603E+03  0.76166965820E+03  0.00000000000E+00 0. -1.
         -3    1    3    3    0  502 -0.19245990634E+03 -0.42615912994E+03  0.77090626738E+03  0.90163678533E+03  0.00000000000E+00 0.  1.
         11    1    5    5    0    0 -0.43588573367E+02  0.25132853864E+03 -0.37143398127E+03  0.45058761690E+03  0.00000000000E+00 0. -1.
        -11    1    5    5    0    0 -0.94544523928E+01  0.11992638889E+03 -0.31222973678E+03  0.33460294971E+03  0.00000000000E+00 0.  1.
          4    1    6    6  503    0  0.39169291013E+02  0.18990597665E+02 -0.11132566284E+02  0.44931171698E+02  0.00000000000E+00 0. -1.
         -4    1    6    6    0  503  0.33669021464E+03  0.34157491428E+03  0.13245737662E+03  0.49757278796E+03  0.00000000000E+00 0.  1.
<mgrwt>
<rscale>  0 0.28542915E+04</rscale>
<asrwt>0</asrwt>
<pdfrwt beam="1">  1        2 0.29884068E+00 0.28542915E+04</pdfrwt>
<pdfrwt beam="2">  1       -1 0.16131332E+00 0.28542915E+04</pdfrwt>
<totfact> 0.20247018E+00</totfact>
</mgrwt>
</event>
<event>
12    6  0.1395358E-007  0.3823800E+04  0.7818608E-02  0.8041067E-01
         -1   -1    0    0    0  501 -0.00000000000E+00  0.00000000000E+00  0.16796098121E+04  0.16796098121E+04  0.00000000000E+00 0.  1.
          2   -1    0    0  501    0  0.00000000000E+00 -0.00000000000E+00 -0.21763158128E+04  0.21763158128E+04  0.00000000000E+00 0. -1.
         24    2    1    2    0    0  0.17103049416E+04 -0.57678091179E+03 -0.19024674025E+03  0.18167768129E+04  0.81639158511E+02 0.  0.
        254    2    1    2    0    0 -0.17103049416E+04  0.57678091179E+03 -0.30645926042E+03  0.20391488120E+04  0.89799297644E+03 0.  0.
         23    2    4    4    0    0 -0.97730937178E+01  0.79062723943E+01  0.15987377044E+03  0.18418652611E+03  0.90592667607E+02 0.  0.
         23    2    4    4    0    0 -0.17005318479E+04  0.56887463939E+03 -0.46633303086E+03  0.18549622859E+04  0.89396115147E+02 0.  0.
          2    1    3    3  502    0  0.15468372934E+04 -0.49581791257E+03 -0.17292539852E+03  0.16335373299E+04  0.00000000000E+00 0. -1.
         -1    1    3    3    0  502  0.16346764816E+03 -0.80962999215E+02 -0.17321341733E+02  0.18323948297E+03  0.00000000000E+00 0.  1.
         11    1    5    5    0    0  0.33732907834E+02  0.40359030114E+01  0.24351074472E+02  0.41799191523E+02  0.00000000000E+00 0.  1.
        -11    1    5    5    0    0 -0.43506001552E+02  0.38703693829E+01  0.13552269597E+03  0.14238733459E+03  0.00000000000E+00 0. -1.
          3    1    6    6  503    0 -0.14874743262E+04  0.50117243890E+03 -0.43812525691E+03  0.16296341385E+04  0.00000000000E+00 0. -1.
         -3    1    6    6    0  503 -0.21305752166E+03  0.67702200495E+02 -0.28207773954E+02  0.22532814738E+03  0.00000000000E+00 0.  1.
<mgrwt>
<rscale>  0 0.38237999E+04</rscale>
<asrwt>0</asrwt>
<pdfrwt beam="1">  1        2 0.33481782E+00 0.38237999E+04</pdfrwt>
<pdfrwt beam="2">  1       -1 0.25840151E+00 0.38237999E+04</pdfrwt>
<totfact> 0.29780841E-01</totfact>
</mgrwt>
</event>
<event>
12    6  0.1395358E-007  0.2441390E+04  0.7818608E-02  0.8424168E-01
         -1   -1    0    0    0  501 -0.00000000000E+00  0.00000000000E+00  0.13353735280E+04  0.13353735280E+04  0.00000000000E+00 0.  1.
          2   -1    0    0  501    0  0.00000000000E+00 -0.00000000000E+00 -0.11158651495E+04  0.11158651495E+04  0.00000000000E+00 0. -1.
         24    2    1    2    0    0 -0.17628505850E+03  0.92267682230E+03 -0.38274641843E+03  0.10175937016E+04  0.81198402071E+02 0.  0.
        254    2    1    2    0    0  0.17628505850E+03 -0.92267682230E+03  0.60225479697E+03  0.14336449759E+04  0.90012117855E+03 0.  0.
         23    2    4    4    0    0  0.19413310506E+02 -0.19464840251E+03 -0.22759794946E+03  0.31404854654E+03  0.92524514393E+02 0.  0.
         23    2    4    4    0    0  0.15687174799E+03 -0.72802841978E+03  0.82985274642E+03  0.11195964293E+04  0.10102701844E+03 0.  0.
          2    1    3    3  502    0 -0.11949515882E+03  0.47755735019E+03 -0.23211305115E+03  0.54425782881E+03  0.00000000000E+00 0. -1.
         -1    1    3    3    0  502 -0.56789899676E+02  0.44511947210E+03 -0.15063336729E+03  0.47333587281E+03  0.00000000000E+00 0.  1.
         11    1    5    5    0    0  0.43355999141E+01 -0.13017166570E+03 -0.20724807414E+03  0.24477586526E+03  0.00000000000E+00 0.  1.
        -11    1    5    5    0    0  0.15077710592E+02 -0.64476736817E+02 -0.20349875314E+02  0.69272681287E+02  0.00000000000E+00 0. -1.
          4    1    6    6  503    0 -0.60410071523E+01 -0.29163512189E+01  0.18066415320E+01  0.69471451310E+01  0.00000000000E+00 0. -1.
         -4    1    6    6    0  503  0.16291275514E+03 -0.72511206856E+03  0.82804610489E+03  0.11126492842E+04  0.00000000000E+00 0.  1.
<mgrwt>
<rscale>  0 0.24413904E+04</rscale>
<asrwt>0</asrwt>
<pdfrwt beam="1">  1        2 0.17167156E+00 0.24413904E+04</pdfrwt>
<pdfrwt beam="2">  1       -1 0.20544208E+00 0.24413904E+04</pdfrwt>
<totfact> 0.30048956E+00</totfact>
</mgrwt>
</event>
<event>
12    6  0.1395358E-007  0.2519751E+04  0.7818608E-02  0.8395983E-01
          2   -1    0    0  501    0  0.00000000000E+00  0.00000000000E+00  0.72725043069E+03  0.72725043069E+03  0.00000000000E+00 0. -1.
         -1   -1    0    0    0  501 -0.00000000000E+00 -0.00000000000E+00 -0.21825850306E+04  0.21825850306E+04  0.00000000000E+00 0.  1.
         24    2    1    2    0    0 -0.89484418260E+03  0.13183819124E+03 -0.13538876691E+04  0.16301327582E+04  0.78699230270E+02 0.  0.
        254    2    1    2    0    0  0.89484418260E+03 -0.13183819124E+03 -0.10144693082E+03  0.12797027032E+04  0.89956662283E+03 0.  0.
         23    2    4    4    0    0  0.87736445023E+03  0.37022462118E+02 -0.36453344352E+03  0.95461542030E+03  0.85246278524E+02 0.  0.
         23    2    4    4    0    0  0.17479732371E+02 -0.16886065336E+03  0.26308651270E+03  0.32508728286E+03  0.87451512377E+02 0.  0.
          2    1    3    3  502    0 -0.28570249947E+03  0.41576006373E+02 -0.36809043002E+03  0.46780877203E+03  0.00000000000E+00 0. -1.
         -1    1    3    3    0  502 -0.60914168312E+03  0.90262184866E+02 -0.98579723910E+03  0.11623239861E+04  0.00000000000E+00 0.  1.
         11    1    5    5    0    0  0.14272000853E+03 -0.16622376887E+02 -0.83768098430E+02  0.16632016884E+03  0.00000000000E+00 0. -1.
        -11    1    5    5    0    0  0.73464444170E+03  0.53644839005E+02 -0.28076534509E+03  0.78829525146E+03  0.00000000000E+00 0.  1.
          1    1    6    6  503    0  0.11387416622E+02 -0.87756386266E+02  0.21021079743E+03  0.22807769717E+03  0.00000000000E+00 0. -1.
         -1    1    6    6    0  503  0.60923157491E+01 -0.81104267090E+02  0.52875715270E+02  0.97009585695E+02  0.00000000000E+00 0.  1.
<mgrwt>
<rscale>  0 0.25197507E+04</rscale>
<asrwt>0</asrwt>
<pdfrwt beam="1">  1        2 0.11188468E+00 0.25197507E+04</pdfrwt>
<pdfrwt beam="2">  1       -1 0.33578231E+00 0.25197507E+04</pdfrwt>
<totfact> 0.76469893E-01</totfact>
</mgrwt>
</event>
<event>
12    6  0.1395358E-007  0.1557062E+04  0.7818608E-02  0.8847369E-01
         -1   -1    0    0    0  501 -0.00000000000E+00  0.00000000000E+00  0.11786727135E+04  0.11786727135E+04  0.00000000000E+00 0.  1.
          2   -1    0    0  501    0  0.00000000000E+00 -0.00000000000E+00 -0.51423154785E+03  0.51423154785E+03  0.00000000000E+00 0. -1.
         24    2    1    2    0    0  0.25440525647E+03 -0.39037122079E+03  0.46095964525E+03  0.66046268396E+03  0.81335341733E+02 0.  0.
        254    2    1    2    0    0 -0.25440525647E+03  0.39037122079E+03  0.20348152043E+03  0.10324415774E+04  0.89856505446E+03 0.  0.
         23    2    4    4    0    0 -0.39673176755E+03  0.11602565482E+03 -0.23662154646E+03  0.48564574380E+03  0.94889326358E+02 0.  0.
         23    2    4    4    0    0  0.14232651108E+03  0.27434556597E+03  0.44010306689E+03  0.54679583363E+03  0.98856708761E+02 0.  0.
          2    1    3    3  502    0  0.15490837093E+03 -0.29878729577E+03  0.30696072677E+03  0.45551656312E+03  0.00000000000E+00 0. -1.
         -1    1    3    3    0  502  0.99496885545E+02 -0.91583925020E+02  0.15399891848E+03  0.20494612084E+03  0.00000000000E+00 0.  1.
         11    1    5    5    0    0 -0.18978271659E+03  0.86583817933E+02 -0.75945625334E+02  0.22199543926E+03  0.00000000000E+00 0. -1.
        -11    1    5    5    0    0 -0.20694905096E+03  0.29441836892E+02 -0.16067592113E+03  0.26365030454E+03  0.00000000000E+00 0.  1.
          3    1    6    6  503    0  0.88047364302E+02  0.15298366109E+03  0.32973269983E+03  0.37400533720E+03  0.00000000000E+00 0. -1.
         -3    1    6    6    0  503  0.54279146776E+02  0.12136190487E+03  0.11037036707E+03  0.17279049643E+03  0.00000000000E+00 0.  1.
<mgrwt>
<rscale>  0 0.15570622E+04</rscale>
<asrwt>0</asrwt>
<pdfrwt beam="1">  1        2 0.79112546E-01 0.15570622E+04</pdfrwt>
<pdfrwt beam="2">  1       -1 0.18133426E+00 0.15570622E+04</pdfrwt>
<totfact> 0.13339563E+01</totfact>
</mgrwt>
</event>
<event>
12    6  0.1395358E-007  0.1559248E+04  0.7818608E-02  0.8845982E-01
         -1   -1    0    0    0  501 -0.00000000000E+00  0.00000000000E+00  0.70867450442E+03  0.70867450442E+03  0.00000000000E+00 0.  1.
          2   -1    0    0  501    0  0.00000000000E+00 -0.00000000000E+00 -0.85767717625E+03  0.85767717625E+03  0.00000000000E+00 0. -1.
         24    2    1    2    0    0  0.45106262783E+03 -0.13987693390E+03 -0.25537580798E+03  0.54216558601E+03  0.75522635620E+02 0.  0.
        254    2    1    2    0    0 -0.45106262783E+03  0.13987693390E+03  0.10637313616E+03  0.10241860947E+04  0.90256238651E+03 0.  0.
         23    2    4    4    0    0 -0.40592855377E+03  0.15321886216E+03 -0.34438642780E+03  0.56154143745E+03  0.92047617237E+02 0.  0.
         23    2    4    4    0    0 -0.45134074064E+02 -0.13341928257E+02  0.45075956396E+03  0.46264465721E+03  0.92955917808E+02 0.  0.
          2    1    3    3  502    0  0.14749368601E+03 -0.57389187827E+02 -0.12486025095E+03  0.20158866179E+03  0.00000000000E+00 0. -1.
         -1    1    3    3    0  502  0.30356894182E+03 -0.82487746077E+02 -0.13051555703E+03  0.34057692423E+03  0.00000000000E+00 0.  1.
         11    1    5    5    0    0 -0.38784441228E+03  0.13109875428E+03 -0.34091451370E+03  0.53275968049E+03  0.00000000000E+00 0. -1.
        -11    1    5    5    0    0 -0.18084141487E+02  0.22120107882E+02 -0.34719140987E+01  0.28781756957E+02  0.00000000000E+00 0.  1.
          3    1    6    6  503    0 -0.57850953323E+02  0.14269190296E+02  0.39184820195E+03  0.39635256523E+03  0.00000000000E+00 0. -1.
         -3    1    6    6    0  503  0.12716879259E+02 -0.27611118553E+02  0.58911362009E+02  0.66292091984E+02  0.00000000000E+00 0.  1.
<mgrwt>
<rscale>  0 0.15592485E+04</rscale>
<asrwt>0</asrwt>
<pdfrwt beam="1">  1        2 0.13195033E+00 0.15592485E+04</pdfrwt>
<pdfrwt beam="2">  1       -1 0.10902685E+00 0.15592485E+04</pdfrwt>
<totfact> 0.26835349E+01</totfact>
</mgrwt>
</event>
<event>
12    6  0.1395358E-007  0.4664720E+04  0.7818608E-02  0.7882417E-01
          2   -1    0    0  501    0  0.00000000000E+00  0.00000000000E+00  0.17841390670E+04  0.17841390670E+04  0.00000000000E+00 0. -1.
         -1   -1    0    0    0  501 -0.00000000000E+00 -0.00000000000E+00 -0.30490356527E+04  0.30490356527E+04  0.00000000000E+00 0.  1.
         24    2    1    2    0    0  0.14882742074E+03  0.22271797808E+04 -0.36084215594E+03  0.22625413312E+04  0.80042715665E+02 0.  0.
        254    2    1    2    0    0 -0.14882742074E+03 -0.22271797808E+04 -0.90405442978E+03  0.25706333885E+04  0.89908966670E+03 0.  0.
         23    2    4    4    0    0 -0.23044605602E+03 -0.45623131227E+03  0.10316695876E+03  0.52963185063E+03  0.92812072403E+02 0.  0.
         23    2    4    4    0    0  0.81618635287E+02 -0.17709484686E+04 -0.10072213885E+04  0.20410015379E+04  0.90952032221E+02 0.  0.
          4    1    3    3  502    0  0.13072488521E+03  0.14123681962E+04 -0.24234698948E+03  0.14389596869E+04  0.00000000000E+00 0. -1.
         -3    1    3    3    0  502  0.18102535523E+02  0.81481158466E+03 -0.11849516647E+03  0.82358164426E+03  0.00000000000E+00 0.  1.
         11    1    5    5    0    0 -0.25911002417E+02 -0.29469330930E+02 -0.14744693364E+02  0.41919297395E+02  0.00000000000E+00 0.  1.
        -11    1    5    5    0    0 -0.20453505361E+03 -0.42676198134E+03  0.11791165212E+03  0.48771255323E+03  0.00000000000E+00 0. -1.
          2    1    6    6  503    0  0.45288257475E+02 -0.15550742748E+04 -0.86656365124E+03  0.17807974584E+04  0.00000000000E+00 0. -1.
         -2    1    6    6    0  503  0.36330377812E+02 -0.21587419379E+03 -0.14065773730E+03  0.26020407945E+03  0.00000000000E+00 0.  1.
<mgrwt>
<rscale>  0 0.46647202E+04</rscale>
<asrwt>0</asrwt>
<pdfrwt beam="1">  1        2 0.27448294E+00 0.46647202E+04</pdfrwt>
<pdfrwt beam="2">  1       -1 0.46908240E+00 0.46647202E+04</pdfrwt>
<totfact> 0.17997654E-02</totfact>
</mgrwt>
</event>
<event>
12    6  0.1395358E-007  0.2313005E+04  0.7818608E-02  0.8472811E-01
         -1   -1    0    0    0  501 -0.00000000000E+00  0.00000000000E+00  0.72017080646E+03  0.72017080646E+03  0.00000000000E+00 0.  1.
          2   -1    0    0  501    0  0.00000000000E+00 -0.00000000000E+00 -0.18571961319E+04  0.18571961319E+04  0.00000000000E+00 0. -1.
         24    2    1    2    0    0 -0.47079897103E+03 -0.16781108138E+03  0.45587988183E+03  0.68132528081E+03  0.81027411785E+02 0.  0.
        254    2    1    2    0    0  0.47079897103E+03  0.16781108138E+03 -0.15929052073E+04  0.18960416576E+04  0.89878514545E+03 0.  0.
         23    2    4    4    0    0 -0.17927247750E+03 -0.15403605284E+03 -0.68121278085E+03  0.72748919879E+03  0.96560627580E+02 0.  0.
         23    2    4    4    0    0  0.65007144853E+03  0.32184713422E+03 -0.91169242644E+03  0.11685524588E+04  0.90295639397E+02 0.  0.
          2    1    3    3  502    0 -0.15211190565E+03 -0.22022643774E+02  0.11059432568E+03  0.18935187760E+03  0.00000000000E+00 0. -1.
         -1    1    3    3    0  502 -0.31868706538E+03 -0.14578843761E+03  0.34528555615E+03  0.49197340321E+03  0.00000000000E+00 0.  1.
         11    1    5    5    0    0  0.76070954838E+01 -0.17054996204E+02 -0.10117526888E+03  0.10288428369E+03  0.00000000000E+00 0. -1.
        -11    1    5    5    0    0 -0.18687957298E+03 -0.13698105664E+03 -0.58003751197E+03  0.62460491510E+03  0.00000000000E+00 0.  1.
          3    1    6    6  503    0  0.23654425792E+03  0.16380682019E+03 -0.38155835839E+03  0.47788350165E+03  0.00000000000E+00 0. -1.
         -3    1    6    6    0  503  0.41352719061E+03  0.15804031404E+03 -0.53013406805E+03  0.69066895713E+03  0.00000000000E+00 0.  1.
<mgrwt>
<rscale>  0 0.23130053E+04</rscale>
<asrwt>0</asrwt>
<pdfrwt beam="1">  1        2 0.28572248E+00 0.23130053E+04</pdfrwt>
<pdfrwt beam="2">  1       -1 0.11079551E+00 0.23130053E+04</pdfrwt>
<totfact> 0.62032927E+00</totfact>
</mgrwt>
</event>
<event>
12    6  0.1395358E-007  0.2629809E+04  0.7818608E-02  0.8358146E-01
         -1   -1    0    0    0  501 -0.00000000000E+00  0.00000000000E+00  0.69888132558E+03  0.69888132558E+03  0.00000000000E+00 0.  1.
          2   -1    0    0  501    0  0.00000000000E+00 -0.00000000000E+00 -0.24739168585E+04  0.24739168585E+04  0.00000000000E+00 0. -1.
         24    2    1    2    0    0 -0.32654125988E+03  0.64026293085E+03  0.31268480444E+03  0.78784030839E+03  0.79716683193E+02 0.  0.
        254    2    1    2    0    0  0.32654125988E+03 -0.64026293085E+03 -0.20877203374E+04  0.23849578757E+04  0.90159971535E+03 0.  0.
         23    2    4    4    0    0  0.57107412750E+03 -0.15244678302E+03 -0.11388605983E+04  0.12863490860E+04  0.91240494745E+02 0.  0.
         23    2    4    4    0    0 -0.24453286762E+03 -0.48781614783E+03 -0.94885973905E+03  0.10986087897E+04  0.94050789335E+02 0.  0.
          4    1    3    3  502    0 -0.67310748098E+02  0.97606756893E+02  0.24976656892E+02  0.12116785543E+03  0.00000000000E+00 0. -1.
         -3    1    3    3    0  502 -0.25923051178E+03  0.54265617395E+03  0.28770814755E+03  0.66667245296E+03  0.00000000000E+00 0.  1.
         11    1    5    5    0    0  0.47786152304E+03 -0.16147109743E+03 -0.95680113568E+03  0.10816159040E+04  0.00000000000E+00 0. -1.
        -11    1    5    5    0    0  0.93212604453E+02  0.90243144076E+01 -0.18205946265E+03  0.20473318202E+03  0.00000000000E+00 0.  1.
          4    1    6    6  503    0 -0.63580260716E+02 -0.86617241627E+02 -0.12727679041E+03  0.16656643562E+03  0.00000000000E+00 0. -1.
         -4    1    6    6    0  503 -0.18095260690E+03 -0.40119890620E+03 -0.82158294864E+03  0.93204235407E+03  0.00000000000E+00 0.  1.
<mgrwt>
<rscale>  0 0.26298093E+04</rscale>
<asrwt>0</asrwt>
<pdfrwt beam="1">  1        2 0.38060259E+00 0.26298093E+04</pdfrwt>
<pdfrwt beam="2">  1       -1 0.10752020E+00 0.26298093E+04</pdfrwt>
<totfact> 0.29119950E+00</totfact>
</mgrwt>
</event>
<event>
12    6  0.1395358E-007  0.2959990E+04  0.7818608E-02  0.8255249E-01
          2   -1    0    0  501    0  0.00000000000E+00  0.00000000000E+00  0.25719384745E+04  0.25719384745E+04  0.00000000000E+00 0. -1.
         -1   -1    0    0    0  501 -0.00000000000E+00 -0.00000000000E+00 -0.85164736787E+03  0.85164736787E+03  0.00000000000E+00 0.  1.
         24    2    1    2    0    0  0.41477687782E+03  0.12549028711E+04  0.51395687289E+03  0.14203898985E+04  0.80837629502E+02 0.  0.
        254    2    1    2    0    0 -0.41477687782E+03 -0.12549028711E+04  0.12063342338E+04  0.20031959439E+04  0.90040581494E+03 0.  0.
         23    2    4    4    0    0 -0.40518793595E+03 -0.27775404668E+03  0.78184441139E+02  0.50798498012E+03  0.10301145232E+03 0.  0.
         23    2    4    4    0    0 -0.95889418741E+01 -0.97714882445E+03  0.11281497926E+04  0.14952109637E+04  0.89566168431E+02 0.  0.
          4    1    3    3  502    0  0.46015663822E+02  0.16411113561E+03  0.94804002749E+02  0.19503257442E+03  0.00000000000E+00 0. -1.
         -3    1    3    3    0  502  0.36876121400E+03  0.10907917355E+04  0.41915287014E+03  0.12253573241E+04  0.00000000000E+00 0.  1.
         11    1    5    5    0    0 -0.10846780590E+03 -0.25475477329E+02  0.31102183298E+02  0.11567891194E+03  0.00000000000E+00 0.  1.
        -11    1    5    5    0    0 -0.29672013005E+03 -0.25227856935E+03  0.47082257842E+02  0.39230606818E+03  0.00000000000E+00 0. -1.
          2    1    6    6  503    0  0.95655183662E+00 -0.27726235991E+03  0.38342490513E+03  0.47317014813E+03  0.00000000000E+00 0. -1.
         -2    1    6    6    0  503 -0.10545493711E+02 -0.69988646454E+03  0.74472488751E+03  0.10220408156E+04  0.00000000000E+00 0.  1.
<mgrwt>
<rscale>  0 0.29599896E+04</rscale>
<asrwt>0</asrwt>
<pdfrwt beam="1">  1        2 0.39568284E+00 0.29599896E+04</pdfrwt>
<pdfrwt beam="2">  1       -1 0.13102267E+00 0.29599896E+04</pdfrwt>
<totfact> 0.15335195E+00</totfact>
</mgrwt>
</event>
<event>
12    6  0.1395358E-007  0.1874117E+04  0.7818608E-02  0.8667848E-01
         -1   -1    0    0    0  501 -0.00000000000E+00  0.00000000000E+00  0.11013562629E+04  0.11013562629E+04  0.00000000000E+00 0.  1.
          2   -1    0    0  501    0  0.00000000000E+00 -0.00000000000E+00 -0.79727039718E+03  0.79727039718E+03  0.00000000000E+00 0. -1.
         24    2    1    2    0    0  0.12197457903E+03 -0.58115635633E+03  0.52663717787E+03  0.79757286814E+03  0.78455429639E+02 0.  0.
        254    2    1    2    0    0 -0.12197457903E+03  0.58115635633E+03 -0.22255131210E+03  0.11010537920E+04  0.90009436054E+03 0.  0.
         23    2    4    4    0    0  0.23163690206E+03  0.37608727662E+03  0.21149424560E+03  0.49805901500E+03  0.90750605884E+02 0.  0.
         23    2    4    4    0    0 -0.35361148110E+03  0.20506907972E+03 -0.43404555770E+03  0.60299477699E+03  0.90070793789E+02 0.  0.
          2    1    3    3  502    0  0.11930707786E+03 -0.40427619361E+03  0.35493918372E+03  0.55104922075E+03  0.00000000000E+00 0. -1.
         -1    1    3    3    0  502  0.26675011702E+01 -0.17688016272E+03  0.17169799415E+03  0.24652364739E+03  0.00000000000E+00 0.  1.
         11    1    5    5    0    0  0.10406395227E+03  0.92920289321E+02  0.51685113713E+02  0.14877781189E+03  0.00000000000E+00 0. -1.
        -11    1    5    5    0    0  0.12757294979E+03  0.28316698729E+03  0.15980913188E+03  0.34928120311E+03  0.00000000000E+00 0.  1.
          3    1    6    6  503    0 -0.24014853190E+02 -0.81585998290E+01 -0.18823397217E+02  0.31584746440E+02  0.00000000000E+00 0. -1.
         -3    1    6    6    0  503 -0.32959662791E+03  0.21322767955E+03 -0.41522216048E+03  0.57141003055E+03  0.00000000000E+00 0.  1.
<mgrwt>
<rscale>  0 0.18741171E+04</rscale>
<asrwt>0</asrwt>
<pdfrwt beam="1">  1        2 0.12265698E+00 0.18741171E+04</pdfrwt>
<pdfrwt beam="2">  1       -1 0.16943943E+00 0.18741171E+04</pdfrwt>
<totfact> 0.92079708E+00</totfact>
</mgrwt>
</event>
<event>
12    6  0.1395358E-007  0.1366491E+04  0.7818608E-02  0.8978437E-01
         -1   -1    0    0    0  501 -0.00000000000E+00  0.00000000000E+00  0.41812496049E+03  0.41812496049E+03  0.00000000000E+00 0.  1.
          2   -1    0    0  501    0  0.00000000000E+00 -0.00000000000E+00 -0.11164715829E+04  0.11164715829E+04  0.00000000000E+00 0. -1.
         24    2    1    2    0    0 -0.25344805798E+02 -0.22968078211E+02  0.22909583571E+03  0.24360970408E+03  0.75438015491E+02 0.  0.
        254    2    1    2    0    0  0.25344805798E+02  0.22968078211E+02 -0.92744245814E+03  0.12909868393E+04  0.89740047604E+03 0.  0.
         23    2    4    4    0    0 -0.30804788280E+03  0.14979868061E+03 -0.74603468650E+02  0.36210490105E+03  0.90670496964E+02 0.  0.
         23    2    4    4    0    0  0.33339268860E+03 -0.12683060240E+03 -0.85283898949E+03  0.92888193829E+03  0.90832960795E+02 0.  0.
          4    1    3    3  502    0 -0.44672004897E+02 -0.84395670760E+00  0.79852901801E+02  0.91502930065E+02  0.00000000000E+00 0. -1.
         -3    1    3    3    0  502  0.19327199099E+02 -0.22124121503E+02  0.14924293391E+03  0.15210677401E+03  0.00000000000E+00 0.  1.
         11    1    5    5    0    0 -0.26793591109E+03  0.15162653985E+03 -0.42681708843E+02  0.31080860398E+03  0.00000000000E+00 0.  1.
        -11    1    5    5    0    0 -0.40111971712E+02 -0.18278592402E+01 -0.31921759807E+02  0.51296297071E+02  0.00000000000E+00 0. -1.
          4    1    6    6  503    0  0.21028006515E+01 -0.19167328554E+02 -0.35298001276E+02  0.40221351899E+02  0.00000000000E+00 0. -1.
         -4    1    6    6    0  503  0.33128988795E+03 -0.10766327385E+03 -0.81754098821E+03  0.88866058639E+03  0.00000000000E+00 0.  1.
<mgrwt>
<rscale>  0 0.13664913E+04</rscale>
<asrwt>0</asrwt>
<pdfrwt beam="1">  1        2 0.17176486E+00 0.13664913E+04</pdfrwt>
<pdfrwt beam="2">  1       -1 0.64326917E-01 0.13664913E+04</pdfrwt>
<totfact> 0.58035526E+01</totfact>
</mgrwt>
</event>
<event>
12    6  0.1395358E-007  0.1873434E+04  0.7818608E-02  0.8668194E-01
          2   -1    0    0  501    0  0.00000000000E+00  0.00000000000E+00  0.13100505016E+04  0.13100505016E+04  0.00000000000E+00 0. -1.
         -1   -1    0    0    0  501 -0.00000000000E+00 -0.00000000000E+00 -0.66977467238E+03  0.66977467238E+03  0.00000000000E+00 0.  1.
         24    2    1    2    0    0 -0.38931688485E+03  0.31571152989E+03  0.79028286353E+03  0.93914194343E+03  0.78734862519E+02 0.  0.
        254    2    1    2    0    0  0.38931688485E+03 -0.31571152989E+03 -0.15000703427E+03  0.10406832306E+04  0.89959883793E+03 0.  0.
         23    2    4    4    0    0  0.40788549565E+03  0.22961879629E+03 -0.76405372833E+02  0.48302780090E+03  0.91557120314E+02 0.  0.
         23    2    4    4    0    0 -0.18568610801E+02 -0.54533032617E+03 -0.73601661435E+02  0.55765542970E+03  0.88500936485E+02 0.  0.
          4    1    3    3  502    0 -0.29360419283E+03  0.25034754903E+03  0.66213649690E+03  0.76635635176E+03  0.00000000000E+00 0. -1.
         -3    1    3    3    0  502 -0.95712692016E+02  0.65363980858E+02  0.12814636663E+03  0.17278559167E+03  0.00000000000E+00 0.  1.
         11    1    5    5    0    0  0.11954910777E+03  0.11620248602E+03 -0.36036394048E+02  0.17056854523E+03  0.00000000000E+00 0. -1.
        -11    1    5    5    0    0  0.28833638788E+03  0.11341631027E+03 -0.40368978785E+02  0.31245925568E+03  0.00000000000E+00 0.  1.
          2    1    6    6  503    0  0.26072533363E+02 -0.39233641103E+03 -0.45540732878E+02  0.39583026004E+03  0.00000000000E+00 0. -1.
         -2    1    6    6    0  503 -0.44641144164E+02 -0.15299391514E+03 -0.28060928557E+02  0.16182516966E+03  0.00000000000E+00 0.  1.
<mgrwt>
<rscale>  0 0.18734339E+04</rscale>
<asrwt>0</asrwt>
<pdfrwt beam="1">  1        2 0.20154623E+00 0.18734339E+04</pdfrwt>
<pdfrwt beam="2">  1       -1 0.10304226E+00 0.18734339E+04</pdfrwt>
<totfact> 0.15521524E+01</totfact>
</mgrwt>
</event>
<event>
12    6  0.1395358E-007  0.2548715E+04  0.7818608E-02  0.8385833E-01
         -1   -1    0    0    0  501 -0.00000000000E+00  0.00000000000E+00  0.10841071860E+04  0.10841071860E+04  0.00000000000E+00 0.  1.
          2   -1    0    0  501    0  0.00000000000E+00 -0.00000000000E+00 -0.14979944453E+04  0.14979944453E+04  0.00000000000E+00 0. -1.
         24    2    1    2    0    0  0.92429398050E+03  0.47433897273E+03  0.22758035492E+03  0.10664578730E+04  0.78884431386E+02 0.  0.
        254    2    1    2    0    0 -0.92429398050E+03 -0.47433897273E+03 -0.64146761425E+03  0.15156437583E+04  0.89798578976E+03 0.  0.
         23    2    4    4    0    0 -0.90305774379E+02  0.23533169406E+03 -0.68222478323E+02  0.27643593130E+03  0.90699385036E+02 0.  0.
         23    2    4    4    0    0 -0.83398820612E+03 -0.70967066679E+03 -0.57324513592E+03  0.12392078270E+04  0.88641240297E+02 0.  0.
          4    1    3    3  502    0  0.15763045277E+03  0.56463318458E+02  0.17198286610E+02  0.16831888496E+03  0.00000000000E+00 0. -1.
         -3    1    3    3    0  502  0.76666352773E+03  0.41787565427E+03  0.21038206831E+03  0.89813898804E+03  0.00000000000E+00 0.  1.
         11    1    5    5    0    0 -0.42442101265E+01  0.25676466967E+02 -0.40464054603E+02  0.48110643214E+02  0.00000000000E+00 0.  1.
        -11    1    5    5    0    0 -0.86061564253E+02  0.20965522710E+03 -0.27758423720E+02  0.22832528808E+03  0.00000000000E+00 0. -1.
          3    1    6    6  503    0 -0.78420154389E+03 -0.65280894326E+03 -0.55469812370E+03  0.11613877846E+04  0.00000000000E+00 0. -1.
         -3    1    6    6    0  503 -0.49786662230E+02 -0.56861723532E+02 -0.18547012229E+02  0.77820042416E+02  0.00000000000E+00 0.  1.
<mgrwt>
<rscale>  0 0.25487146E+04</rscale>
<asrwt>0</asrwt>
<pdfrwt beam="1">  1        2 0.23046068E+00 0.25487146E+04</pdfrwt>
<pdfrwt beam="2">  1       -1 0.16678572E+00 0.25487146E+04</pdfrwt>
<totfact> 0.33468070E+00</totfact>
</mgrwt>
</event>
<event>
12    6  0.1395358E-007  0.2149040E+04  0.7818608E-02  0.8539943E-01
          2   -1    0    0  501    0  0.00000000000E+00  0.00000000000E+00  0.14816277498E+04  0.14816277498E+04  0.00000000000E+00 0. -1.
         -1   -1    0    0    0  501 -0.00000000000E+00 -0.00000000000E+00 -0.77927352790E+03  0.77927352790E+03  0.00000000000E+00 0.  1.
         24    2    1    2    0    0 -0.75317103627E+03  0.16223489655E+03  0.74482269318E+03  0.10745691269E+04  0.79694370299E+02 0.  0.
        254    2    1    2    0    0  0.75317103627E+03 -0.16223489655E+03 -0.42468471253E+02  0.11863321508E+04  0.90110689128E+03 0.  0.
         23    2    4    4    0    0  0.39327814851E+02  0.99432229131E+02 -0.33808891433E+03  0.36539817288E+03  0.88194475662E+02 0.  0.
         23    2    4    4    0    0  0.71384322142E+03 -0.26166712568E+03  0.29562044308E+03  0.82093397795E+03  0.92191758641E+02 0.  0.
          2    1    3    3  502    0 -0.37810137102E+03  0.11478692270E+03  0.41238490002E+03  0.57113745294E+03  0.00000000000E+00 0. -1.
         -1    1    3    3    0  502 -0.37506966525E+03  0.47447973853E+02  0.33243779316E+03  0.50343167395E+03  0.00000000000E+00 0.  1.
         11    1    5    5    0    0  0.49327189428E+02  0.93219287942E+02 -0.33751805133E+03  0.35361199391E+03  0.00000000000E+00 0. -1.
        -11    1    5    5    0    0 -0.99993745774E+01  0.62129411883E+01 -0.57086300167E+00  0.11786178970E+02  0.00000000000E+00 0.  1.
          1    1    6    6  503    0  0.67506284833E+03 -0.22551089396E+03  0.28600330369E+03  0.76704817463E+03  0.00000000000E+00 0. -1.
         -1    1    6    6    0  503  0.38780373095E+02 -0.36156231718E+02  0.96171393869E+01  0.53885803320E+02  0.00000000000E+00 0.  1.
<mgrwt>
<rscale>  0 0.21490400E+04</rscale>
<asrwt>0</asrwt>
<pdfrwt beam="1">  1        2 0.22794273E+00 0.21490400E+04</pdfrwt>
<pdfrwt beam="2">  1       -1 0.11988824E+00 0.21490400E+04</pdfrwt>
<totfact> 0.84365946E+00</totfact>
</mgrwt>
</event>
<event>
12    6  0.1395358E-007  0.1513351E+04  0.7818608E-02  0.8875623E-01
          2   -1    0    0  501    0  0.00000000000E+00  0.00000000000E+00  0.19679506124E+04  0.19679506124E+04  0.00000000000E+00 0. -1.
         -1   -1    0    0    0  501 -0.00000000000E+00 -0.00000000000E+00 -0.29094117904E+03  0.29094117904E+03  0.00000000000E+00 0.  1.
         24    2    1    2    0    0 -0.20051938472E+03  0.41203162129E+03  0.77320922087E+03  0.90218475885E+03  0.78145756568E+02 0.  0.
        254    2    1    2    0    0  0.20051938472E+03 -0.41203162129E+03  0.90380021253E+03  0.13567070326E+04  0.90212031770E+03 0.  0.
         23    2    4    4    0    0  0.47468093325E+03 -0.50945652801E+03  0.68606086893E+03  0.98177341194E+03  0.91277457203E+02 0.  0.
         23    2    4    4    0    0 -0.27416154853E+03  0.97424906719E+02  0.21773934360E+03  0.37493362068E+03  0.92242240989E+02 0.  0.
          4    1    3    3  502    0 -0.11652257315E+03  0.16586569321E+03  0.38100049812E+03  0.43156728074E+03  0.00000000000E+00 0. -1.
         -3    1    3    3    0  502 -0.83996811572E+02  0.24616592807E+03  0.39220872275E+03  0.47061747811E+03  0.00000000000E+00 0.  1.
         11    1    5    5    0    0  0.28900528802E+03 -0.33545331995E+03  0.49089485242E+03  0.66108300727E+03  0.00000000000E+00 0. -1.
        -11    1    5    5    0    0  0.18567564523E+03 -0.17400320806E+03  0.19516601651E+03  0.32069040467E+03  0.00000000000E+00 0.  1.
          1    1    6    6  503    0 -0.27532282852E+02  0.31363388595E+02  0.39444342395E+01  0.41919533689E+02  0.00000000000E+00 0. -1.
         -1    1    6    6    0  503 -0.24662926568E+03  0.66061518124E+02  0.21379490936E+03  0.33301408699E+03  0.00000000000E+00 0.  1.
<mgrwt>
<rscale>  0 0.15133511E+04</rscale>
<asrwt>0</asrwt>
<pdfrwt beam="1">  1        2 0.30276162E+00 0.15133511E+04</pdfrwt>
<pdfrwt beam="2">  1       -1 0.44760183E-01 0.15133511E+04</pdfrwt>
<totfact> 0.37870487E+01</totfact>
</mgrwt>
</event>
<event>
12    6  0.1395358E-007  0.2622643E+04  0.7818608E-02  0.8360550E-01
         -1   -1    0    0    0  501 -0.00000000000E+00  0.00000000000E+00  0.23305702244E+04  0.23305702244E+04  0.00000000000E+00 0.  1.
          2   -1    0    0  501    0  0.00000000000E+00 -0.00000000000E+00 -0.73782964547E+03  0.73782964547E+03  0.00000000000E+00 0. -1.
         24    2    1    2    0    0 -0.88866761907E+03  0.62786037760E+03  0.25056026391E+03  0.11194414775E+04  0.80187185798E+02 0.  0.
        254    2    1    2    0    0  0.88866761907E+03 -0.62786037760E+03  0.13421803150E+04  0.19489583923E+04  0.90169397589E+03 0.  0.
         23    2    4    4    0    0 -0.69127846414E+02 -0.40882203462E+03  0.36127913452E+03  0.55759309072E+03  0.92050674278E+02 0.  0.
         23    2    4    4    0    0  0.95779546548E+03 -0.21903834298E+03  0.98090118049E+03  0.13913653016E+04  0.91544127583E+02 0.  0.
          2    1    3    3  502    0 -0.48350007640E+03  0.36636685948E+03  0.10432876586E+03  0.61553350112E+03  0.00000000000E+00 0. -1.
         -3    1    3    3    0  502 -0.40516754267E+03  0.26149351812E+03  0.14623149805E+03  0.50390797639E+03  0.00000000000E+00 0.  1.
         11    1    5    5    0    0 -0.71115985486E+02 -0.38991782377E+03  0.31087180458E+03  0.50372082702E+03  0.00000000000E+00 0. -1.
        -11    1    5    5    0    0  0.19881390720E+01 -0.18904210851E+02  0.50407329939E+02  0.53872263703E+02  0.00000000000E+00 0.  1.
          1    1    6    6  503    0  0.55097206687E+03 -0.88559698375E+02  0.59335378366E+03  0.81454389153E+03  0.00000000000E+00 0. -1.
         -1    1    6    6    0  503  0.40682339861E+03 -0.13047864461E+03  0.38754739683E+03  0.57682141010E+03  0.00000000000E+00 0.  1.
<mgrwt>
<rscale>  0 0.26226428E+04</rscale>
<asrwt>0</asrwt>
<pdfrwt beam="1">  1        2 0.11351225E+00 0.26226428E+04</pdfrwt>
<pdfrwt beam="2">  1       -1 0.35854926E+00 0.26226428E+04</pdfrwt>
<totfact> 0.52580886E-01</totfact>
</mgrwt>
</event>
<event>
12    6  0.1395358E-007  0.1447269E+04  0.7818608E-02  0.8920296E-01
          2   -1    0    0  501    0  0.00000000000E+00  0.00000000000E+00  0.71529131495E+03  0.71529131495E+03  0.00000000000E+00 0. -1.
         -1   -1    0    0    0  501 -0.00000000000E+00 -0.00000000000E+00 -0.73207513052E+03  0.73207513052E+03  0.00000000000E+00 0.  1.
         24    2    1    2    0    0 -0.15223688194E+03  0.86594626780E+02  0.39369912558E+03  0.44412429055E+03  0.10757642101E+03 0.  0.
        254    2    1    2    0    0  0.15223688194E+03 -0.86594626780E+02 -0.41048294116E+03  0.10032421549E+04  0.89851203599E+03 0.  0.
         23    2    4    4    0    0  0.33665236932E+03  0.27624132389E+03 -0.44223127438E+02  0.44810237361E+03  0.95895596544E+02 0.  0.
         23    2    4    4    0    0 -0.18441548738E+03 -0.36283595067E+03 -0.36625981372E+03  0.55513978132E+03  0.91514624868E+02 0.  0.
          2    1    3    3  502    0 -0.14500502490E+03  0.10931412497E+03  0.35242041747E+03  0.39645451923E+03  0.00000000000E+00 0. -1.
         -1    1    3    3    0  502 -0.72318570319E+01 -0.22719498188E+02  0.41278708113E+02  0.47669771318E+02  0.00000000000E+00 0.  1.
         11    1    5    5    0    0  0.13151830338E+03  0.13516853737E+03  0.23609974954E+02  0.19006585315E+03  0.00000000000E+00 0. -1.
        -11    1    5    5    0    0  0.20513406594E+03  0.14107278653E+03 -0.67833102392E+02  0.25803652045E+03  0.00000000000E+00 0.  1.
          4    1    6    6  503    0 -0.72786195207E+02 -0.83248099452E+02 -0.14075679806E+03  0.17899874993E+03  0.00000000000E+00 0. -1.
         -4    1    6    6    0  503 -0.11162929217E+03 -0.27958785122E+03 -0.22550301566E+03  0.37614103139E+03  0.00000000000E+00 0.  1.
<mgrwt>
<rscale>  0 0.14472691E+04</rscale>
<asrwt>0</asrwt>
<pdfrwt beam="1">  1        2 0.11004482E+00 0.14472691E+04</pdfrwt>
<pdfrwt beam="2">  1       -1 0.11262694E+00 0.14472691E+04</pdfrwt>
<totfact> 0.31874590E+01</totfact>
</mgrwt>
</event>
<event>
12    6  0.1395358E-007  0.2388645E+04  0.7818608E-02  0.8443767E-01
          2   -1    0    0  501    0  0.00000000000E+00  0.00000000000E+00  0.14473243396E+04  0.14473243396E+04  0.00000000000E+00 0. -1.
         -1   -1    0    0    0  501 -0.00000000000E+00 -0.00000000000E+00 -0.98554707149E+03  0.98554707149E+03  0.00000000000E+00 0.  1.
         24    2    1    2    0    0  0.73911145344E+02  0.99907358556E+03 -0.12841296720E+02  0.10059674120E+04  0.90524296833E+02 0.  0.
        254    2    1    2    0    0 -0.73911145344E+02 -0.99907358556E+03  0.47461856478E+03  0.14269039991E+04  0.89843272076E+03 0.  0.
         23    2    4    4    0    0  0.19107573930E+02 -0.37308063108E+03  0.65777897450E+03  0.76185874852E+03  0.90561121561E+02 0.  0.
         23    2    4    4    0    0 -0.93018719275E+02 -0.62599295448E+03 -0.18316040972E+03  0.66504525054E+03  0.90652018109E+02 0.  0.
          4    1    3    3  502    0  0.66335712290E+02  0.94483803992E+03  0.84781074923E+01  0.94720178774E+03  0.00000000000E+00 0. -1.
         -3    1    3    3    0  502  0.75754330542E+01  0.54235545640E+02 -0.21319404212E+02  0.58765624244E+02  0.00000000000E+00 0.  1.
         11    1    5    5    0    0  0.48530348034E+01 -0.45198054207E+01 -0.11440429896E+01  0.67297416151E+01  0.00000000000E+00 0.  1.
        -11    1    5    5    0    0  0.14254539127E+02 -0.36856082566E+03  0.65892301748E+03  0.75512900690E+03  0.00000000000E+00 0. -1.
          3    1    6    6  503    0 -0.56270912191E+01 -0.34377841627E+03 -0.93766278164E+02  0.35638094586E+03  0.00000000000E+00 0. -1.
         -3    1    6    6    0  503 -0.87391628056E+02 -0.28221453821E+03 -0.89394131551E+02  0.30866430469E+03  0.00000000000E+00 0.  1.
<mgrwt>
<rscale>  0 0.23886450E+04</rscale>
<asrwt>0</asrwt>
<pdfrwt beam="1">  1        2 0.22266528E+00 0.23886450E+04</pdfrwt>
<pdfrwt beam="2">  1       -1 0.15162263E+00 0.23886450E+04</pdfrwt>
<totfact> 0.47251936E+00</totfact>
</mgrwt>
</event>
<event>
12    6  0.1395358E-007  0.3390302E+04  0.7818608E-02  0.8140291E-01
          2   -1    0    0  501    0  0.00000000000E+00  0.00000000000E+00  0.19057812976E+04  0.19057812976E+04  0.00000000000E+00 0. -1.
         -1   -1    0    0    0  501 -0.00000000000E+00 -0.00000000000E+00 -0.15078002982E+04  0.15078002982E+04  0.00000000000E+00 0.  1.
         24    2    1    2    0    0 -0.83726041018E+02 -0.78050878167E+03 -0.11893327395E+04  0.14273308907E+04  0.80975910450E+02 0.  0.
        254    2    1    2    0    0  0.83726041018E+02  0.78050878167E+03  0.15873137389E+04  0.19862507052E+04  0.89967935945E+03 0.  0.
         23    2    4    4    0    0 -0.36308471473E+03  0.12373905156E+03  0.49332255673E+03  0.63114366315E+03  0.88506020151E+02 0.  0.
         23    2    4    4    0    0  0.44681075575E+03  0.65676973011E+03  0.10939911822E+04  0.13551070420E+04  0.92260819362E+02 0.  0.
          2    1    3    3  502    0 -0.61809647747E+01 -0.19155283788E+03 -0.23534641268E+03  0.30351050721E+03  0.00000000000E+00 0. -1.
         -1    1    3    3    0  502 -0.77545076244E+02 -0.58895594379E+03 -0.95398632680E+03  0.11238203835E+04  0.00000000000E+00 0.  1.
         11    1    5    5    0    0 -0.75786008133E+02  0.66163307746E+02  0.13068370087E+03  0.16492219982E+03  0.00000000000E+00 0.  1.
        -11    1    5    5    0    0 -0.28729870660E+03  0.57575743809E+02  0.36263885586E+03  0.46622146332E+03  0.00000000000E+00 0. -1.
          3    1    6    6  503    0  0.29717408327E+03  0.44305245588E+03  0.80546219776E+03  0.96611452036E+03  0.00000000000E+00 0. -1.
         -3    1    6    6    0  503  0.14963667247E+03  0.21371727423E+03  0.28852898444E+03  0.38899252167E+03  0.00000000000E+00 0.  1.
<mgrwt>
<rscale>  0 0.33903024E+04</rscale>
<asrwt>0</asrwt>
<pdfrwt beam="1">  1        2 0.29319712E+00 0.33903024E+04</pdfrwt>
<pdfrwt beam="2">  1       -1 0.23196928E+00 0.33903024E+04</pdfrwt>
<totfact> 0.65123086E-01</totfact>
</mgrwt>
</event>
<event>
12    6  0.1395358E-007  0.4321961E+04  0.7818608E-02  0.7942570E-01
          2   -1    0    0  501    0  0.00000000000E+00  0.00000000000E+00  0.35287563818E+04  0.35287563818E+04  0.00000000000E+00 0. -1.
         -1   -1    0    0    0  501 -0.00000000000E+00 -0.00000000000E+00 -0.13233658952E+04  0.13233658952E+04  0.00000000000E+00 0.  1.
         24    2    1    2    0    0  0.30577766722E+02 -0.13582015724E+04 -0.69275091958E+03  0.15271809489E+04  0.82044517690E+02 0.  0.
        254    2    1    2    0    0 -0.30577766722E+02  0.13582015724E+04  0.28981414061E+04  0.33249413281E+04  0.90020259624E+03 0.  0.
         23    2    4    4    0    0 -0.22753488763E+03  0.28867628258E+01  0.31061266991E+03  0.39571791307E+03  0.91279666547E+02 0.  0.
         23    2    4    4    0    0  0.19695712091E+03  0.13553148096E+04  0.25875287362E+04  0.29292234150E+04  0.96822073116E+02 0.  0.
          4    1    3    3  502    0  0.30274878550E+02 -0.10998486636E+04 -0.52462838350E+03  0.12189415867E+04  0.00000000000E+00 0. -1.
         -3    1    3    3    0  502  0.30288817199E+00 -0.25835290887E+03 -0.16812253608E+03  0.30823936218E+03  0.00000000000E+00 0.  1.
         11    1    5    5    0    0 -0.57815624134E+02  0.19634325246E+02  0.31700697341E+02  0.68797436971E+02  0.00000000000E+00 0.  1.
        -11    1    5    5    0    0 -0.16971926350E+03 -0.16747562420E+02  0.27891197257E+03  0.32692047609E+03  0.00000000000E+00 0. -1.
          1    1    6    6  503    0  0.80264558527E+02  0.83420976557E+03  0.15284911823E+04  0.17431676990E+04  0.00000000000E+00 0. -1.
         -1    1    6    6    0  503  0.11669256238E+03  0.52110504404E+03  0.10590375539E+04  0.11860557161E+04  0.00000000000E+00 0.  1.
<mgrwt>
<rscale>  0 0.43219606E+04</rscale>
<asrwt>0</asrwt>
<pdfrwt beam="1">  1        2 0.54288559E+00 0.43219606E+04</pdfrwt>
<pdfrwt beam="2">  1       -1 0.20359475E+00 0.43219606E+04</pdfrwt>
<totfact> 0.96057144E-02</totfact>
</mgrwt>
</event>
<event>
12    6  0.1395358E-007  0.1090881E+04  0.7818608E-02  0.9214126E-01
         -1   -1    0    0    0  501 -0.00000000000E+00  0.00000000000E+00  0.17772923631E+03  0.17772923631E+03  0.00000000000E+00 0.  1.
          2   -1    0    0  501    0  0.00000000000E+00 -0.00000000000E+00 -0.16739230879E+04  0.16739230879E+04  0.00000000000E+00 0. -1.
         24    2    1    2    0    0  0.33473480327E+02 -0.79345414814E+02 -0.20020390413E+02  0.12051001115E+03  0.81888204387E+02 0.  0.
        254    2    1    2    0    0 -0.33473480327E+02  0.79345414814E+02 -0.14761734612E+04  0.17311423131E+04  0.90019411897E+03 0.  0.
         23    2    4    4    0    0  0.32131938352E+03 -0.18628151682E+03 -0.10166110130E+04  0.10859150818E+04  0.88128676133E+02 0.  0.
         23    2    4    4    0    0 -0.35479286384E+03  0.26562693164E+03 -0.45956244825E+03  0.64522723125E+03  0.93192773629E+02 0.  0.
          4    1    3    3  502    0 -0.19854953629E+02 -0.33664283964E+02 -0.30418256007E+02  0.49525483309E+02  0.00000000000E+00 0. -1.
         -3    1    3    3    0  502  0.53328433956E+02 -0.45681130850E+02  0.10397865594E+02  0.70984527841E+02  0.00000000000E+00 0.  1.
         11    1    5    5    0    0  0.32435205428E+03 -0.18140650739E+03 -0.96669106173E+03  0.10356660586E+04  0.00000000000E+00 0. -1.
        -11    1    5    5    0    0 -0.30326707627E+01 -0.48750094366E+01 -0.49919951220E+02  0.50249023262E+02  0.00000000000E+00 0.  1.
          1    1    6    6  503    0 -0.32062730192E+03  0.23635513208E+03 -0.36395707348E+03  0.53956497897E+03  0.00000000000E+00 0. -1.
         -1    1    6    6    0  503 -0.34165561924E+02  0.29271799558E+02 -0.95605374773E+02  0.10566225228E+03  0.00000000000E+00 0.  1.
<mgrwt>
<rscale>  0 0.10908805E+04</rscale>
<asrwt>0</asrwt>
<pdfrwt beam="1">  1        2 0.25752663E+00 0.10908805E+04</pdfrwt>
<pdfrwt beam="2">  1       -1 0.27342959E-01 0.10908805E+04</pdfrwt>
<totfact> 0.13769288E+02</totfact>
</mgrwt>
</event>
<event>
12    6  0.1395358E-007  0.1261235E+04  0.7818608E-02  0.9060883E-01
          2   -1    0    0  501    0  0.00000000000E+00  0.00000000000E+00  0.51893032081E+03  0.51893032081E+03  0.00000000000E+00 0. -1.
         -1   -1    0    0    0  501 -0.00000000000E+00 -0.00000000000E+00 -0.76634324168E+03  0.76634324168E+03  0.00000000000E+00 0.  1.
         24    2    1    2    0    0  0.40720171445E+02  0.28858828364E+02 -0.36302651946E+03  0.37487299585E+03  0.79060387367E+02 0.  0.
        254    2    1    2    0    0 -0.40720171445E+02 -0.28858828364E+02  0.11561359859E+03  0.91040056663E+03  0.90164944586E+03 0.  0.
         23    2    4    4    0    0 -0.43700253825E+03 -0.16212557927E+03  0.54647235600E+02  0.47815425960E+03  0.91592869423E+02 0.  0.
         23    2    4    4    0    0  0.39628236680E+03  0.13326675091E+03  0.60966362993E+02  0.43224630703E+03  0.91215302372E+02 0.  0.
          2    1    3    3  502    0  0.27579658624E+02 -0.69227090732E+00 -0.31917154719E+02  0.42187931617E+02  0.00000000000E+00 0. -1.
         -3    1    3    3    0  502  0.13140512821E+02  0.29551099271E+02 -0.33110936474E+03  0.33268506424E+03  0.00000000000E+00 0.  1.
         11    1    5    5    0    0 -0.10687306637E+03 -0.56639819466E+02 -0.22673552632E+02  0.12306100704E+03  0.00000000000E+00 0.  1.
        -11    1    5    5    0    0 -0.33012947188E+03 -0.10548575981E+03  0.77320788232E+02  0.35509325257E+03  0.00000000000E+00 0. -1.
          4    1    6    6  503    0  0.20081984306E+03  0.37474095074E+02 -0.63999583949E+01  0.20438658624E+03  0.00000000000E+00 0. -1.
         -4    1    6    6    0  503  0.19546252375E+03  0.95792655834E+02  0.67366321388E+02  0.22785972079E+03  0.00000000000E+00 0.  1.
<mgrwt>
<rscale>  0 0.12612355E+04</rscale>
<asrwt>0</asrwt>
<pdfrwt beam="1">  1        2 0.79835434E-01 0.12612355E+04</pdfrwt>
<pdfrwt beam="2">  1       -1 0.11789896E+00 0.12612355E+04</pdfrwt>
<totfact> 0.42843582E+01</totfact>
</mgrwt>
</event>
<event>
12    6  0.1395358E-007  0.2318300E+04  0.7818608E-02  0.8470740E-01
          2   -1    0    0  501    0  0.00000000000E+00  0.00000000000E+00  0.34647508047E+04  0.34647508047E+04  0.00000000000E+00 0. -1.
         -1   -1    0    0    0  501 -0.00000000000E+00 -0.00000000000E+00 -0.38779959254E+03  0.38779959254E+03  0.00000000000E+00 0.  1.
         24    2    1    2    0    0 -0.39173324490E+03  0.70785330904E+03  0.22387912411E+04  0.23818207278E+04  0.79828038468E+02 0.  0.
        254    2    1    2    0    0  0.39173324490E+03 -0.70785330904E+03  0.83815997112E+03  0.14707296695E+04  0.89778749231E+03 0.  0.
         23    2    4    4    0    0  0.59435682813E+03 -0.41197265589E+03  0.82390365239E+03  0.11001632216E+04  0.92522307147E+02 0.  0.
         23    2    4    4    0    0 -0.20262358323E+03 -0.29588065315E+03  0.14256318725E+02  0.37056644795E+03  0.92274440312E+02 0.  0.
          2    1    3    3  502    0 -0.21461373571E+03  0.46325419012E+03  0.14426228803E+04  0.15303020209E+04  0.00000000000E+00 0. -1.
         -1    1    3    3    0  502 -0.17711950919E+03  0.24459911891E+03  0.79616836076E+03  0.85151870689E+03  0.00000000000E+00 0.  1.
         11    1    5    5    0    0  0.31249231760E+03 -0.27084591781E+03  0.45143708222E+03  0.61221270728E+03  0.00000000000E+00 0. -1.
        -11    1    5    5    0    0  0.28186451053E+03 -0.14112673808E+03  0.37246657017E+03  0.48795051428E+03  0.00000000000E+00 0.  1.
          3    1    6    6  503    0 -0.15685552597E+03 -0.15324777889E+03 -0.62090402688E+01  0.21937887305E+03  0.00000000000E+00 0. -1.
         -3    1    6    6    0  503 -0.45768057266E+02 -0.14263287426E+03  0.20465358994E+02  0.15118757490E+03  0.00000000000E+00 0.  1.
<mgrwt>
<rscale>  0 0.23183002E+04</rscale>
<asrwt>0</asrwt>
<pdfrwt beam="1">  1        2 0.53303857E+00 0.23183002E+04</pdfrwt>
<pdfrwt beam="2">  1       -1 0.59661478E-01 0.23183002E+04</pdfrwt>
<totfact> 0.25296287E+00</totfact>
</mgrwt>
</event>
<event>
12    6  0.1395358E-007  0.1345770E+04  0.7818608E-02  0.8994036E-01
         -1   -1    0    0    0  501 -0.00000000000E+00  0.00000000000E+00  0.10542047961E+04  0.10542047961E+04  0.00000000000E+00 0.  1.
          2   -1    0    0  501    0  0.00000000000E+00 -0.00000000000E+00 -0.42949384425E+03  0.42949384425E+03  0.00000000000E+00 0. -1.
         24    2    1    2    0    0  0.11115567776E+02  0.36464744390E+03  0.17567163048E+03  0.41327919440E+03  0.82751776901E+02 0.  0.
        254    2    1    2    0    0 -0.11115567776E+02 -0.36464744390E+03  0.44903932138E+03  0.10704194460E+04  0.90059433930E+03 0.  0.
         23    2    4    4    0    0 -0.13944084510E+03 -0.42292993369E+03  0.66043920620E+03  0.80068715597E+03  0.81280370133E+02 0.  0.
         23    2    4    4    0    0  0.12832527733E+03  0.58282489790E+02 -0.21139988481E+03  0.26973229000E+03  0.90561424183E+02 0.  0.
          4    1    3    3  502    0  0.32239567862E+02  0.33761134057E+03  0.16622548530E+03  0.37769262500E+03  0.00000000000E+00 0. -1.
         -3    1    3    3    0  502 -0.21124000086E+02  0.27036103327E+02  0.94461451807E+01  0.35586569398E+02  0.00000000000E+00 0.  1.
         11    1    5    5    0    0 -0.43009077649E+02 -0.17938164656E+03  0.20905749422E+03  0.27880565234E+03  0.00000000000E+00 0. -1.
        -11    1    5    5    0    0 -0.96431767453E+02 -0.24354828713E+03  0.45138171197E+03  0.52188150364E+03  0.00000000000E+00 0.  1.
          1    1    6    6  503    0  0.22771748959E+02  0.32273366296E+02 -0.98099161771E+01  0.40698368249E+02  0.00000000000E+00 0. -1.
         -1    1    6    6    0  503  0.10555352837E+03  0.26009123494E+02 -0.20158996864E+03  0.22903392175E+03  0.00000000000E+00 0.  1.
<mgrwt>
<rscale>  0 0.13457704E+04</rscale>
<asrwt>0</asrwt>
<pdfrwt beam="1">  1        2 0.66075976E-01 0.13457704E+04</pdfrwt>
<pdfrwt beam="2">  1       -1 0.16218535E+00 0.13457704E+04</pdfrwt>
<totfact> 0.23067966E+01</totfact>
</mgrwt>
</event>
<event>
12    6  0.1395358E-007  0.2869083E+04  0.7818608E-02  0.8282136E-01
         -1   -1    0    0    0  501 -0.00000000000E+00  0.00000000000E+00  0.17036147308E+04  0.17036147308E+04  0.00000000000E+00 0.  1.
          2   -1    0    0  501    0  0.00000000000E+00 -0.00000000000E+00 -0.12079663003E+04  0.12079663003E+04  0.00000000000E+00 0. -1.
         24    2    1    2    0    0  0.78711123885E+03  0.29405019795E+03 -0.77242748842E+03  0.11441480455E+04  0.80130542963E+02 0.  0.
        254    2    1    2    0    0 -0.78711123885E+03 -0.29405019795E+03  0.12680759189E+04  0.17674329856E+04  0.89988510449E+03 0.  0.
         23    2    4    4    0    0 -0.29704119161E+03 -0.17263849005E+02  0.11429520318E+04  0.11847081863E+04  0.93073248785E+02 0.  0.
         23    2    4    4    0    0 -0.49007004723E+03 -0.27678634894E+03  0.12512388705E+03  0.58272479928E+03  0.84456322633E+02 0.  0.
          4    1    3    3  502    0  0.58600650831E+03  0.19245299079E+03 -0.59932267671E+03  0.86001712324E+03  0.00000000000E+00 0. -1.
         -3    1    3    3    0  502  0.20110473054E+03  0.10159720715E+03 -0.17310481172E+03  0.28413092226E+03  0.00000000000E+00 0.  1.
         11    1    5    5    0    0 -0.22853698632E+03  0.82279814067E+01  0.97640049048E+03  0.10028234000E+04  0.00000000000E+00 0.  1.
        -11    1    5    5    0    0 -0.68504205295E+02 -0.25491830412E+02  0.16655154135E+03  0.18188478630E+03  0.00000000000E+00 0. -1.
          2    1    6    6  503    0 -0.69875727699E+02 -0.16482723152E+02 -0.38178285297E+01  0.71894876721E+02  0.00000000000E+00 0. -1.
         -2    1    6    6    0  503 -0.42019431953E+03 -0.26030362579E+03  0.12894171558E+03  0.51082992256E+03  0.00000000000E+00 0.  1.
<mgrwt>
<rscale>  0 0.28690829E+04</rscale>
<asrwt>0</asrwt>
<pdfrwt beam="1">  1        2 0.18584097E+00 0.28690829E+04</pdfrwt>
<pdfrwt beam="2">  1       -1 0.26209457E+00 0.28690829E+04</pdfrwt>
<totfact> 0.10738952E+00</totfact>
</mgrwt>
</event>
<event>
12    6  0.1395358E-007  0.1737661E+04  0.7818608E-02  0.8740172E-01
         -1   -1    0    0    0  501 -0.00000000000E+00  0.00000000000E+00  0.92183092797E+03  0.92183092797E+03  0.00000000000E+00 0.  1.
          2   -1    0    0  501    0  0.00000000000E+00 -0.00000000000E+00 -0.81887718235E+03  0.81887718235E+03  0.00000000000E+00 0. -1.
         24    2    1    2    0    0 -0.37829910092E+03  0.32631819089E+03 -0.35127115132E+03  0.61596849550E+03  0.80199714704E+02 0.  0.
        254    2    1    2    0    0  0.37829910092E+03 -0.32631819089E+03  0.45422489694E+03  0.11247396148E+04  0.89951385353E+03 0.  0.
         23    2    4    4    0    0 -0.15695139854E+03 -0.26300441522E+03  0.48271971486E+03  0.57887199704E+03  0.90936251929E+02 0.  0.
         23    2    4    4    0    0  0.53525049946E+03 -0.63313775669E+02 -0.28494817923E+02  0.54586761778E+03  0.81595159950E+02 0.  0.
          2    1    3    3  502    0 -0.16456796228E+03  0.94545035940E+02 -0.15013727167E+03  0.24199706274E+03  0.00000000000E+00 0. -1.
         -1    1    3    3    0  502 -0.21373113864E+03  0.23177315495E+03 -0.20113387965E+03  0.37397143276E+03  0.00000000000E+00 0.  1.
         11    1    5    5    0    0 -0.10514644020E+03 -0.22150985023E+03  0.32003776139E+03  0.40317062933E+03  0.00000000000E+00 0. -1.
        -11    1    5    5    0    0 -0.51804958339E+02 -0.41494564992E+02  0.16268195347E+03  0.17570136772E+03  0.00000000000E+00 0.  1.
          3    1    6    6  503    0  0.47976593164E+03 -0.65949795658E+02 -0.18979173310E+01  0.48428124763E+03  0.00000000000E+00 0. -1.
         -3    1    6    6    0  503  0.55484567821E+02  0.26360199896E+01 -0.26596900592E+02  0.61586370154E+02  0.00000000000E+00 0.  1.
<mgrwt>
<rscale>  0 0.17376609E+04</rscale>
<asrwt>0</asrwt>
<pdfrwt beam="1">  1        2 0.12598110E+00 0.17376609E+04</pdfrwt>
<pdfrwt beam="2">  1       -1 0.14182014E+00 0.17376609E+04</pdfrwt>
<totfact> 0.14651594E+01</totfact>
</mgrwt>
</event>
<event>
12    6  0.1395358E-007  0.1170991E+04  0.7818608E-02  0.9138634E-01
          2   -1    0    0  501    0  0.00000000000E+00  0.00000000000E+00  0.80996516001E+03  0.80996516001E+03  0.00000000000E+00 0. -1.
         -3   -1    0    0    0  501 -0.00000000000E+00 -0.00000000000E+00 -0.42323397802E+03  0.42323397802E+03  0.00000000000E+00 0.  1.
         24    2    1    2    0    0  0.15672079190E+03 -0.65728955300E+02  0.24845987623E+03  0.31097254251E+03  0.78037874908E+02 0.  0.
        254    2    1    2    0    0 -0.15672079190E+03  0.65728955300E+02  0.13827130575E+03  0.92222659552E+03  0.89582433395E+03 0.  0.
         23    2    4    4    0    0  0.36642184970E+03  0.45537341041E+02  0.56346849567E+02  0.38442026105E+03  0.90913960892E+02 0.  0.
         23    2    4    4    0    0 -0.52314264160E+03  0.20191614259E+02  0.81924456187E+02  0.53780633446E+03  0.91859197240E+02 0.  0.
          4    1    3    3  502    0  0.12114598721E+03 -0.41810287436E+02  0.23201709515E+03  0.26505920620E+03  0.00000000000E+00 0. -1.
         -3    1    3    3    0  502  0.35574804693E+02 -0.23918667864E+02  0.16442781086E+02  0.45913336310E+02  0.00000000000E+00 0.  1.
         11    1    5    5    0    0  0.34643831936E+03  0.64657272049E+02  0.55390551287E+02  0.35674666799E+03  0.00000000000E+00 0.  1.
        -11    1    5    5    0    0  0.19983530341E+02 -0.19119931009E+02  0.95629827957E+00  0.27673593064E+02  0.00000000000E+00 0. -1.
          4    1    6    6  503    0 -0.20857698853E+03  0.12196466316E+01 -0.12129848135E+02  0.20893295791E+03  0.00000000000E+00 0. -1.
         -4    1    6    6    0  503 -0.31456565307E+03  0.18971967628E+02  0.94054304322E+02  0.32887337656E+03  0.00000000000E+00 0.  1.
<mgrwt>
<rscale>  0 0.11709907E+04</rscale>
<asrwt>0</asrwt>
<pdfrwt beam="1">  1        2 0.12461003E+00 0.11709907E+04</pdfrwt>
<pdfrwt beam="2">  1       -3 0.65112919E-01 0.11709907E+04</pdfrwt>
<totfact> 0.48503101E+01</totfact>
</mgrwt>
</event>
<event>
12    6  0.1395358E-007  0.2486440E+04  0.7818608E-02  0.8407832E-01
          2   -1    0    0  501    0  0.00000000000E+00  0.00000000000E+00  0.38128844322E+04  0.38128844322E+04  0.00000000000E+00 0. -1.
         -1   -1    0    0    0  501 -0.00000000000E+00 -0.00000000000E+00 -0.40536121500E+03  0.40536121500E+03  0.00000000000E+00 0.  1.
         24    2    1    2    0    0  0.71864823238E+03  0.56992753088E+03  0.51870795466E+03  0.10565513719E+04  0.77266984559E+02 0.  0.
        254    2    1    2    0    0 -0.71864823238E+03 -0.56992753088E+03  0.28888152625E+04  0.31616942753E+04  0.89988021253E+03 0.  0.
         23    2    4    4    0    0 -0.84235193319E+03 -0.26612649233E+03  0.24492333330E+04  0.26056742360E+04  0.10205006487E+03 0.  0.
         23    2    4    4    0    0  0.12370370081E+03 -0.30380103855E+03  0.43958192958E+03  0.55602003926E+03  0.91259709747E+02 0.  0.
          4    1    3    3  502    0  0.32574847825E+03  0.22578529876E+03  0.25668226126E+03  0.47220425185E+03  0.00000000000E+00 0. -1.
         -1    1    3    3    0  502  0.39289975413E+03  0.34414223212E+03  0.26202569340E+03  0.58434712007E+03  0.00000000000E+00 0.  1.
         11    1    5    5    0    0 -0.21912664552E+03 -0.34083855419E+02  0.70024931140E+03  0.73452521679E+03  0.00000000000E+00 0. -1.
        -11    1    5    5    0    0 -0.62322528766E+03 -0.23204263691E+03  0.17489840216E+04  0.18711490192E+04  0.00000000000E+00 0.  1.
          4    1    6    6  503    0  0.58527827204E+01  0.42662763259E+01  0.26148394220E+02  0.27132908055E+02  0.00000000000E+00 0. -1.
         -4    1    6    6    0  503  0.11785091809E+03 -0.30806731488E+03  0.41343353536E+03  0.52888713120E+03  0.00000000000E+00 0.  1.
<mgrwt>
<rscale>  0 0.24864396E+04</rscale>
<asrwt>0</asrwt>
<pdfrwt beam="1">  1        2 0.58659758E+00 0.24864396E+04</pdfrwt>
<pdfrwt beam="2">  1       -1 0.62363266E-01 0.24864396E+04</pdfrwt>
<totfact> 0.12749191E+00</totfact>
</mgrwt>
</event>
<event>
12    6  0.1395358E-007  0.1980322E+04  0.7818608E-02  0.8615876E-01
          2   -1    0    0  501    0  0.00000000000E+00  0.00000000000E+00  0.27593498416E+04  0.27593498416E+04  0.00000000000E+00 0. -1.
         -1   -1    0    0    0  501 -0.00000000000E+00 -0.00000000000E+00 -0.35530797537E+03  0.35530797537E+03  0.00000000000E+00 0.  1.
         24    2    1    2    0    0 -0.75657099980E+03  0.94398679087E+02  0.12289044896E+04  0.14485253510E+04  0.81906407736E+02 0.  0.
        254    2    1    2    0    0  0.75657099980E+03 -0.94398679087E+02  0.11751373766E+04  0.16661324660E+04  0.90207469305E+03 0.  0.
         23    2    4    4    0    0 -0.46019868776E+02 -0.15052974049E+02 -0.10675705235E+03  0.14866446368E+03  0.91431035137E+02 0.  0.
         23    2    4    4    0    0  0.80259086857E+03 -0.79345705038E+02  0.12818944290E+04  0.15174680023E+04  0.94910313860E+02 0.  0.
          4    1    3    3  502    0 -0.52745761983E+03  0.10285337687E+03  0.84763330338E+03  0.10036297001E+04  0.00000000000E+00 0. -1.
         -3    1    3    3    0  502 -0.22911337996E+03 -0.84546977805E+01  0.38127118625E+03  0.44489565098E+03  0.00000000000E+00 0.  1.
         11    1    5    5    0    0 -0.14356691718E+02 -0.16717207501E+02 -0.11402541739E+03  0.11613516020E+03  0.00000000000E+00 0.  1.
        -11    1    5    5    0    0 -0.31663177058E+02  0.16642334528E+01  0.72683650455E+01  0.32529303479E+02  0.00000000000E+00 0. -1.
          1    1    6    6  503    0  0.73671022701E+03 -0.55770426771E+02  0.11280921085E+04  0.13484969798E+04  0.00000000000E+00 0. -1.
         -1    1    6    6    0  503  0.65880641566E+02 -0.23575278267E+02  0.15380232045E+03  0.16897102253E+03  0.00000000000E+00 0.  1.
<mgrwt>
<rscale>  0 0.19803222E+04</rscale>
<asrwt>0</asrwt>
<pdfrwt beam="1">  1        2 0.42451535E+00 0.19803222E+04</pdfrwt>
<pdfrwt beam="2">  1       -1 0.54662767E-01 0.19803222E+04</pdfrwt>
<totfact> 0.87758392E+00</totfact>
</mgrwt>
</event>
<event>
12    6  0.1395358E-007  0.3393730E+04  0.7818608E-02  0.8139447E-01
         -1   -1    0    0    0  501 -0.00000000000E+00  0.00000000000E+00  0.21394578666E+04  0.21394578666E+04  0.00000000000E+00 0.  1.
          2   -1    0    0  501    0  0.00000000000E+00 -0.00000000000E+00 -0.13458318008E+04  0.13458318008E+04  0.00000000000E+00 0. -1.
         24    2    1    2    0    0  0.52638575813E+03 -0.14553235144E+04  0.68164769820E+03  0.16929278585E+04  0.79452197080E+02 0.  0.
        254    2    1    2    0    0 -0.52638575813E+03  0.14553235144E+04  0.11197836756E+03  0.17923618089E+04  0.89720298772E+03 0.  0.
         23    2    4    4    0    0  0.17164311647E+03  0.45671274360E+03 -0.19497639374E+03  0.53258236796E+03  0.87064889335E+02 0.  0.
         23    2    4    4    0    0 -0.69802887460E+03  0.99861077081E+03  0.30695476130E+03  0.12597794409E+04  0.91406963113E+02 0.  0.
          2    1    3    3  502    0  0.23615237494E+03 -0.54741194731E+03  0.24661020093E+03  0.64517003608E+03  0.00000000000E+00 0. -1.
         -1    1    3    3    0  502  0.29023338320E+03 -0.90791156710E+03  0.43503749727E+03  0.10477578224E+04  0.00000000000E+00 0.  1.
         11    1    5    5    0    0  0.13123985599E+03  0.26697571844E+03 -0.84134020909E+02  0.30915767419E+03  0.00000000000E+00 0.  1.
        -11    1    5    5    0    0  0.40403260480E+02  0.18973702516E+03 -0.11084237283E+03  0.22342469378E+03  0.00000000000E+00 0. -1.
          4    1    6    6  503    0 -0.40244375470E+03  0.65162317157E+03  0.20064765182E+03  0.79172799218E+03  0.00000000000E+00 0. -1.
         -4    1    6    6    0  503 -0.29558511990E+03  0.34698759925E+03  0.10630710948E+03  0.46805144874E+03  0.00000000000E+00 0.  1.
<mgrwt>
<rscale>  0 0.33937298E+04</rscale>
<asrwt>0</asrwt>
<pdfrwt beam="1">  1        2 0.20705105E+00 0.33937298E+04</pdfrwt>
<pdfrwt beam="2">  1       -1 0.32914736E+00 0.33937298E+04</pdfrwt>
<totfact> 0.31287612E-01</totfact>
</mgrwt>
</event>
<event>
12    6  0.1395358E-007  0.4437427E+04  0.7818608E-02  0.7921684E-01
          2   -1    0    0  501    0  0.00000000000E+00  0.00000000000E+00  0.23092426831E+04  0.23092426831E+04  0.00000000000E+00 0. -1.
         -1   -1    0    0    0  501 -0.00000000000E+00 -0.00000000000E+00 -0.21317337688E+04  0.21317337688E+04  0.00000000000E+00 0.  1.
         24    2    1    2    0    0  0.13485859977E+03  0.12111811065E+04 -0.16590162737E+04  0.20600944637E+04  0.80670243177E+02 0.  0.
        254    2    1    2    0    0 -0.13485859977E+03 -0.12111811065E+04  0.18365251880E+04  0.23808819882E+04  0.90034868849E+03 0.  0.
         23    2    4    4    0    0 -0.20448667191E+02 -0.34088676989E+03  0.11677449588E+02  0.35332672721E+03  0.89897026970E+02 0.  0.
         23    2    4    4    0    0 -0.11440993258E+03 -0.87029433665E+03  0.18248477385E+04  0.20275552610E+04  0.10202550135E+03 0.  0.
          2    1    3    3  502    0  0.67696947191E+02  0.35393965909E+03 -0.45050835110E+03  0.57690028025E+03  0.00000000000E+00 0. -1.
         -1    1    3    3    0  502  0.67161652584E+02  0.85724144744E+03 -0.12085079226E+04  0.14831941835E+04  0.00000000000E+00 0.  1.
         11    1    5    5    0    0 -0.36102269575E+02 -0.30967372461E+03 -0.10523016381E+02  0.31194859105E+03  0.00000000000E+00 0.  1.
        -11    1    5    5    0    0  0.15653602383E+02 -0.31213045274E+02  0.22200465969E+02  0.41378136161E+02  0.00000000000E+00 0. -1.
          4    1    6    6  503    0 -0.10767097257E+03 -0.86899078985E+03  0.18178647653E+04  0.20177636968E+04  0.00000000000E+00 0.  1.
         -4    1    6    6    0  503 -0.67389600108E+01 -0.13035468013E+01  0.69829731769E+01  0.97915642611E+01  0.00000000000E+00 0. -1.
<mgrwt>
<rscale>  0 0.44374275E+04</rscale>
<asrwt>0</asrwt>
<pdfrwt beam="1">  1        2 0.35526810E+00 0.44374275E+04</pdfrwt>
<pdfrwt beam="2">  1       -1 0.32795904E+00 0.44374275E+04</pdfrwt>
<totfact> 0.84231592E-02</totfact>
</mgrwt>
</event>
<event>
12    6  0.1395358E-007  0.1572536E+04  0.7818608E-02  0.8837600E-01
          2   -1    0    0  501    0  0.00000000000E+00  0.00000000000E+00  0.22741936416E+04  0.22741936416E+04  0.00000000000E+00 0. -1.
         -1   -1    0    0    0  501 -0.00000000000E+00 -0.00000000000E+00 -0.27184015621E+03  0.27184015621E+03  0.00000000000E+00 0.  1.
         24    2    1    2    0    0 -0.11259857944E+03  0.28943524404E+03  0.13607437992E+04  0.13971659423E+04  0.63228021744E+02 0.  0.
        254    2    1    2    0    0  0.11259857944E+03 -0.28943524404E+03  0.64160968623E+03  0.11488678555E+04  0.90099009950E+03 0.  0.
         23    2    4    4    0    0  0.44260476976E+03  0.31350718982E+01  0.50399107313E+03  0.67720840363E+03  0.93249178308E+02 0.  0.
         23    2    4    4    0    0 -0.33000619032E+03 -0.29257031594E+03  0.13761861309E+03  0.47165945190E+03  0.94985685623E+02 0.  0.
          4    1    3    3  502    0 -0.91206035450E+02  0.23142323360E+03  0.11860198789E+04  0.12118244127E+04  0.00000000000E+00 0. -1.
         -3    1    3    3    0  502 -0.21392543988E+02  0.58012010446E+02  0.17472392022E+03  0.18534152959E+03  0.00000000000E+00 0.  1.
         11    1    5    5    0    0  0.59060350105E+02 -0.31798041184E+02  0.80482676902E+02  0.10476975546E+03  0.00000000000E+00 0.  1.
        -11    1    5    5    0    0  0.38354441965E+03  0.34933113082E+02  0.42350839623E+03  0.57243864817E+03  0.00000000000E+00 0. -1.
          1    1    6    6  503    0 -0.15874477563E+03 -0.17561912998E+03  0.11457042293E+03  0.26299879166E+03  0.00000000000E+00 0. -1.
         -1    1    6    6    0  503 -0.17126141469E+03 -0.11695118597E+03  0.23048190161E+02  0.20866066024E+03  0.00000000000E+00 0.  1.
<mgrwt>
<rscale>  0 0.15725357E+04</rscale>
<asrwt>0</asrwt>
<pdfrwt beam="1">  1        2 0.34987593E+00 0.15725357E+04</pdfrwt>
<pdfrwt beam="2">  1       -1 0.41821564E-01 0.15725357E+04</pdfrwt>
<totfact> 0.28830134E+01</totfact>
</mgrwt>
</event>
<event>
12    6  0.1395358E-007  0.1984518E+04  0.7818608E-02  0.8613893E-01
         -1   -1    0    0    0  501 -0.00000000000E+00  0.00000000000E+00  0.55679684857E+03  0.55679684857E+03  0.00000000000E+00 0.  1.
          2   -1    0    0  501    0  0.00000000000E+00 -0.00000000000E+00 -0.17682894028E+04  0.17682894028E+04  0.00000000000E+00 0. -1.
         24    2    1    2    0    0 -0.74977749878E+03  0.20035196883E+03 -0.33707992046E+03  0.84989440421E+03  0.79940080283E+02 0.  0.
        254    2    1    2    0    0  0.74977749878E+03 -0.20035196883E+03 -0.87441263373E+03  0.14751918471E+04  0.89960342523E+03 0.  0.
         23    2    4    4    0    0  0.90116770398E+03  0.20213725077E+02 -0.64697718663E+03  0.11133350692E+04  0.91780559006E+02 0.  0.
         23    2    4    4    0    0 -0.15139020520E+03 -0.22056569391E+03 -0.22743544711E+03  0.36185677788E+03  0.87436980389E+02 0.  0.
          2    1    3    3  502    0 -0.18022912997E+03  0.50039690668E+02 -0.11941693667E+03  0.22191645882E+03  0.00000000000E+00 0. -1.
         -1    1    3    3    0  502 -0.56954836881E+03  0.15031227816E+03 -0.21766298379E+03  0.62797794539E+03  0.00000000000E+00 0.  1.
         11    1    5    5    0    0  0.23808301747E+03 -0.17597756959E+02 -0.21314326848E+03  0.32003633725E+03  0.00000000000E+00 0. -1.
        -11    1    5    5    0    0  0.66308468651E+03  0.37811482036E+02 -0.43383391815E+03  0.79329873200E+03  0.00000000000E+00 0.  1.
          2    1    6    6  503    0 -0.91127906824E+02 -0.12290153942E+03 -0.73195246475E+02  0.16960727550E+03  0.00000000000E+00 0. -1.
         -2    1    6    6    0  503 -0.60262298373E+02 -0.97664154484E+02 -0.15424020063E+03  0.19224950239E+03  0.00000000000E+00 0.  1.
<mgrwt>
<rscale>  0 0.19845180E+04</rscale>
<asrwt>0</asrwt>
<pdfrwt beam="1">  1        2 0.27204452E+00 0.19845180E+04</pdfrwt>
<pdfrwt beam="2">  1       -1 0.85661054E-01 0.19845180E+04</pdfrwt>
<totfact> 0.12814772E+01</totfact>
</mgrwt>
</event>
<event>
12    6  0.1395358E-007  0.2629277E+04  0.7818608E-02  0.8358324E-01
          2   -1    0    0  501    0  0.00000000000E+00  0.00000000000E+00  0.11580638932E+04  0.11580638932E+04  0.00000000000E+00 0. -1.
         -1   -1    0    0    0  501 -0.00000000000E+00 -0.00000000000E+00 -0.14923820647E+04  0.14923820647E+04  0.00000000000E+00 0.  1.
         24    2    1    2    0    0  0.67530372830E+03 -0.67173707803E+03 -0.81438061401E+03  0.12554810535E+04  0.75835767725E+02 0.  0.
        254    2    1    2    0    0 -0.67530372830E+03  0.67173707803E+03  0.48006244253E+03  0.13949649044E+04  0.89900017146E+03 0.  0.
         23    2    4    4    0    0 -0.86610283634E+03  0.42721299899E+03  0.45018975200E+03  0.10693768556E+04  0.90834887663E+02 0.  0.
         23    2    4    4    0    0  0.19079910804E+03  0.24452407904E+03  0.29872690533E+02  0.32558804882E+03  0.94439795822E+02 0.  0.
          4    1    3    3  502    0  0.24810596684E+03 -0.19732584233E+03 -0.26152705264E+03  0.41096284272E+03  0.00000000000E+00 0. -1.
         -3    1    3    3    0  502  0.42719776146E+03 -0.47441123570E+03 -0.55285356137E+03  0.84451821075E+03  0.00000000000E+00 0.  1.
         11    1    5    5    0    0 -0.36020841894E+03  0.15983946688E+03  0.13796784461E+03  0.41753309616E+03  0.00000000000E+00 0. -1.
        -11    1    5    5    0    0 -0.50589441740E+03  0.26737353212E+03  0.31222190739E+03  0.65184375941E+03  0.00000000000E+00 0.  1.
          3    1    6    6  503    0  0.18130712940E+03  0.17426403811E+03  0.37593688112E+02  0.25427055577E+03  0.00000000000E+00 0. -1.
         -3    1    6    6    0  503  0.94919786392E+01  0.70260040932E+02 -0.77209975793E+01  0.71317493043E+02  0.00000000000E+00 0.  1.
<mgrwt>
<rscale>  0 0.26292765E+04</rscale>
<asrwt>0</asrwt>
<pdfrwt beam="1">  1        2 0.17816368E+00 0.26292765E+04</pdfrwt>
<pdfrwt beam="2">  1       -1 0.22959724E+00 0.26292765E+04</pdfrwt>
<totfact> 0.19173556E+00</totfact>
</mgrwt>
</event>
<event>
12    6  0.1395358E-007  0.1833839E+04  0.7818608E-02  0.8688508E-01
         -1   -1    0    0    0  501 -0.00000000000E+00  0.00000000000E+00  0.72241119107E+03  0.72241119107E+03  0.00000000000E+00 0.  1.
          2   -1    0    0  501    0  0.00000000000E+00 -0.00000000000E+00 -0.11637988606E+04  0.11637988606E+04  0.00000000000E+00 0. -1.
         24    2    1    2    0    0  0.34906871935E+03  0.26658167897E+03  0.38302674950E+03  0.58837780756E+03  0.81019696424E+02 0.  0.
        254    2    1    2    0    0 -0.34906871935E+03 -0.26658167897E+03 -0.82441441904E+03  0.12978322441E+04  0.90099646904E+03 0.  0.
         23    2    4    4    0    0  0.74293953234E+02 -0.14417258892E+02 -0.78646141051E+03  0.79522163232E+03  0.90157891805E+02 0.  0.
         23    2    4    4    0    0 -0.42336267258E+03 -0.25216442007E+03 -0.37953008534E+02  0.50261061182E+03  0.91401033727E+02 0.  0.
          4    1    3    3  502    0  0.80995341689E+02  0.83126735056E+02  0.61607760441E+02  0.13139945054E+03  0.00000000000E+00 0. -1.
         -3    1    3    3    0  502  0.26807337766E+03  0.18345494391E+03  0.32141898905E+03  0.45697835701E+03  0.00000000000E+00 0.  1.
         11    1    5    5    0    0  0.84675142149E+02  0.14395969233E+02 -0.62586196288E+03  0.63172804292E+03  0.00000000000E+00 0. -1.
        -11    1    5    5    0    0 -0.10381188915E+02 -0.28813228125E+02 -0.16059944763E+03  0.16349358941E+03  0.00000000000E+00 0.  1.
          3    1    6    6  503    0 -0.41050870216E+03 -0.25709606985E+03 -0.27187908180E+02  0.48513396709E+03  0.00000000000E+00 0. -1.
         -3    1    6    6    0  503 -0.12853970426E+02  0.49316497710E+01 -0.10765100354E+02  0.17476644724E+02  0.00000000000E+00 0.  1.
<mgrwt>
<rscale>  0 0.18338389E+04</rscale>
<asrwt>0</asrwt>
<pdfrwt beam="1">  1        2 0.17904598E+00 0.18338389E+04</pdfrwt>
<pdfrwt beam="2">  1       -1 0.11114018E+00 0.18338389E+04</pdfrwt>
<totfact> 0.15925829E+01</totfact>
</mgrwt>
</event>
<event>
12    6  0.1395358E-007  0.2447681E+04  0.7818608E-02  0.8421865E-01
          2   -1    0    0  501    0  0.00000000000E+00  0.00000000000E+00  0.16609657627E+04  0.16609657627E+04  0.00000000000E+00 0. -1.
         -1   -1    0    0    0  501 -0.00000000000E+00 -0.00000000000E+00 -0.90175561037E+03  0.90175561037E+03  0.00000000000E+00 0.  1.
         24    2    1    2    0    0  0.87994729431E+03 -0.44226923006E+03  0.73058191021E+03  0.12290410164E+04  0.82961315790E+02 0.  0.
        254    2    1    2    0    0 -0.87994729431E+03  0.44226923006E+03  0.28628242116E+02  0.13336803566E+04  0.89887396493E+03 0.  0.
         23    2    4    4    0    0 -0.71802629709E+03  0.58519006409E+03 -0.25532622902E+03  0.96533220767E+03  0.93089277169E+02 0.  0.
         23    2    4    4    0    0 -0.16192099722E+03 -0.14292083403E+03  0.28395447114E+03  0.36834814897E+03  0.91681203262E+02 0.  0.
          2    1    3    3  502    0  0.16359412490E+03 -0.10865879021E+03  0.11730645506E+03  0.22875876986E+03  0.00000000000E+00 0. -1.
         -1    1    3    3    0  502  0.71635316941E+03 -0.33361043985E+03  0.61327545515E+03  0.10002822466E+04  0.00000000000E+00 0.  1.
         11    1    5    5    0    0 -0.37951187893E+03  0.36629023154E+03 -0.15845746841E+03  0.55073275667E+03  0.00000000000E+00 0.  1.
        -11    1    5    5    0    0 -0.33851441816E+03  0.21889983254E+03 -0.96868760611E+02  0.41459945100E+03  0.00000000000E+00 0. -1.
          3    1    6    6  503    0 -0.45662980818E+01 -0.46692240450E+02  0.84725606485E+02  0.96847533736E+02  0.00000000000E+00 0. -1.
         -3    1    6    6    0  503 -0.15735469913E+03 -0.96228593581E+02  0.19922886465E+03  0.27150061523E+03  0.00000000000E+00 0.  1.
<mgrwt>
<rscale>  0 0.24476807E+04</rscale>
<asrwt>0</asrwt>
<pdfrwt beam="1">  1        2 0.25553319E+00 0.24476807E+04</pdfrwt>
<pdfrwt beam="2">  1       -1 0.13873163E+00 0.24476807E+04</pdfrwt>
<totfact> 0.45140594E+00</totfact>
</mgrwt>
</event>
<event>
12    6  0.1395358E-007  0.2509846E+04  0.7818608E-02  0.8399486E-01
          2   -1    0    0  501    0  0.00000000000E+00  0.00000000000E+00  0.21543079455E+04  0.21543079455E+04  0.00000000000E+00 0. -1.
         -3   -1    0    0    0  501 -0.00000000000E+00 -0.00000000000E+00 -0.73101505163E+03  0.73101505163E+03  0.00000000000E+00 0.  1.
         24    2    1    2    0    0 -0.97149760600E+03  0.25144749250E+03  0.11146905544E+04  0.15019800675E+04  0.79847674599E+02 0.  0.
        254    2    1    2    0    0  0.97149760600E+03 -0.25144749250E+03  0.30860233942E+03  0.13833429296E+04  0.90076013287E+03 0.  0.
         23    2    4    4    0    0  0.95751335598E+03 -0.24791279239E+03  0.54199999927E+03  0.11316231868E+04  0.92273821782E+02 0.  0.
         23    2    4    4    0    0  0.13984250024E+02 -0.35347001075E+01 -0.23339765985E+03  0.25171974278E+03  0.93168170164E+02 0.  0.
          2    1    3    3  502    0 -0.87143605745E+03  0.24725522449E+03  0.10198699056E+04  0.13640639914E+04  0.00000000000E+00 0. -1.
         -1    1    3    3    0  502 -0.10006154855E+03  0.41922680112E+01  0.94820648800E+02  0.13791607611E+03  0.00000000000E+00 0.  1.
         11    1    5    5    0    0  0.68143529834E+02 -0.42353616271E+02  0.51924851421E+02  0.95569658702E+02  0.00000000000E+00 0.  1.
        -11    1    5    5    0    0  0.88936982614E+03 -0.20555917612E+03  0.49007514785E+03  0.10360535281E+04  0.00000000000E+00 0. -1.
          1    1    6    6  503    0  0.22789149749E+02  0.17942146416E+02 -0.22526498313E+03  0.22712458825E+03  0.00000000000E+00 0. -1.
         -1    1    6    6    0  503 -0.88048997255E+01 -0.21476846523E+02 -0.81326767141E+01  0.24595154529E+02  0.00000000000E+00 0.  1.
<mgrwt>
<rscale>  0 0.25098458E+04</rscale>
<asrwt>0</asrwt>
<pdfrwt beam="1">  1        2 0.33143199E+00 0.25098458E+04</pdfrwt>
<pdfrwt beam="2">  1       -3 0.11246385E+00 0.25098458E+04</pdfrwt>
<totfact> 0.20577306E+00</totfact>
</mgrwt>
</event>
<event>
12    6  0.1395358E-007  0.2459070E+04  0.7818608E-02  0.8417714E-01
         -1   -1    0    0    0  501 -0.00000000000E+00  0.00000000000E+00  0.92809939889E+03  0.92809939889E+03  0.00000000000E+00 0.  1.
          2   -1    0    0  501    0  0.00000000000E+00 -0.00000000000E+00 -0.16288729622E+04  0.16288729622E+04  0.00000000000E+00 0. -1.
         24    2    1    2    0    0  0.33373532779E+03 -0.73937972320E+03 -0.10194462434E+04  0.13051695322E+04  0.78327648897E+02 0.  0.
        254    2    1    2    0    0 -0.33373532779E+03  0.73937972320E+03  0.31867268011E+03  0.12518028288E+04  0.89855239198E+03 0.  0.
         23    2    4    4    0    0  0.38619938782E+02 -0.65469929172E+02  0.33876655172E+03  0.35888357557E+03  0.90867117002E+02 0.  0.
         23    2    4    4    0    0 -0.37235526658E+03  0.80484965237E+03 -0.20093871610E+02  0.89291925326E+03  0.10232116941E+03 0.  0.
          4    1    3    3  502    0  0.34952310424E+02 -0.10005483020E+03 -0.17589650312E+03  0.20535874187E+03  0.00000000000E+00 0. -1.
         -3    1    3    3    0  502  0.29878301737E+03 -0.63932489299E+03 -0.84354974026E+03  0.10998107903E+04  0.00000000000E+00 0.  1.
         11    1    5    5    0    0  0.30638347038E+01 -0.20867030623E+01  0.21732900891E+03  0.21736062092E+03  0.00000000000E+00 0. -1.
        -11    1    5    5    0    0  0.35556104078E+02 -0.63383226110E+02  0.12143754281E+03  0.14152295465E+03  0.00000000000E+00 0.  1.
          2    1    6    6  503    0 -0.96671689653E+02  0.17454596393E+03  0.35725933339E+02  0.20270187818E+03  0.00000000000E+00 0. -1.
         -2    1    6    6    0  503 -0.27568357692E+03  0.63030368844E+03 -0.55819804948E+02  0.69021737509E+03  0.00000000000E+00 0.  1.
<mgrwt>
<rscale>  0 0.24590698E+04</rscale>
<asrwt>0</asrwt>
<pdfrwt beam="1">  1        2 0.25059584E+00 0.24590698E+04</pdfrwt>
<pdfrwt beam="2">  1       -1 0.14278452E+00 0.24590698E+04</pdfrwt>
<totfact> 0.43578554E+00</totfact>
</mgrwt>
</event>
<event>
12    6  0.1395358E-007  0.2940988E+04  0.7818608E-02  0.8260786E-01
          2   -1    0    0  501    0  0.00000000000E+00  0.00000000000E+00  0.18328421003E+04  0.18328421003E+04  0.00000000000E+00 0. -1.
         -1   -1    0    0    0  501 -0.00000000000E+00 -0.00000000000E+00 -0.11797809301E+04  0.11797809301E+04  0.00000000000E+00 0.  1.
         24    2    1    2    0    0  0.15021260191E+03  0.11406652419E+04  0.98305366380E+03  0.15153866766E+04  0.79506312845E+02 0.  0.
        254    2    1    2    0    0 -0.15021260191E+03 -0.11406652419E+04 -0.32999249356E+03  0.14972363538E+04  0.89952244740E+03 0.  0.
         23    2    4    4    0    0 -0.81578320653E+02 -0.92694004630E+03  0.16212933350E+03  0.94870711899E+03  0.88805433377E+02 0.  0.
         23    2    4    4    0    0 -0.68634281255E+02 -0.21372519563E+03 -0.49212182706E+03  0.54852923480E+03  0.91166358654E+02 0.  0.
          4    1    3    3  502    0  0.10787530619E+03  0.52159462069E+03  0.46438937883E+03  0.70665092174E+03  0.00000000000E+00 0. -1.
         -3    1    3    3    0  502  0.42337295714E+02  0.61907062124E+03  0.51866428498E+03  0.80873575487E+03  0.00000000000E+00 0.  1.
         11    1    5    5    0    0  0.16984667928E+02 -0.87213391774E+02  0.72488918879E+01  0.89147075572E+02  0.00000000000E+00 0. -1.
        -11    1    5    5    0    0 -0.98562988582E+02 -0.83972665453E+03  0.15488044162E+03  0.85956004342E+03  0.00000000000E+00 0.  1.
          3    1    6    6  503    0 -0.88320259178E+01 -0.41950428045E+01 -0.95456422949E+02  0.95955884386E+02  0.00000000000E+00 0. -1.
         -3    1    6    6    0  503 -0.59802255337E+02 -0.20953015282E+03 -0.39666540411E+03  0.45257335041E+03  0.00000000000E+00 0.  1.
<mgrwt>
<rscale>  0 0.29409877E+04</rscale>
<asrwt>0</asrwt>
<pdfrwt beam="1">  1        2 0.28197571E+00 0.29409877E+04</pdfrwt>
<pdfrwt beam="2">  1       -1 0.18150476E+00 0.29409877E+04</pdfrwt>
<totfact> 0.16440927E+00</totfact>
</mgrwt>
</event>
<event>
12    6  0.1395358E-007  0.2884261E+04  0.7818608E-02  0.8277576E-01
          2   -1    0    0  501    0  0.00000000000E+00  0.00000000000E+00  0.36278349530E+04  0.36278349530E+04  0.00000000000E+00 0. -1.
         -1   -1    0    0    0  501 -0.00000000000E+00 -0.00000000000E+00 -0.57327324428E+03  0.57327324428E+03  0.00000000000E+00 0.  1.
         24    2    1    2    0    0  0.61490623898E+03  0.10598605056E+04  0.20398488515E+04  0.23809123084E+04  0.79662469677E+02 0.  0.
        254    2    1    2    0    0 -0.61490623898E+03 -0.10598605056E+04  0.10147128572E+04  0.18201958889E+04  0.88433982002E+03 0.  0.
         23    2    4    4    0    0  0.18098794500E+03 -0.46834200487E+03  0.27925737911E+03  0.58171933170E+03  0.91169223563E+02 0.  0.
         23    2    4    4    0    0 -0.79589418398E+03 -0.59151850074E+03  0.73545547806E+03  0.12384765572E+04  0.97916973214E+02 0.  0.
          4    1    3    3  502    0  0.22630931978E+03  0.43927824056E+03  0.88115178302E+03  0.10102523178E+04  0.00000000000E+00 0. -1.
         -3    1    3    3    0  502  0.38859691920E+03  0.62058226504E+03  0.11586970685E+04  0.13706599906E+04  0.00000000000E+00 0.  1.
         11    1    5    5    0    0  0.74731470532E+02 -0.12479886219E+03  0.43890853864E+02  0.15194063230E+03  0.00000000000E+00 0.  1.
        -11    1    5    5    0    0  0.10625647447E+03 -0.34354314268E+03  0.23536652525E+03  0.42977869940E+03  0.00000000000E+00 0. -1.
          1    1    6    6  503    0 -0.63154144037E+03 -0.50090476862E+03  0.55952519709E+03  0.98123321607E+03  0.00000000000E+00 0. -1.
         -1    1    6    6    0  503 -0.16435274361E+03 -0.90613732114E+02  0.17593028097E+03  0.25724334110E+03  0.00000000000E+00 0.  1.
<mgrwt>
<rscale>  0 0.28842612E+04</rscale>
<asrwt>0</asrwt>
<pdfrwt beam="1">  1        2 0.55812844E+00 0.28842612E+04</pdfrwt>
<pdfrwt beam="2">  1       -1 0.88195886E-01 0.28842612E+04</pdfrwt>
<totfact> 0.81728171E-01</totfact>
</mgrwt>
</event>
<event>
12    6  0.1395358E-007  0.3753943E+04  0.7818608E-02  0.8056111E-01
         -1   -1    0    0    0  501 -0.00000000000E+00  0.00000000000E+00  0.19045997597E+04  0.19045997597E+04  0.00000000000E+00 0.  1.
          2   -1    0    0  501    0  0.00000000000E+00 -0.00000000000E+00 -0.18497441787E+04  0.18497441787E+04  0.00000000000E+00 0. -1.
         24    2    1    2    0    0 -0.17667031688E+03  0.21331561134E+03 -0.17203691440E+04  0.17448850139E+04  0.90762156486E+02 0.  0.
        254    2    1    2    0    0  0.17667031688E+03 -0.21331561134E+03  0.17752247250E+04  0.20094589246E+04  0.89988132237E+03 0.  0.
         23    2    4    4    0    0  0.28904147744E+03  0.10096963034E+02  0.17082413173E+04  0.17348990361E+04  0.90218306327E+02 0.  0.
         23    2    4    4    0    0 -0.11237116055E+03 -0.22341257437E+03  0.66983407669E+02  0.27455988849E+03  0.91410608543E+02 0.  0.
          2    1    3    3  502    0 -0.17574578255E+03  0.21805503495E+03 -0.17147765282E+04  0.17374962215E+04  0.00000000000E+00 0. -1.
         -1    1    3    3    0  502 -0.92453433082E+00 -0.47394236183E+01 -0.55926158564E+01  0.73887923290E+01  0.00000000000E+00 0.  1.
         11    1    5    5    0    0  0.26814260928E+02 -0.15078960736E+02  0.34983149862E+03  0.35118151585E+03  0.00000000000E+00 0. -1.
        -11    1    5    5    0    0  0.26222721651E+03  0.25175923770E+02  0.13584098187E+04  0.13837175202E+04  0.00000000000E+00 0.  1.
          2    1    6    6  503    0 -0.62104047999E+01 -0.11041443857E+03  0.37223138883E+02  0.11668538657E+03  0.00000000000E+00 0. -1.
         -2    1    6    6    0  503 -0.10616075575E+03 -0.11299813580E+03  0.29760268785E+02  0.15787450192E+03  0.00000000000E+00 0.  1.
<mgrwt>
<rscale>  0 0.37539432E+04</rscale>
<asrwt>0</asrwt>
<pdfrwt beam="1">  1        2 0.28457603E+00 0.37539432E+04</pdfrwt>
<pdfrwt beam="2">  1       -1 0.29301535E+00 0.37539432E+04</pdfrwt>
<totfact> 0.27179934E-01</totfact>
</mgrwt>
</event>
<event>
12    6  0.1395358E-007  0.2051801E+04  0.7818608E-02  0.8582778E-01
         -1   -1    0    0    0  501 -0.00000000000E+00  0.00000000000E+00  0.10874299972E+04  0.10874299972E+04  0.00000000000E+00 0.  1.
          2   -1    0    0  501    0  0.00000000000E+00 -0.00000000000E+00 -0.96785221364E+03  0.96785221364E+03  0.00000000000E+00 0. -1.
         24    2    1    2    0    0 -0.59494229440E+03 -0.54590417195E+03  0.22576191679E+03  0.84180960730E+03  0.75546497213E+02 0.  0.
        254    2    1    2    0    0  0.59494229440E+03  0.54590417195E+03 -0.10618413319E+03  0.12134726036E+04  0.89959601537E+03 0.  0.
         23    2    4    4    0    0  0.19808367788E+03  0.45809313719E+03 -0.44643504016E+03  0.67581349152E+03  0.91286167905E+02 0.  0.
         23    2    4    4    0    0  0.39685861652E+03  0.87811034758E+02  0.34025090698E+03  0.53765911206E+03  0.89995009557E+02 0.  0.
          2    1    3    3  502    0 -0.35680864585E+03 -0.28032637927E+03  0.14118032385E+03  0.47521276552E+03  0.00000000000E+00 0. -1.
         -1    1    3    3    0  502 -0.23813364855E+03 -0.26557779268E+03  0.84581592937E+02  0.36659684178E+03  0.00000000000E+00 0.  1.
         11    1    5    5    0    0  0.15221998060E+03  0.23792023886E+03 -0.25137683203E+03  0.37811013506E+03  0.00000000000E+00 0. -1.
        -11    1    5    5    0    0  0.45863697281E+02  0.22017289834E+03 -0.19505820813E+03  0.29770335646E+03  0.00000000000E+00 0.  1.
          1    1    6    6  503    0  0.54912437237E+02  0.22638094973E+02  0.94258738916E+02  0.11141170930E+03  0.00000000000E+00 0. -1.
         -1    1    6    6    0  503  0.34194617929E+03  0.65172939785E+02  0.24599216806E+03  0.42624740276E+03  0.00000000000E+00 0.  1.
<mgrwt>
<rscale>  0 0.20518007E+04</rscale>
<asrwt>0</asrwt>
<pdfrwt beam="1">  1        2 0.14890034E+00 0.20518007E+04</pdfrwt>
<pdfrwt beam="2">  1       -1 0.16729692E+00 0.20518007E+04</pdfrwt>
<totfact> 0.71858332E+00</totfact>
</mgrwt>
</event>
<event>
12    6  0.1395358E-007  0.3575037E+04  0.7818608E-02  0.8096234E-01
          2   -1    0    0  501    0  0.00000000000E+00  0.00000000000E+00  0.31014354781E+04  0.31014354781E+04  0.00000000000E+00 0. -1.
         -1   -1    0    0    0  501 -0.00000000000E+00 -0.00000000000E+00 -0.10302399977E+04  0.10302399977E+04  0.00000000000E+00 0.  1.
         24    2    1    2    0    0  0.15487258733E+04  0.30095006631E+03  0.32359668664E+03  0.16125219782E+04  0.79934607359E+02 0.  0.
        254    2    1    2    0    0 -0.15487258733E+04 -0.30095006631E+03  0.17475987938E+04  0.25191534976E+04  0.89605246914E+03 0.  0.
         23    2    4    4    0    0 -0.64781085762E+03 -0.43287603875E+03  0.12532119586E+04  0.14786225638E+04  0.93508826820E+02 0.  0.
         23    2    4    4    0    0 -0.90091501568E+03  0.13192597245E+03  0.49438683519E+03  0.10405309339E+04  0.96093463964E+02 0.  0.
          2    1    3    3  502    0  0.10103528237E+04  0.21268306423E+03  0.24680100568E+03  0.10615826160E+04  0.00000000000E+00 0. -1.
         -1    1    3    3    0  502  0.53837304956E+03  0.88267002073E+02  0.76795680963E+02  0.55093936214E+03  0.00000000000E+00 0.  1.
         11    1    5    5    0    0 -0.49836733397E+03 -0.31703007720E+03  0.10166353482E+04  0.11757659208E+04  0.00000000000E+00 0. -1.
        -11    1    5    5    0    0 -0.14944352366E+03 -0.11584596155E+03  0.23657661049E+03  0.30285664299E+03  0.00000000000E+00 0.  1.
          3    1    6    6  503    0 -0.55471218148E+03  0.36523952022E+02  0.31805292272E+03  0.64046644331E+03  0.00000000000E+00 0. -1.
         -3    1    6    6    0  503 -0.34620283419E+03  0.95402020425E+02  0.17633391247E+03  0.40006449054E+03  0.00000000000E+00 0.  1.
<mgrwt>
<rscale>  0 0.35750373E+04</rscale>
<asrwt>0</asrwt>
<pdfrwt beam="1">  1        2 0.47714392E+00 0.35750373E+04</pdfrwt>
<pdfrwt beam="2">  1       -1 0.15849846E+00 0.35750373E+04</pdfrwt>
<totfact> 0.41743630E-01</totfact>
</mgrwt>
</event>
<event>
12    6  0.1395358E-007  0.2027759E+04  0.7818608E-02  0.8593751E-01
         -1   -1    0    0    0  501 -0.00000000000E+00  0.00000000000E+00  0.26324917248E+03  0.26324917248E+03  0.00000000000E+00 0.  1.
          2   -1    0    0  501    0  0.00000000000E+00 -0.00000000000E+00 -0.39048626793E+04  0.39048626793E+04  0.00000000000E+00 0. -1.
         24    2    1    2    0    0  0.74810658755E+03  0.10658291129E+03 -0.20758413791E+04  0.22105408021E+04  0.79685779826E+02 0.  0.
        254    2    1    2    0    0 -0.74810658755E+03 -0.10658291129E+03 -0.15657721277E+04  0.19575710496E+04  0.89967698371E+03 0.  0.
         23    2    4    4    0    0 -0.92105968354E+02  0.29699527199E+03 -0.81964503952E+03  0.88125745034E+03  0.90038891465E+02 0.  0.
         23    2    4    4    0    0 -0.65600061920E+03 -0.40357818327E+03 -0.74612708821E+03  0.10763135993E+04  0.92375158142E+02 0.  0.
          4    1    3    3  502    0  0.29264114588E+03  0.73757431317E+02 -0.76087697013E+03  0.81854307315E+03  0.00000000000E+00 0. -1.
         -3    1    3    3    0  502  0.45546544168E+03  0.32825479971E+02 -0.13149644089E+04  0.13919977290E+04  0.00000000000E+00 0.  1.
         11    1    5    5    0    0 -0.14855444161E+02  0.17920866666E+03 -0.39887415496E+03  0.43753516649E+03  0.00000000000E+00 0. -1.
        -11    1    5    5    0    0 -0.77250524193E+02  0.11778660533E+03 -0.42077088456E+03  0.44372228384E+03  0.00000000000E+00 0.  1.
          1    1    6    6  503    0 -0.19167706733E+03 -0.96034908175E+02 -0.26058715851E+03  0.33744402337E+03  0.00000000000E+00 0. -1.
         -1    1    6    6    0  503 -0.46432355187E+03 -0.30754327510E+03 -0.48553992970E+03  0.73886957591E+03  0.00000000000E+00 0.  1.
<mgrwt>
<rscale>  0 0.20277592E+04</rscale>
<asrwt>0</asrwt>
<pdfrwt beam="1">  1        2 0.60074809E+00 0.20277592E+04</pdfrwt>
<pdfrwt beam="2">  1       -1 0.40499874E-01 0.20277592E+04</pdfrwt>
<totfact> 0.25826755E+00</totfact>
</mgrwt>
</event>
<event>
12    6  0.1395358E-007  0.1072351E+04  0.7818608E-02  0.9232567E-01
          2   -1    0    0  501    0  0.00000000000E+00  0.00000000000E+00  0.88346316586E+03  0.88346316586E+03  0.00000000000E+00 0. -1.
         -1   -1    0    0    0  501 -0.00000000000E+00 -0.00000000000E+00 -0.32540619683E+03  0.32540619683E+03  0.00000000000E+00 0.  1.
         24    2    1    2    0    0  0.23725900736E+02 -0.11791301148E+03  0.16647037439E+03  0.22069282794E+03  0.80787016987E+02 0.  0.
        254    2    1    2    0    0 -0.23725900736E+02  0.11791301148E+03  0.39158659464E+03  0.98817653474E+03  0.89926992948E+03 0.  0.
         23    2    4    4    0    0 -0.37625039091E+03  0.16463838367E+03  0.45085092344E+03  0.61669143828E+03  0.91496561927E+02 0.  0.
         23    2    4    4    0    0  0.35252449017E+03 -0.46725372197E+02 -0.59264328805E+02  0.37148509646E+03  0.89622205087E+02 0.  0.
          4    1    3    3  502    0  0.44357209052E+02 -0.11184249721E+03  0.12228402591E+03  0.17155083553E+03  0.00000000000E+00 0. -1.
         -3    1    3    3    0  502 -0.20631308317E+02 -0.60705142650E+01  0.44186348481E+02  0.49141992414E+02  0.00000000000E+00 0.  1.
         11    1    5    5    0    0 -0.22469571562E+03  0.14353324990E+03  0.30777042626E+03  0.40720092549E+03  0.00000000000E+00 0. -1.
        -11    1    5    5    0    0 -0.15155467529E+03  0.21105133775E+02  0.14308049718E+03  0.20949051279E+03  0.00000000000E+00 0.  1.
          4    1    6    6  503    0  0.29992994781E+03 -0.67967747264E+02 -0.65463626900E+02  0.31442499059E+03  0.00000000000E+00 0. -1.
         -4    1    6    6    0  503  0.52594542360E+02  0.21242375067E+02  0.61992980951E+01  0.57060105866E+02  0.00000000000E+00 0.  1.
<mgrwt>
<rscale>  0 0.10723514E+04</rscale>
<asrwt>0</asrwt>
<pdfrwt beam="1">  1        2 0.13591741E+00 0.10723514E+04</pdfrwt>
<pdfrwt beam="2">  1       -1 0.50062492E-01 0.10723514E+04</pdfrwt>
<totfact> 0.13667598E+02</totfact>
</mgrwt>
</event>
<event>
12    6  0.1395358E-007  0.2047585E+04  0.7818608E-02  0.8584691E-01
          2   -1    0    0  501    0  0.00000000000E+00  0.00000000000E+00  0.14795257883E+04  0.14795257883E+04  0.00000000000E+00 0. -1.
         -1   -1    0    0    0  501 -0.00000000000E+00 -0.00000000000E+00 -0.70843724624E+03  0.70843724624E+03  0.00000000000E+00 0.  1.
         24    2    1    2    0    0 -0.72750165268E+03 -0.38315052413E+03  0.35653285780E+03  0.89999859738E+03  0.82576133379E+02 0.  0.
        254    2    1    2    0    0  0.72750165268E+03  0.38315052413E+03  0.41455568425E+03  0.12879644371E+04  0.90051818261E+03 0.  0.
         23    2    4    4    0    0  0.34639272289E+03 -0.12061900889E+03  0.51849459929E+03  0.64146596383E+03  0.90028159388E+02 0.  0.
         23    2    4    4    0    0  0.38110892979E+03  0.50376953302E+03 -0.10393891505E+03  0.64649847331E+03  0.90162182598E+02 0.  0.
          4    1    3    3  502    0 -0.45375633442E+03 -0.20717805272E+03  0.24709501273E+03  0.55666282602E+03  0.00000000000E+00 0. -1.
         -3    1    3    3    0  502 -0.27374531827E+03 -0.17597247141E+03  0.10943784507E+03  0.34333577136E+03  0.00000000000E+00 0.  1.
         11    1    5    5    0    0  0.32394329100E+03 -0.10649942173E+03  0.42838927037E+03  0.54753881103E+03  0.00000000000E+00 0. -1.
        -11    1    5    5    0    0  0.22449431889E+02 -0.14119587164E+02  0.90105328922E+02  0.93927152805E+02  0.00000000000E+00 0.  1.
          2    1    6    6  503    0  0.17722721167E+03  0.25545911723E+03 -0.94926188376E+02  0.32508433732E+03  0.00000000000E+00 0. -1.
         -2    1    6    6    0  503  0.20388171812E+03  0.24831041579E+03 -0.90127266715E+01  0.32141413599E+03  0.00000000000E+00 0.  1.
<mgrwt>
<rscale>  0 0.20475851E+04</rscale>
<asrwt>0</asrwt>
<pdfrwt beam="1">  1        2 0.22761935E+00 0.20475851E+04</pdfrwt>
<pdfrwt beam="2">  1       -1 0.10899035E+00 0.20475851E+04</pdfrwt>
<totfact> 0.10723342E+01</totfact>
</mgrwt>
</event>
<event>
12    6  0.1395358E-007  0.1153592E+04  0.7818608E-02  0.9154476E-01
          2   -1    0    0  501    0  0.00000000000E+00  0.00000000000E+00  0.11781362934E+04  0.11781362934E+04  0.00000000000E+00 0. -1.
         -1   -1    0    0    0  501 -0.00000000000E+00 -0.00000000000E+00 -0.28238963877E+03  0.28238963877E+03  0.00000000000E+00 0.  1.
         24    2    1    2    0    0  0.23017863004E+03  0.18195867812E+02  0.21945628610E+03  0.33195317834E+03  0.93373228313E+02 0.  0.
        254    2    1    2    0    0 -0.23017863004E+03 -0.18195867812E+02  0.67629036852E+03  0.11285727538E+04  0.87349556770E+03 0.  0.
         23    2    4    4    0    0  0.76884214055E+02 -0.39156524031E+03  0.34012136939E+03  0.53243847565E+03  0.92594085354E+02 0.  0.
         23    2    4    4    0    0 -0.30706284409E+03  0.37336937250E+03  0.33616899913E+03  0.59613427817E+03  0.93135401963E+02 0.  0.
          4    1    3    3  502    0  0.15516459514E+03 -0.28920114872E+02  0.16307479403E+03  0.22694892173E+03  0.00000000000E+00 0. -1.
         -3    1    3    3    0  502  0.75014034897E+02  0.47115982684E+02  0.56381492079E+02  0.10500425660E+03  0.00000000000E+00 0.  1.
         11    1    5    5    0    0  0.15984211652E+02 -0.29515245734E+03  0.24794854442E+03  0.38580947212E+03  0.00000000000E+00 0. -1.
        -11    1    5    5    0    0  0.60900002403E+02 -0.96412782971E+02  0.92172824978E+02  0.14662900353E+03  0.00000000000E+00 0.  1.
          3    1    6    6  503    0 -0.13853619887E+03  0.19734586997E+03  0.21904273645E+03  0.32575664411E+03  0.00000000000E+00 0. -1.
         -3    1    6    6    0  503 -0.16852664522E+03  0.17602350253E+03  0.11712626268E+03  0.27037763406E+03  0.00000000000E+00 0.  1.
<mgrwt>
<rscale>  0 0.11535918E+04</rscale>
<asrwt>0</asrwt>
<pdfrwt beam="1">  1        2 0.18125173E+00 0.11535918E+04</pdfrwt>
<pdfrwt beam="2">  1       -1 0.43444561E-01 0.11535918E+04</pdfrwt>
<totfact> 0.11511050E+02</totfact>
</mgrwt>
</event>
<event>
12    6  0.1395358E-007  0.4453622E+04  0.7818608E-02  0.7918807E-01
          2   -1    0    0  501    0  0.00000000000E+00  0.00000000000E+00  0.36852401521E+04  0.36852401521E+04  0.00000000000E+00 0. -1.
         -1   -1    0    0    0  501 -0.00000000000E+00 -0.00000000000E+00 -0.13455530679E+04  0.13455530679E+04  0.00000000000E+00 0.  1.
         24    2    1    2    0    0 -0.13961494802E+04  0.13818742983E+04  0.20673625889E+04  0.28529248523E+04  0.79888618884E+02 0.  0.
        254    2    1    2    0    0  0.13961494802E+04 -0.13818742983E+04  0.27232449527E+03  0.21778683677E+04  0.90007780150E+03 0.  0.
         23    2    4    4    0    0  0.28565815943E+03 -0.71061744046E+03  0.40341231180E+03  0.87039224393E+03  0.90903433602E+02 0.  0.
         23    2    4    4    0    0  0.11104913208E+04 -0.67125685786E+03 -0.13108781653E+03  0.13074761238E+04  0.92374540773E+02 0.  0.
          4    1    3    3  502    0 -0.77863204002E+03  0.72108466522E+03  0.10892311694E+04  0.15207417560E+04  0.00000000000E+00 0. -1.
         -3    1    3    3    0  502 -0.61751744020E+03  0.66078963310E+03  0.97813141952E+03  0.13321830963E+04  0.00000000000E+00 0.  1.
         11    1    5    5    0    0  0.23713756717E+03 -0.48021409329E+03  0.28992569907E+03  0.60901289982E+03  0.00000000000E+00 0.  1.
        -11    1    5    5    0    0  0.48520592260E+02 -0.23040334716E+03  0.11348661273E+03  0.26137934411E+03  0.00000000000E+00 0. -1.
          1    1    6    6  503    0  0.57991579973E+03 -0.29728597352E+03 -0.73202257308E+02  0.65577424111E+03  0.00000000000E+00 0. -1.
         -1    1    6    6    0  503  0.53057552106E+03 -0.37397088434E+03 -0.57885559220E+02  0.65170188265E+03  0.00000000000E+00 0.  1.
<mgrwt>
<rscale>  0 0.44536215E+04</rscale>
<asrwt>0</asrwt>
<pdfrwt beam="1">  1        2 0.56696002E+00 0.44536215E+04</pdfrwt>
<pdfrwt beam="2">  1       -1 0.20700817E+00 0.44536215E+04</pdfrwt>
<totfact> 0.69414987E-02</totfact>
</mgrwt>
</event>
<event>
12    6  0.1395358E-007  0.4609215E+04  0.7818608E-02  0.7891791E-01
         -1   -1    0    0    0  501 -0.00000000000E+00  0.00000000000E+00  0.17560937775E+04  0.17560937775E+04  0.00000000000E+00 0.  1.
          2   -1    0    0  501    0  0.00000000000E+00 -0.00000000000E+00 -0.30244482377E+04  0.30244482377E+04  0.00000000000E+00 0. -1.
         24    2    1    2    0    0  0.13383091623E+04 -0.15078623364E+04  0.34459043707E+03  0.20468733159E+04  0.78914908351E+02 0.  0.
        254    2    1    2    0    0 -0.13383091623E+04  0.15078623364E+04 -0.16129448973E+04  0.27336686993E+04  0.89812753905E+03 0.  0.
         23    2    4    4    0    0 -0.92622892610E+03  0.56456542098E+03 -0.12011629400E+04  0.16210391911E+04  0.91331881955E+02 0.  0.
         23    2    4    4    0    0 -0.41208023620E+03  0.94329691541E+03 -0.41178195734E+03  0.11126295082E+04  0.93599414629E+02 0.  0.
          2    1    3    3  502    0  0.42941405593E+03 -0.47516171078E+03  0.14637370287E+03  0.65696296982E+03  0.00000000000E+00 0. -1.
         -1    1    3    3    0  502  0.90889510637E+03 -0.10327006256E+04  0.19821673420E+03  0.13899103461E+04  0.00000000000E+00 0.  1.
         11    1    5    5    0    0 -0.34293993116E+03  0.25425648140E+03 -0.50492810094E+03  0.66121595703E+03  0.00000000000E+00 0.  1.
        -11    1    5    5    0    0 -0.58328899494E+03  0.31030893958E+03 -0.69623483902E+03  0.95982323407E+03  0.00000000000E+00 0. -1.
          1    1    6    6  503    0 -0.31801924708E+03  0.80547827397E+03 -0.32911858179E+03  0.92641811955E+03  0.00000000000E+00 0. -1.
         -1    1    6    6    0  503 -0.94060989120E+02  0.13781864144E+03 -0.82663375549E+02  0.18621138864E+03  0.00000000000E+00 0.  1.
<mgrwt>
<rscale>  0 0.46092146E+04</rscale>
<asrwt>0</asrwt>
<pdfrwt beam="1">  1        2 0.46529973E+00 0.46092146E+04</pdfrwt>
<pdfrwt beam="2">  1       -1 0.27016827E+00 0.46092146E+04</pdfrwt>
<totfact> 0.73867933E-02</totfact>
</mgrwt>
</event>
<event>
12    6  0.1395358E-007  0.1127044E+04  0.7818608E-02  0.9179227E-01
          2   -1    0    0  501    0  0.00000000000E+00  0.00000000000E+00  0.16169894878E+04  0.16169894878E+04  0.00000000000E+00 0. -1.
         -1   -1    0    0    0  501 -0.00000000000E+00 -0.00000000000E+00 -0.19638772497E+03  0.19638772497E+03  0.00000000000E+00 0.  1.
         24    2    1    2    0    0  0.14015785098E+03 -0.12703946510E+03  0.25628866844E+03  0.32843720562E+03  0.80024168722E+02 0.  0.
        254    2    1    2    0    0 -0.14015785098E+03  0.12703946510E+03  0.11643130944E+04  0.14849400071E+04  0.90201917617E+03 0.  0.
         23    2    4    4    0    0 -0.18269769391E+03 -0.26796244184E+03  0.98241219658E+03  0.10384671198E+04  0.89988428426E+02 0.  0.
         23    2    4    4    0    0  0.42539842936E+02  0.39500190694E+03  0.18190089780E+03  0.44647288737E+03  0.91727628395E+02 0.  0.
          4    1    3    3  502    0  0.13586103308E+03 -0.98246804197E+02  0.24571105605E+03  0.29746357409E+03  0.00000000000E+00 0. -1.
         -1    1    3    3    0  502  0.42968178961E+01 -0.28792660908E+02  0.10577612387E+02  0.30973631528E+02  0.00000000000E+00 0.  1.
         11    1    5    5    0    0 -0.16470982094E+03 -0.21950200372E+03  0.90243986481E+03  0.94324342794E+03  0.00000000000E+00 0. -1.
        -11    1    5    5    0    0 -0.17987872979E+02 -0.48460438118E+02  0.79972331772E+02  0.95223691831E+02  0.00000000000E+00 0.  1.
          1    1    6    6  503    0  0.27843415455E+02  0.97853415854E+02  0.84411658893E+01  0.10208721791E+03  0.00000000000E+00 0. -1.
         -1    1    6    6    0  503  0.14696427481E+02  0.29714849109E+03  0.17345973191E+03  0.34438566946E+03  0.00000000000E+00 0.  1.
<mgrwt>
<rscale>  0 0.11270437E+04</rscale>
<asrwt>0</asrwt>
<pdfrwt beam="1">  1        2 0.24876760E+00 0.11270437E+04</pdfrwt>
<pdfrwt beam="2">  1       -1 0.30213497E-01 0.11270437E+04</pdfrwt>
<totfact> 0.12412584E+02</totfact>
</mgrwt>
</event>
<event>
12    6  0.1395358E-007  0.2294261E+04  0.7818608E-02  0.8480187E-01
          2   -1    0    0  501    0  0.00000000000E+00  0.00000000000E+00  0.17948295209E+04  0.17948295209E+04  0.00000000000E+00 0. -1.
         -1   -1    0    0    0  501 -0.00000000000E+00 -0.00000000000E+00 -0.73316617591E+03  0.73316617591E+03  0.00000000000E+00 0.  1.
         24    2    1    2    0    0 -0.31692217002E+03  0.57076651757E+03 -0.33876701894E+03  0.73979841657E+03  0.79526879782E+02 0.  0.
        254    2    1    2    0    0  0.31692217002E+03 -0.57076651757E+03  0.14004303639E+04  0.17881972802E+04  0.90012789615E+03 0.  0.
         23    2    4    4    0    0  0.87415375827E+02 -0.22228189521E+03  0.13310616196E+04  0.13553811949E+04  0.91008018205E+02 0.  0.
         23    2    4    4    0    0  0.22950679420E+03 -0.34848462236E+03  0.69368744265E+02  0.43281608531E+03  0.91667008377E+02 0.  0.
          2    1    3    3  502    0 -0.15220311546E+03  0.21991211437E+03 -0.10604428191E+03  0.28770213091E+03  0.00000000000E+00 0. -1.
         -1    1    3    3    0  502 -0.16471905457E+03  0.35085440320E+03 -0.23272273703E+03  0.45209628566E+03  0.00000000000E+00 0.  1.
         11    1    5    5    0    0  0.10534421484E+03 -0.16775620053E+03  0.10146444689E+04  0.10338002441E+04  0.00000000000E+00 0. -1.
        -11    1    5    5    0    0 -0.17928839011E+02 -0.54525694682E+02  0.31641715075E+03  0.32158095083E+03  0.00000000000E+00 0.  1.
          3    1    6    6  503    0  0.12253302292E+03 -0.24699634657E+03  0.73337539029E+02  0.28530673241E+03  0.00000000000E+00 0. -1.
         -3    1    6    6    0  503  0.10697377128E+03 -0.10148827578E+03 -0.39687947633E+01  0.14750935291E+03  0.00000000000E+00 0.  1.
<mgrwt>
<rscale>  0 0.22942609E+04</rscale>
<asrwt>0</asrwt>
<pdfrwt beam="1">  1        2 0.27612762E+00 0.22942609E+04</pdfrwt>
<pdfrwt beam="2">  1       -1 0.11279480E+00 0.22942609E+04</pdfrwt>
<totfact> 0.64487771E+00</totfact>
</mgrwt>
</event>
<event>
12    6  0.1395358E-007  0.2357753E+04  0.7818608E-02  0.8455492E-01
         -1   -1    0    0    0  501 -0.00000000000E+00  0.00000000000E+00  0.10587007317E+04  0.10587007317E+04  0.00000000000E+00 0.  1.
          2   -1    0    0  501    0  0.00000000000E+00 -0.00000000000E+00 -0.13126941777E+04  0.13126941777E+04  0.00000000000E+00 0. -1.
         24    2    1    2    0    0  0.89808229921E+03 -0.29192832833E+03  0.23848195687E+03  0.97728027399E+03  0.80181825472E+02 0.  0.
        254    2    1    2    0    0 -0.89808229921E+03  0.29192832833E+03 -0.49247540281E+03  0.13941146354E+04  0.89958303077E+03 0.  0.
         23    2    4    4    0    0 -0.10267702548E+04  0.20704347535E+03 -0.23374427511E+03  0.10770462330E+04  0.90928791503E+02 0.  0.
         23    2    4    4    0    0  0.12868795558E+03  0.84884852988E+02 -0.25873112770E+03  0.31706840238E+03  0.99118853771E+02 0.  0.
          2    1    3    3  502    0  0.64142340287E+03 -0.24090690992E+03  0.19134050480E+03  0.71138689177E+03  0.00000000000E+00 0. -1.
         -1    1    3    3    0  502  0.25665889634E+03 -0.51021418414E+02  0.47141452071E+02  0.26589338223E+03  0.00000000000E+00 0.  1.
         11    1    5    5    0    0 -0.81117192002E+03  0.13219324740E+03 -0.16084286998E+03  0.83746365134E+03  0.00000000000E+00 0. -1.
        -11    1    5    5    0    0 -0.21559833477E+03  0.74850227943E+02 -0.72901405131E+02  0.23958258169E+03  0.00000000000E+00 0.  1.
          2    1    6    6  503    0  0.12512964262E+03  0.37306844433E+02 -0.21904378914E+03  0.25500864625E+03  0.00000000000E+00 0. -1.
         -2    1    6    6    0  503  0.35583129600E+01  0.47578008554E+02 -0.39687338557E+02  0.62059756130E+02  0.00000000000E+00 0.  1.
<mgrwt>
<rscale>  0 0.23577534E+04</rscale>
<asrwt>0</asrwt>
<pdfrwt beam="1">  1        2 0.20195295E+00 0.23577534E+04</pdfrwt>
<pdfrwt beam="2">  1       -1 0.16287704E+00 0.23577534E+04</pdfrwt>
<totfact> 0.46457874E+00</totfact>
</mgrwt>
</event>
<event>
12    6  0.1395358E-007  0.1364019E+04  0.7818608E-02  0.8980283E-01
         -1   -1    0    0    0  501 -0.00000000000E+00  0.00000000000E+00  0.57776693037E+03  0.57776693037E+03  0.00000000000E+00 0.  1.
          2   -1    0    0  501    0  0.00000000000E+00 -0.00000000000E+00 -0.80505996858E+03  0.80505996858E+03  0.00000000000E+00 0. -1.
         24    2    1    2    0    0 -0.34160526437E+03 -0.16895057955E+03 -0.77002620707E+02  0.39673391087E+03  0.78929952894E+02 0.  0.
        254    2    1    2    0    0  0.34160526437E+03  0.16895057955E+03 -0.15029041750E+03  0.98609298807E+03  0.89696918373E+03 0.  0.
         23    2    4    4    0    0  0.30994812963E+02 -0.25710397631E+03  0.20534305111E+03  0.34345406423E+03  0.93444060974E+02 0.  0.
         23    2    4    4    0    0  0.31061045141E+03  0.42605455585E+03 -0.35563346860E+03  0.64263892385E+03  0.92240367316E+02 0.  0.
          2    1    3    3  502    0 -0.26002387452E+03 -0.95899951938E+02 -0.75384781554E+02  0.28721434747E+03  0.00000000000E+00 0. -1.
         -1    1    3    3    0  502 -0.81581389850E+02 -0.73050627609E+02 -0.16178391530E+01  0.10951956340E+03  0.00000000000E+00 0.  1.
         11    1    5    5    0    0  0.19669279137E+02 -0.18454457453E+03  0.88890305966E+02  0.20577917053E+03  0.00000000000E+00 0.  1.
        -11    1    5    5    0    0  0.11325533827E+02 -0.72559401780E+02  0.11645274514E+03  0.13767489370E+03  0.00000000000E+00 0. -1.
          3    1    6    6  503    0  0.49042313285E+02  0.22205651298E+02 -0.29742799924E+02  0.61505069622E+02  0.00000000000E+00 0. -1.
         -3    1    6    6    0  503  0.26156813813E+03  0.40384890456E+03 -0.32589066868E+03  0.58113385423E+03  0.00000000000E+00 0.  1.
<mgrwt>
<rscale>  0 0.13640191E+04</rscale>
<asrwt>0</asrwt>
<pdfrwt beam="1">  1        2 0.12385538E+00 0.13640191E+04</pdfrwt>
<pdfrwt beam="2">  1       -1 0.88887220E-01 0.13640191E+04</pdfrwt>
<totfact> 0.47266068E+01</totfact>
</mgrwt>
</event>
<event>
12    6  0.1395358E-007  0.1427365E+04  0.7818608E-02  0.8934245E-01
         -1   -1    0    0    0  501 -0.00000000000E+00  0.00000000000E+00  0.82708760256E+03  0.82708760256E+03  0.00000000000E+00 0.  1.
          2   -1    0    0  501    0  0.00000000000E+00 -0.00000000000E+00 -0.61582705970E+03  0.61582705970E+03  0.00000000000E+00 0. -1.
         24    2    1    2    0    0 -0.18727461464E+03 -0.26190057500E+03  0.34477103346E+03  0.47732688522E+03  0.72871101001E+02 0.  0.
        254    2    1    2    0    0  0.18727461464E+03  0.26190057500E+03 -0.13351049060E+03  0.96558777704E+03  0.90048376531E+03 0.  0.
         23    2    4    4    0    0 -0.11314744907E+03 -0.24388322562E+03  0.13050951990E+03  0.31397250218E+03  0.96252918779E+02 0.  0.
         23    2    4    4    0    0  0.30042206371E+03  0.50578380062E+03 -0.26402001051E+03  0.65161527485E+03  0.93942701381E+02 0.  0.
          4    1    3    3  502    0 -0.15399063872E+03 -0.18947195864E+03  0.21657522550E+03  0.32637029311E+03  0.00000000000E+00 0. -1.
         -3    1    3    3    0  502 -0.33283975919E+02 -0.72428616360E+02  0.12819580796E+03  0.15095659211E+03  0.00000000000E+00 0.  1.
         11    1    5    5    0    0  0.14425836177E+02 -0.28546781074E+02  0.62926311946E+00  0.31990927326E+02  0.00000000000E+00 0.  1.
        -11    1    5    5    0    0 -0.12757328524E+03 -0.21533644454E+03  0.12988025678E+03  0.28198157486E+03  0.00000000000E+00 0. -1.
          2    1    6    6  503    0  0.24577179246E+03  0.33418848789E+03 -0.16833263909E+03  0.44768470690E+03  0.00000000000E+00 0. -1.
         -2    1    6    6    0  503  0.54650271246E+02  0.17159531273E+03 -0.95687371413E+02  0.20393056795E+03  0.00000000000E+00 0.  1.
<mgrwt>
<rscale>  0 0.14273653E+04</rscale>
<asrwt>0</asrwt>
<pdfrwt beam="1">  1        2 0.94742624E-01 0.14273653E+04</pdfrwt>
<pdfrwt beam="2">  1       -1 0.12724425E+00 0.14273653E+04</pdfrwt>
<totfact> 0.28556296E+01</totfact>
</mgrwt>
</event>
<event>
12    6  0.1395358E-007  0.1830548E+04  0.7818608E-02  0.8690221E-01
         -1   -1    0    0    0  501 -0.00000000000E+00  0.00000000000E+00  0.25518717095E+03  0.25518717095E+03  0.00000000000E+00 0.  1.
          2   -1    0    0  501    0  0.00000000000E+00 -0.00000000000E+00 -0.32827924217E+04  0.32827924217E+04  0.00000000000E+00 0. -1.
         24    2    1    2    0    0  0.47844493203E+03 -0.29413766771E+03 -0.38037343235E+03  0.68315683755E+03  0.81196034992E+02 0.  0.
        254    2    1    2    0    0 -0.47844493203E+03  0.29413766771E+03 -0.26472318184E+04  0.28548227551E+04  0.90925801733E+03 0.  0.
         23    2    4    4    0    0 -0.66489431923E+03  0.29659609326E+03 -0.24857905653E+04  0.25918522303E+04  0.92138759718E+02 0.  0.
         23    2    4    4    0    0  0.18644938720E+03 -0.24584255489E+01 -0.16144125317E+03  0.26297052483E+03  0.91218423907E+02 0.  0.
          2    1    3    3  502    0  0.25439574221E+03 -0.11947793936E+03 -0.15827140408E+03  0.32255543554E+03  0.00000000000E+00 0. -1.
         -1    1    3    3    0  502  0.22404918982E+03 -0.17465972835E+03 -0.22210202827E+03  0.36060140201E+03  0.00000000000E+00 0.  1.
         11    1    5    5    0    0 -0.37304213338E+03  0.17065483742E+03 -0.12372552555E+04  0.13034891922E+04  0.00000000000E+00 0. -1.
        -11    1    5    5    0    0 -0.29185218586E+03  0.12594125584E+03 -0.12485353097E+04  0.12883630381E+04  0.00000000000E+00 0.  1.
          2    1    6    6  503    0  0.61692351298E+02  0.77631549191E+01 -0.11255523957E+03  0.12858808163E+03  0.00000000000E+00 0. -1.
         -2    1    6    6    0  503  0.12475703590E+03 -0.10221580468E+02 -0.48886013604E+02  0.13438244320E+03  0.00000000000E+00 0.  1.
<mgrwt>
<rscale>  0 0.18305480E+04</rscale>
<asrwt>0</asrwt>
<pdfrwt beam="1">  1        2 0.50504496E+00 0.18305480E+04</pdfrwt>
<pdfrwt beam="2">  1       -1 0.39259567E-01 0.18305480E+04</pdfrwt>
<totfact> 0.77726183E+00</totfact>
</mgrwt>
</event>
<event>
12    6  0.1395358E-007  0.4001091E+04  0.7818608E-02  0.8004327E-01
         -1   -1    0    0    0  501 -0.00000000000E+00  0.00000000000E+00  0.12024624518E+04  0.12024624518E+04  0.00000000000E+00 0.  1.
          2   -1    0    0  501    0  0.00000000000E+00 -0.00000000000E+00 -0.33283214368E+04  0.33283214368E+04  0.00000000000E+00 0. -1.
         24    2    1    2    0    0 -0.11366310404E+04 -0.13487682652E+04 -0.17928456731E+04  0.25162926300E+04  0.79542675151E+02 0.  0.
        254    2    1    2    0    0  0.11366310404E+04  0.13487682652E+04 -0.33301331187E+03  0.20144912585E+04  0.91442397689E+03 0.  0.
         23    2    4    4    0    0  0.74223763673E+02 -0.34048616838E+02 -0.23569929414E+03  0.26574350095E+03  0.91635013160E+02 0.  0.
         23    2    4    4    0    0  0.10624072767E+04  0.13828168820E+04 -0.97314017728E+02  0.17487477575E+04  0.88073552427E+02 0.  0.
          2    1    3    3  502    0 -0.95348408658E+03 -0.11326160101E+04 -0.15452876140E+04  0.21400618541E+04  0.00000000000E+00 0. -1.
         -1    1    3    3    0  502 -0.18314695384E+03 -0.21615225509E+03 -0.24755805914E+03  0.37623077589E+03  0.00000000000E+00 0.  1.
         11    1    5    5    0    0  0.39714323153E+02 -0.54649115674E+02 -0.20295404701E+03  0.21390207691E+03  0.00000000000E+00 0. -1.
        -11    1    5    5    0    0  0.34509440520E+02  0.20600498836E+02 -0.32745247132E+02  0.51841424045E+02  0.00000000000E+00 0.  1.
          2    1    6    6  503    0  0.38345194285E+03  0.50803738596E+03 -0.77671678781E+02  0.64122559813E+03  0.00000000000E+00 0. -1.
         -2    1    6    6    0  503  0.67895533389E+03  0.87477949603E+03 -0.19642338947E+02  0.11075221594E+04  0.00000000000E+00 0.  1.
<mgrwt>
<rscale>  0 0.40010906E+04</rscale>
<asrwt>0</asrwt>
<pdfrwt beam="1">  1        2 0.51204944E+00 0.40010906E+04</pdfrwt>
<pdfrwt beam="2">  1       -1 0.18499423E+00 0.40010906E+04</pdfrwt>
<totfact> 0.18276506E-01</totfact>
</mgrwt>
</event>
<event>
12    6  0.1395358E-007  0.1840991E+04  0.7818608E-02  0.8684799E-01
          2   -1    0    0  501    0  0.00000000000E+00  0.00000000000E+00  0.15058793040E+04  0.15058793040E+04  0.00000000000E+00 0. -1.
         -1   -1    0    0    0  501 -0.00000000000E+00 -0.00000000000E+00 -0.56266950363E+03  0.56266950363E+03  0.00000000000E+00 0.  1.
         24    2    1    2    0    0  0.26253716467E+03  0.64616330334E+03  0.36495164364E+03  0.79096522967E+03  0.77353183142E+02 0.  0.
        254    2    1    2    0    0 -0.26253716467E+03 -0.64616330334E+03  0.57825815670E+03  0.12775835779E+04  0.90076885236E+03 0.  0.
         23    2    4    4    0    0  0.10881340064E+03 -0.65275576144E+03  0.59228853262E+03  0.89271986934E+03  0.90623501343E+02 0.  0.
         23    2    4    4    0    0 -0.37135056530E+03  0.65924581045E+01 -0.14030375913E+02  0.38486370859E+03  0.99892541681E+02 0.  0.
          4    1    3    3  502    0  0.30956264143E+02  0.15478665564E+03  0.67894207178E+02  0.17183370572E+03  0.00000000000E+00 0. -1.
         -3    1    3    3    0  502  0.23158090053E+03  0.49137664770E+03  0.29705743647E+03  0.61913152395E+03  0.00000000000E+00 0.  1.
         11    1    5    5    0    0  0.12954790975E+02 -0.10295266544E+03  0.52501040542E+02  0.11629031425E+03  0.00000000000E+00 0. -1.
        -11    1    5    5    0    0  0.95858609661E+02 -0.54980309600E+03  0.53978749208E+03  0.77642955509E+03  0.00000000000E+00 0.  1.
          1    1    6    6  503    0 -0.15782640707E+03  0.29696697983E+02  0.35461362896E+02  0.16446451562E+03  0.00000000000E+00 0. -1.
         -1    1    6    6    0  503 -0.21352415823E+03 -0.23104239879E+02 -0.49491738810E+02  0.22039919297E+03  0.00000000000E+00 0.  1.
<mgrwt>
<rscale>  0 0.18409914E+04</rscale>
<asrwt>0</asrwt>
<pdfrwt beam="1">  1        2 0.23167374E+00 0.18409914E+04</pdfrwt>
<pdfrwt beam="2">  1       -1 0.86564540E-01 0.18409914E+04</pdfrwt>
<totfact> 0.17771389E+01</totfact>
</mgrwt>
</event>
<event>
12    6  0.1395358E-007  0.2260879E+04  0.7818608E-02  0.8493507E-01
          2   -1    0    0  501    0  0.00000000000E+00  0.00000000000E+00  0.17784263037E+04  0.17784263037E+04  0.00000000000E+00 0. -1.
         -1   -1    0    0    0  501 -0.00000000000E+00 -0.00000000000E+00 -0.71855324198E+03  0.71855324198E+03  0.00000000000E+00 0.  1.
         24    2    1    2    0    0  0.76797379914E+03  0.35454893794E+03  0.92585730316E+03  0.12563571845E+04  0.75716072640E+02 0.  0.
        254    2    1    2    0    0 -0.76797379914E+03 -0.35454893794E+03  0.13401575855E+03  0.12406223612E+04  0.89760509912E+03 0.  0.
         23    2    4    4    0    0 -0.57708614045E+03  0.16792648647E+03 -0.12537959431E+03  0.62063105035E+03  0.90747670097E+02 0.  0.
         23    2    4    4    0    0 -0.19088765869E+03 -0.52247542442E+03  0.25939535287E+03  0.61999131083E+03  0.87661901990E+02 0.  0.
          2    1    3    3  502    0  0.15150064430E+03  0.64109623488E+02  0.22595452555E+03  0.27949586162E+03  0.00000000000E+00 0. -1.
         -1    1    3    3    0  502  0.61647315484E+03  0.29043931445E+03  0.69990277761E+03  0.97686132287E+03  0.00000000000E+00 0.  1.
         11    1    5    5    0    0 -0.59925600385E+02 -0.10326540783E+02 -0.13456734313E+02  0.62280002604E+02  0.00000000000E+00 0.  1.
        -11    1    5    5    0    0 -0.51716054007E+03  0.17825302726E+03 -0.11192286000E+03  0.55835104774E+03  0.00000000000E+00 0. -1.
          1    1    6    6  503    0 -0.53858965994E+02 -0.27513833120E+03  0.12942014492E+03  0.30879032275E+03  0.00000000000E+00 0. -1.
         -1    1    6    6    0  503 -0.13702869270E+03 -0.24733709322E+03  0.12997520794E+03  0.31120098808E+03  0.00000000000E+00 0.  1.
<mgrwt>
<rscale>  0 0.22608795E+04</rscale>
<asrwt>0</asrwt>
<pdfrwt beam="1">  1        2 0.27360405E+00 0.22608795E+04</pdfrwt>
<pdfrwt beam="2">  1       -1 0.11054665E+00 0.22608795E+04</pdfrwt>
<totfact> 0.69278280E+00</totfact>
</mgrwt>
</event>
<event>
12    6  0.1395358E-007  0.1417505E+04  0.7818608E-02  0.8941244E-01
          2   -1    0    0  501    0  0.00000000000E+00  0.00000000000E+00  0.35716659127E+04  0.35716659127E+04  0.00000000000E+00 0. -1.
         -1   -1    0    0    0  501 -0.00000000000E+00 -0.00000000000E+00 -0.14064304215E+03  0.14064304215E+03  0.00000000000E+00 0.  1.
         24    2    1    2    0    0 -0.36969044314E+03 -0.19216092768E+03  0.11349423077E+04  0.12115956640E+04  0.79203316802E+02 0.  0.
        254    2    1    2    0    0  0.36969044314E+03  0.19216092768E+03  0.22960805629E+04  0.25007132909E+04  0.89887939456E+03 0.  0.
         23    2    4    4    0    0 -0.20095249829E+03 -0.73427156049E+02  0.18733867506E+03  0.29819937051E+03  0.89742027977E+02 0.  0.
         23    2    4    4    0    0  0.57064294143E+03  0.26558808373E+03  0.21087418878E+04  0.22025139204E+04  0.90026790765E+02 0.  0.
          4    1    3    3  502    0 -0.10493643266E+03 -0.33166284143E+02  0.38857801233E+03  0.40386201724E+03  0.00000000000E+00 0. -1.
         -3    1    3    3    0  502 -0.26475401048E+03 -0.15899464353E+03  0.74636429534E+03  0.80773364675E+03  0.00000000000E+00 0.  1.
         11    1    5    5    0    0 -0.16958430935E+03 -0.77459791666E+02  0.19033366813E+03  0.26643153441E+03  0.00000000000E+00 0.  1.
        -11    1    5    5    0    0 -0.31368188941E+02  0.40326356165E+01 -0.29949930665E+01  0.31767836107E+02  0.00000000000E+00 0. -1.
          1    1    6    6  503    0  0.69661701873E+02  0.66435934827E+02  0.35024699254E+03  0.36323469263E+03  0.00000000000E+00 0. -1.
         -1    1    6    6    0  503  0.50098123955E+03  0.19915214890E+03  0.17584948953E+04  0.18392792277E+04  0.00000000000E+00 0.  1.
<mgrwt>
<rscale>  0 0.14175048E+04</rscale>
<asrwt>0</asrwt>
<pdfrwt beam="1">  1        2 0.54948699E+00 0.14175048E+04</pdfrwt>
<pdfrwt beam="2">  1       -1 0.21637394E-01 0.14175048E+04</pdfrwt>
<totfact> 0.14609212E+01</totfact>
</mgrwt>
</event>
<event>
12    6  0.1395358E-007  0.1102628E+04  0.7818608E-02  0.9202634E-01
          2   -1    0    0  501    0  0.00000000000E+00  0.00000000000E+00  0.12084886357E+04  0.12084886357E+04  0.00000000000E+00 0. -1.
         -1   -1    0    0    0  501 -0.00000000000E+00 -0.00000000000E+00 -0.25151025424E+03  0.25151025424E+03  0.00000000000E+00 0.  1.
         24    2    1    2    0    0  0.27991969817E+02  0.12357297591E+03  0.30741363971E+03  0.34163490481E+03  0.78469303303E+02 0.  0.
        254    2    1    2    0    0 -0.27991969817E+02 -0.12357297591E+03  0.64956474171E+03  0.11183639851E+04  0.90152638270E+03 0.  0.
         23    2    4    4    0    0  0.35163158276E+03  0.57229090253E+02  0.57214448683E+03  0.68023776956E+03  0.91946563663E+02 0.  0.
         23    2    4    4    0    0 -0.37962355257E+03 -0.18080206616E+03  0.77420254880E+02  0.43812621552E+03  0.95693552883E+02 0.  0.
          2    1    3    3  502    0 -0.20397337429E+02  0.49195176034E+02  0.16925354214E+03  0.17743443365E+03  0.00000000000E+00 0. -1.
         -1    1    3    3    0  502  0.48389307246E+02  0.74377799872E+02  0.13816009757E+03  0.16420047116E+03  0.00000000000E+00 0.  1.
         11    1    5    5    0    0  0.24048940453E+03  0.56672459793E+01  0.42879955384E+03  0.49166688798E+03  0.00000000000E+00 0. -1.
        -11    1    5    5    0    0  0.11114217823E+03  0.51561844274E+02  0.14334493299E+03  0.18857088158E+03  0.00000000000E+00 0.  1.
          3    1    6    6  503    0 -0.35601656212E+03 -0.16480439565E+03  0.44898162141E+02  0.39487229112E+03  0.00000000000E+00 0. -1.
         -3    1    6    6    0  503 -0.23606990457E+02 -0.15997670506E+02  0.32522092740E+02  0.43253924402E+02  0.00000000000E+00 0.  1.
<mgrwt>
<rscale>  0 0.11026283E+04</rscale>
<asrwt>0</asrwt>
<pdfrwt beam="1">  1        2 0.18592133E+00 0.11026283E+04</pdfrwt>
<pdfrwt beam="2">  1       -1 0.38693886E-01 0.11026283E+04</pdfrwt>
<totfact> 0.13698135E+02</totfact>
</mgrwt>
</event>
<event>
12    6  0.1395358E-007  0.1282391E+04  0.7818608E-02  0.9043647E-01
         -1   -1    0    0    0  501 -0.00000000000E+00  0.00000000000E+00  0.14540253272E+03  0.14540253272E+03  0.00000000000E+00 0.  1.
          2   -1    0    0  501    0  0.00000000000E+00 -0.00000000000E+00 -0.28275404540E+04  0.28275404540E+04  0.00000000000E+00 0. -1.
         24    2    1    2    0    0  0.58815646809E+02 -0.23135391473E+03 -0.20300951558E+03  0.32375630765E+03  0.81371795826E+02 0.  0.
        254    2    1    2    0    0 -0.58815646809E+02  0.23135391473E+03 -0.24791284057E+04  0.26491866791E+04  0.90284466797E+03 0.  0.
         23    2    4    4    0    0  0.13391301954E+03  0.35853483307E+03 -0.23226450351E+04  0.23556475274E+04  0.88968482809E+02 0.  0.
         23    2    4    4    0    0 -0.19272866635E+03 -0.12718091834E+03 -0.15648337059E+03  0.29353915167E+03  0.91426820302E+02 0.  0.
          4    1    3    3  502    0  0.40239345230E+02 -0.10052526239E+03 -0.14102647388E+03  0.17780044887E+03  0.00000000000E+00 0. -1.
         -3    1    3    3    0  502  0.18576301579E+02 -0.13082865234E+03 -0.61983041700E+02  0.14595585878E+03  0.00000000000E+00 0.  1.
         11    1    5    5    0    0  0.26967482167E+01  0.61551001607E+02 -0.55713238188E+03  0.56052858017E+03  0.00000000000E+00 0. -1.
        -11    1    5    5    0    0  0.13121627132E+03  0.29698383146E+03 -0.17655126532E+04  0.17951189472E+04  0.00000000000E+00 0.  1.
          4    1    6    6  503    0 -0.10896244299E+03 -0.86369848884E+02 -0.40614838125E+02  0.14485209648E+03  0.00000000000E+00 0. -1.
         -4    1    6    6    0  503 -0.83766223363E+02 -0.40811069455E+02 -0.11586853247E+03  0.14868705520E+03  0.00000000000E+00 0.  1.
<mgrwt>
<rscale>  0 0.12823908E+04</rscale>
<asrwt>0</asrwt>
<pdfrwt beam="1">  1        2 0.43500617E+00 0.12823908E+04</pdfrwt>
<pdfrwt beam="2">  1       -1 0.22369623E-01 0.12823908E+04</pdfrwt>
<totfact> 0.42505576E+01</totfact>
</mgrwt>
</event>
<event>
12    6  0.1395358E-007  0.2306578E+04  0.7818608E-02  0.8475332E-01
         -1   -1    0    0    0  501 -0.00000000000E+00  0.00000000000E+00  0.78683622629E+03  0.78683622629E+03  0.00000000000E+00 0.  1.
          2   -1    0    0  501    0  0.00000000000E+00 -0.00000000000E+00 -0.16904102335E+04  0.16904102335E+04  0.00000000000E+00 0. -1.
         24    2    1    2    0    0 -0.67892812059E+03  0.63838178126E+03 -0.73753294027E+02  0.93830215080E+03  0.80602023736E+02 0.  0.
        254    2    1    2    0    0  0.67892812059E+03 -0.63838178126E+03 -0.82982071319E+03  0.15389443090E+04  0.90070665513E+03 0.  0.
         23    2    4    4    0    0  0.36702906758E+03 -0.30894998119E+03 -0.94433107180E+03  0.10630612947E+04  0.90430724044E+02 0.  0.
         23    2    4    4    0    0  0.31189905301E+03 -0.32943180008E+03  0.11451035861E+03  0.47588301428E+03  0.86865936258E+02 0.  0.
          2    1    3    3  502    0 -0.21059165198E+03  0.19840167453E+03 -0.60433047568E+02  0.29557439263E+03  0.00000000000E+00 0. -1.
         -1    1    3    3    0  502 -0.46833646861E+03  0.43998010673E+03 -0.13320246460E+02  0.64272775816E+03  0.00000000000E+00 0.  1.
         11    1    5    5    0    0  0.10291473679E+03 -0.74278525373E+02 -0.34153185926E+03  0.36435251237E+03  0.00000000000E+00 0.  1.
        -11    1    5    5    0    0  0.26411433078E+03 -0.23467145581E+03 -0.60279921253E+03  0.69870878235E+03  0.00000000000E+00 0. -1.
          1    1    6    6  503    0  0.29150074842E+03 -0.27952122708E+03  0.79549047090E+02  0.41162222196E+03  0.00000000000E+00 0. -1.
         -1    1    6    6    0  503  0.20398304596E+02 -0.49910572991E+02  0.34961311519E+02  0.64260792322E+02  0.00000000000E+00 0.  1.
<mgrwt>
<rscale>  0 0.23065784E+04</rscale>
<asrwt>0</asrwt>
<pdfrwt beam="1">  1        2 0.26006311E+00 0.23065784E+04</pdfrwt>
<pdfrwt beam="2">  1       -1 0.12105173E+00 0.23065784E+04</pdfrwt>
<totfact> 0.62072508E+00</totfact>
</mgrwt>
</event>
<event>
12    6  0.1395358E-007  0.1440864E+04  0.7818608E-02  0.8924759E-01
          2   -1    0    0  501    0  0.00000000000E+00  0.00000000000E+00  0.38272145646E+03  0.38272145646E+03  0.00000000000E+00 0. -1.
         -1   -1    0    0    0  501 -0.00000000000E+00 -0.00000000000E+00 -0.13561357902E+04  0.13561357902E+04  0.00000000000E+00 0.  1.
         24    2    1    2    0    0 -0.40751755542E+03 -0.14713469672E+03 -0.26258213847E+03  0.51276310478E+03  0.79104015226E+02 0.  0.
        254    2    1    2    0    0  0.40751755542E+03  0.14713469672E+03 -0.71083219527E+03  0.12260941419E+04  0.90016957179E+03 0.  0.
         23    2    4    4    0    0  0.64888106030E+03  0.93898864832E+02 -0.69917403482E+03  0.96287329734E+03  0.91744365082E+02 0.  0.
         23    2    4    4    0    0 -0.24136350488E+03  0.53235831889E+02 -0.11658160457E+02  0.26322084455E+03  0.89771404224E+02 0.  0.
          4    1    3    3  502    0 -0.43873510462E+01 -0.25092561182E+01  0.55179519480E+01  0.74828476645E+01  0.00000000000E+00 0. -1.
         -3    1    3    3    0  502 -0.40313020438E+03 -0.14462544060E+03 -0.26810009042E+03  0.50528025712E+03  0.00000000000E+00 0.  1.
         11    1    5    5    0    0  0.42928280979E+02  0.28920301924E+02 -0.42418720817E+02  0.66922111793E+02  0.00000000000E+00 0. -1.
        -11    1    5    5    0    0  0.60595277932E+03  0.64978562908E+02 -0.65675531400E+03  0.89595118554E+03  0.00000000000E+00 0.  1.
          3    1    6    6  503    0 -0.58078309636E+01 -0.12292532922E+02 -0.12864934951E+02  0.18717473586E+02  0.00000000000E+00 0. -1.
         -3    1    6    6    0  503 -0.23555567392E+03  0.65528364811E+02  0.12067744945E+01  0.24450337097E+03  0.00000000000E+00 0.  1.
<mgrwt>
<rscale>  0 0.14408640E+04</rscale>
<asrwt>0</asrwt>
<pdfrwt beam="1">  1        2 0.58880223E-01 0.14408640E+04</pdfrwt>
<pdfrwt beam="2">  1       -1 0.20863628E+00 0.14408640E+04</pdfrwt>
<totfact> 0.12189131E+01</totfact>
</mgrwt>
</event>
<event>
12    6  0.1395358E-007  0.1779544E+04  0.7818608E-02  0.8717254E-01
          2   -1    0    0  501    0  0.00000000000E+00  0.00000000000E+00  0.81180851833E+03  0.81180851833E+03  0.00000000000E+00 0. -1.
         -1   -1    0    0    0  501 -0.00000000000E+00 -0.00000000000E+00 -0.97522281130E+03  0.97522281130E+03  0.00000000000E+00 0.  1.
         24    2    1    2    0    0  0.41408832376E+02 -0.13711319569E+03 -0.70680784998E+03  0.72580209528E+03  0.81832908321E+02 0.  0.
        254    2    1    2    0    0 -0.41408832376E+02  0.13711319569E+03  0.54339355702E+03  0.10612292344E+04  0.90023119820E+03 0.  0.
         23    2    4    4    0    0  0.19577001491E+03 -0.17206836697E+03 -0.10796484746E+03  0.29691341514E+03  0.92562120522E+02 0.  0.
         23    2    4    4    0    0 -0.23717884728E+03  0.30918156267E+03  0.65135840448E+03  0.76431581921E+03  0.89798976199E+02 0.  0.
          4    1    3    3  502    0  0.91689996933E+01 -0.59181259519E+02 -0.13341053633E+03  0.14623564284E+03  0.00000000000E+00 0. -1.
         -3    1    3    3    0  502  0.32239832683E+02 -0.77931936175E+02 -0.57339731365E+03  0.57956645244E+03  0.00000000000E+00 0.  1.
         11    1    5    5    0    0  0.16593551060E+03 -0.12620485637E+03 -0.44595853252E+02  0.21319251764E+03  0.00000000000E+00 0.  1.
        -11    1    5    5    0    0  0.29834504308E+02 -0.45863510598E+02 -0.63368994210E+02  0.83720897503E+02  0.00000000000E+00 0. -1.
          3    1    6    6  503    0 -0.59543253504E+02  0.10974004770E+03  0.28304475899E+03  0.30935838877E+03  0.00000000000E+00 0. -1.
         -3    1    6    6    0  503 -0.17763559378E+03  0.19944151496E+03  0.36831364549E+03  0.45495743045E+03  0.00000000000E+00 0.  1.
<mgrwt>
<rscale>  0 0.17795440E+04</rscale>
<asrwt>0</asrwt>
<pdfrwt beam="1">  1        2 0.12489362E+00 0.17795440E+04</pdfrwt>
<pdfrwt beam="2">  1       -1 0.15003428E+00 0.17795440E+04</pdfrwt>
<totfact> 0.12713643E+01</totfact>
</mgrwt>
</event>
<event>
12    6  0.1395358E-007  0.2625855E+04  0.7818608E-02  0.8359471E-01
          2   -1    0    0  501    0  0.00000000000E+00  0.00000000000E+00  0.10253393415E+04  0.10253393415E+04  0.00000000000E+00 0. -1.
         -1   -1    0    0    0  501 -0.00000000000E+00 -0.00000000000E+00 -0.16811788198E+04  0.16811788198E+04  0.00000000000E+00 0.  1.
         24    2    1    2    0    0 -0.97412993301E+03  0.61823587572E+03 -0.37030753613E+03  0.12143480444E+04  0.79804619593E+02 0.  0.
        254    2    1    2    0    0  0.97412993301E+03 -0.61823587572E+03 -0.28553194213E+03  0.14921701169E+04  0.90216320215E+03 0.  0.
         23    2    4    4    0    0  0.47879725679E+03 -0.63748805015E+03 -0.49822292020E+03  0.94471922279E+03  0.92900508696E+02 0.  0.
         23    2    4    4    0    0  0.49533267622E+03  0.19252174428E+02  0.21269097806E+03  0.54745089408E+03  0.93487554946E+02 0.  0.
          4    1    3    3  502    0 -0.14674222033E+03  0.78058936374E+02 -0.80076222684E+02  0.18449574037E+03  0.00000000000E+00 0. -1.
         -3    1    3    3    0  502 -0.82738771268E+03  0.54017693935E+03 -0.29023131344E+03  0.10298523041E+04  0.00000000000E+00 0.  1.
         11    1    5    5    0    0  0.13188448660E+03 -0.14401871274E+03 -0.16459651905E+03  0.25539561764E+03  0.00000000000E+00 0.  1.
        -11    1    5    5    0    0  0.34691277019E+03 -0.49346933741E+03 -0.33362640114E+03  0.68932360515E+03  0.00000000000E+00 0. -1.
          2    1    6    6  503    0  0.41750589374E+03  0.24140684470E+02  0.14046860724E+03  0.44116365849E+03  0.00000000000E+00 0. -1.
         -2    1    6    6    0  503  0.77826782484E+02 -0.48885100418E+01  0.72222370830E+02  0.10628723560E+03  0.00000000000E+00 0.  1.
<mgrwt>
<rscale>  0 0.26258551E+04</rscale>
<asrwt>0</asrwt>
<pdfrwt beam="1">  1        2 0.15774452E+00 0.26258551E+04</pdfrwt>
<pdfrwt beam="2">  1       -1 0.25864289E+00 0.26258551E+04</pdfrwt>
<totfact> 0.14949557E+00</totfact>
</mgrwt>
</event>
<event>
12    6  0.1395358E-007  0.2892735E+04  0.7818608E-02  0.8275042E-01
          2   -1    0    0  501    0  0.00000000000E+00  0.00000000000E+00  0.13106859238E+04  0.13106859238E+04  0.00000000000E+00 0. -1.
         -1   -1    0    0    0  501 -0.00000000000E+00 -0.00000000000E+00 -0.15960948022E+04  0.15960948022E+04  0.00000000000E+00 0.  1.
         24    2    1    2    0    0  0.70932931686E+03 -0.10869224167E+04  0.65334861459E+01  0.13003184470E+04  0.78974409839E+02 0.  0.
        254    2    1    2    0    0 -0.70932931686E+03  0.10869224167E+04 -0.29194236454E+03  0.16064622790E+04  0.90052334231E+03 0.  0.
         23    2    4    4    0    0 -0.87819515187E+03  0.10654376995E+04 -0.28869866028E+03  0.14135497952E+04  0.91607263865E+02 0.  0.
         23    2    4    4    0    0  0.16886583501E+03  0.21484717179E+02 -0.32437042594E+01  0.19291248381E+03  0.90705245085E+02 0.  0.
          2    1    3    3  502    0  0.48623087816E+03 -0.67866417537E+03  0.14963943932E+02  0.83500266432E+03  0.00000000000E+00 0. -1.
         -1    1    3    3    0  502  0.22309843870E+03 -0.40825824131E+03 -0.84304577856E+01  0.46531578263E+03  0.00000000000E+00 0.  1.
         11    1    5    5    0    0 -0.13615780572E+03  0.22135782822E+03 -0.54568295390E+02  0.26554836666E+03  0.00000000000E+00 0.  1.
        -11    1    5    5    0    0 -0.74203734616E+03  0.84407987128E+03 -0.23413036489E+03  0.11480014285E+04  0.00000000000E+00 0. -1.
          3    1    6    6  503    0  0.15765171558E+03  0.10338388494E+02  0.25569546891E+02  0.16004607908E+03  0.00000000000E+00 0. -1.
         -3    1    6    6    0  503  0.11214119432E+02  0.11146328685E+02 -0.28813251150E+02  0.32866404726E+02  0.00000000000E+00 0.  1.
<mgrwt>
<rscale>  0 0.28927350E+04</rscale>
<asrwt>0</asrwt>
<pdfrwt beam="1">  1        2 0.20164399E+00 0.28927350E+04</pdfrwt>
<pdfrwt beam="2">  1       -1 0.24555305E+00 0.28927350E+04</pdfrwt>
<totfact> 0.11950512E+00</totfact>
</mgrwt>
</event>
<event>
12    6  0.1395358E-007  0.2919477E+04  0.7818608E-02  0.8267106E-01
         -1   -1    0    0    0  501 -0.00000000000E+00  0.00000000000E+00  0.84807303016E+03  0.84807303016E+03  0.00000000000E+00 0.  1.
          2   -1    0    0  501    0  0.00000000000E+00 -0.00000000000E+00 -0.25125622402E+04  0.25125622402E+04  0.00000000000E+00 0. -1.
         24    2    1    2    0    0 -0.55929286883E+03  0.85726950537E+03  0.20530239607E+03  0.10471676840E+04  0.81801996737E+02 0.  0.
        254    2    1    2    0    0  0.55929286883E+03 -0.85726950537E+03 -0.18697916061E+04  0.23134675863E+04  0.89905066861E+03 0.  0.
         23    2    4    4    0    0  0.37259242600E+03  0.58975607101E+02 -0.32750168057E+03  0.50786223117E+03  0.91451937750E+02 0.  0.
         23    2    4    4    0    0  0.18670044283E+03 -0.91624511247E+03 -0.15422899255E+04  0.18056053552E+04  0.84795770465E+02 0.  0.
          2    1    3    3  502    0 -0.97641809202E+02  0.19555918697E+03  0.21283927573E+02  0.21961403435E+03  0.00000000000E+00 0. -1.
         -1    1    3    3    0  502 -0.46165105963E+03  0.66171031840E+03  0.18401846850E+03  0.82755364967E+03  0.00000000000E+00 0.  1.
         11    1    5    5    0    0  0.12179595104E+03 -0.26120105352E+01 -0.59124825788E+02  0.13541351968E+03  0.00000000000E+00 0. -1.
        -11    1    5    5    0    0  0.25079647497E+03  0.61587617636E+02 -0.26837685479E+03  0.37244871148E+03  0.00000000000E+00 0.  1.
          1    1    6    6  503    0  0.83051607056E+02 -0.32364654012E+03 -0.62341508105E+03  0.70731253039E+03  0.00000000000E+00 0. -1.
         -1    1    6    6    0  503  0.10364883577E+03 -0.59259857235E+03 -0.91887484448E+03  0.10982928248E+04  0.00000000000E+00 0.  1.
<mgrwt>
<rscale>  0 0.29194769E+04</rscale>
<asrwt>0</asrwt>
<pdfrwt beam="1">  1        2 0.38654803E+00 0.29194769E+04</pdfrwt>
<pdfrwt beam="2">  1       -1 0.13047278E+00 0.29194769E+04</pdfrwt>
<totfact> 0.16844269E+00</totfact>
</mgrwt>
</event>
<event>
12    6  0.1395358E-007  0.1504500E+04  0.7818608E-02  0.8881466E-01
          4   -1    0    0  501    0  0.00000000000E+00  0.00000000000E+00  0.23205088210E+03  0.23205088210E+03  0.00000000000E+00 0. -1.
         -3   -1    0    0    0  501 -0.00000000000E+00 -0.00000000000E+00 -0.24386042027E+04  0.24386042027E+04  0.00000000000E+00 0.  1.
         24    2    1    2    0    0  0.16427908371E+03  0.44912070477E+03 -0.63816829605E+03  0.80095574314E+03  0.74661258929E+02 0.  0.
        254    2    1    2    0    0 -0.16427908371E+03 -0.44912070477E+03 -0.15683850246E+04  0.18696993417E+04  0.89846926389E+03 0.  0.
         23    2    4    4    0    0 -0.31108805199E+03  0.14485680293E+03 -0.85277202074E+03  0.92373352770E+03  0.91127610508E+02 0.  0.
         23    2    4    4    0    0  0.14680896828E+03 -0.59397750770E+03 -0.71561300382E+03  0.94596581397E+03  0.91581641920E+02 0.  0.
          2    1    3    3  502    0  0.66203037806E+02  0.20530648461E+03 -0.22848868445E+03  0.31423028778E+03  0.00000000000E+00 0. -1.
         -1    1    3    3    0  502  0.98076045909E+02  0.24381422016E+03 -0.40967961159E+03  0.48672545535E+03  0.00000000000E+00 0.  1.
         11    1    5    5    0    0 -0.27431801018E+03  0.96775299487E+02 -0.65001830384E+03  0.71213736360E+03  0.00000000000E+00 0.  1.
        -11    1    5    5    0    0 -0.36770041808E+02  0.48081503441E+02 -0.20275371690E+03  0.21159616411E+03  0.00000000000E+00 0. -1.
          4    1    6    6  503    0 -0.12808555641E+02 -0.59044212680E+02 -0.71518317026E+02  0.93622368154E+02  0.00000000000E+00 0. -1.
         -4    1    6    6    0  503  0.15961752392E+03 -0.53493329502E+03 -0.64409468680E+03  0.85234344581E+03  0.00000000000E+00 0.  1.
<mgrwt>
<rscale>  0 0.15045003E+04</rscale>
<asrwt>0</asrwt>
<pdfrwt beam="1">  1        4 0.35700136E-01 0.15045003E+04</pdfrwt>
<pdfrwt beam="2">  1       -3 0.37516988E+00 0.15045003E+04</pdfrwt>
<totfact> 0.24834977E-01</totfact>
</mgrwt>
</event>
<event>
12    6  0.1395358E-007  0.1259423E+04  0.7818608E-02  0.9062377E-01
          2   -1    0    0  501    0  0.00000000000E+00  0.00000000000E+00  0.94121280558E+03  0.94121280558E+03  0.00000000000E+00 0. -1.
         -1   -1    0    0    0  501 -0.00000000000E+00 -0.00000000000E+00 -0.42130399085E+03  0.42130399085E+03  0.00000000000E+00 0.  1.
         24    2    1    2    0    0  0.20233127478E+03 -0.79918001736E+02  0.35382151730E+03  0.42271949495E+03  0.78595633154E+02 0.  0.
        254    2    1    2    0    0 -0.20233127478E+03  0.79918001736E+02  0.16608729743E+03  0.93979730147E+03  0.89906014578E+03 0.  0.
         23    2    4    4    0    0 -0.26282790764E+03  0.43796845576E+03  0.21515285545E+03  0.56194190495E+03  0.92698846049E+02 0.  0.
         23    2    4    4    0    0  0.60496632860E+02 -0.35805045402E+03 -0.49065558023E+02  0.37785539652E+03  0.92235033939E+02 0.  0.
          4    1    3    3  502    0  0.14264868173E+03 -0.40026371765E+02  0.29420923682E+03  0.32940830570E+03  0.00000000000E+00 0. -1.
         -3    1    3    3    0  502  0.59682593047E+02 -0.39891629971E+02  0.59612280484E+02  0.93311189249E+02  0.00000000000E+00 0.  1.
         11    1    5    5    0    0 -0.24487192080E+03  0.37379520619E+03  0.15743651806E+03  0.47378409744E+03  0.00000000000E+00 0. -1.
        -11    1    5    5    0    0 -0.17955986841E+02  0.64173249562E+02  0.57716337395E+02  0.88157807511E+02  0.00000000000E+00 0.  1.
          1    1    6    6  503    0  0.57520857367E+02 -0.35079198104E+03 -0.29408837415E+02  0.35669110266E+03  0.00000000000E+00 0. -1.
         -1    1    6    6    0  503  0.29757754931E+01 -0.72584729760E+01 -0.19656720608E+02  0.21164293865E+02  0.00000000000E+00 0.  1.
<mgrwt>
<rscale>  0 0.12594232E+04</rscale>
<asrwt>0</asrwt>
<pdfrwt beam="1">  1        2 0.14480197E+00 0.12594232E+04</pdfrwt>
<pdfrwt beam="2">  1       -1 0.64815999E-01 0.12594232E+04</pdfrwt>
<totfact> 0.74484499E+01</totfact>
</mgrwt>
</event>
<event>
12    6  0.1395358E-007  0.2184071E+04  0.7818608E-02  0.8525088E-01
         -1   -1    0    0    0  501 -0.00000000000E+00  0.00000000000E+00  0.44108858701E+03  0.44108858701E+03  0.00000000000E+00 0.  1.
          2   -1    0    0  501    0  0.00000000000E+00 -0.00000000000E+00 -0.27036324205E+04  0.27036324205E+04  0.00000000000E+00 0. -1.
         24    2    1    2    0    0 -0.94139326385E+02 -0.88945897639E+03 -0.74327219222E+03  0.11650584361E+04  0.70058006316E+02 0.  0.
        254    2    1    2    0    0  0.94139326385E+02  0.88945897639E+03 -0.15192716413E+04  0.19796625715E+04  0.90048769751E+03 0.  0.
         23    2    4    4    0    0 -0.77823536299E+02 -0.16131792267E+03 -0.25860417356E+03  0.32710590373E+03  0.89678195210E+02 0.  0.
         23    2    4    4    0    0  0.17196286268E+03  0.10507768991E+04 -0.12606674677E+04  0.16525566677E+04  0.89206267274E+02 0.  0.
          2    1    3    3  502    0 -0.10375383041E+03 -0.78289638819E+03 -0.66600925560E+03  0.10330827365E+04  0.00000000000E+00 0. -1.
         -1    1    3    3    0  502  0.96145040222E+01 -0.10656258820E+03 -0.77262936619E+02  0.13197569953E+03  0.00000000000E+00 0.  1.
         11    1    5    5    0    0 -0.10220203401E+02  0.25218429678E+01  0.31523302091E+01  0.10988604792E+02  0.00000000000E+00 0.  1.
        -11    1    5    5    0    0 -0.67603332898E+02 -0.16383976564E+03 -0.26175650377E+03  0.31611729894E+03  0.00000000000E+00 0. -1.
          4    1    6    6  503    0  0.81543794016E+02  0.70994439120E+03 -0.80602255645E+03  0.10771920861E+04  0.00000000000E+00 0. -1.
         -4    1    6    6    0  503  0.90419068668E+02  0.34083250787E+03 -0.45464491129E+03  0.57536458160E+03  0.00000000000E+00 0.  1.
<mgrwt>
<rscale>  0 0.21840709E+04</rscale>
<asrwt>0</asrwt>
<pdfrwt beam="1">  1        2 0.41594345E+00 0.21840709E+04</pdfrwt>
<pdfrwt beam="2">  1       -1 0.67859783E-01 0.21840709E+04</pdfrwt>
<totfact> 0.60538603E+00</totfact>
</mgrwt>
</event>
<event>
12    6  0.1395358E-007  0.1469539E+04  0.7818608E-02  0.8904965E-01
         -1   -1    0    0    0  501 -0.00000000000E+00  0.00000000000E+00  0.42783078431E+03  0.42783078431E+03  0.00000000000E+00 0.  1.
          2   -1    0    0  501    0  0.00000000000E+00 -0.00000000000E+00 -0.12619157946E+04  0.12619157946E+04  0.00000000000E+00 0. -1.
         24    2    1    2    0    0 -0.12057009657E+03 -0.38648446777E+03 -0.21145773033E+02  0.41318605258E+03  0.79800866644E+02 0.  0.
        254    2    1    2    0    0  0.12057009657E+03  0.38648446777E+03 -0.81293923721E+03  0.12765605263E+04  0.89712272397E+03 0.  0.
         23    2    4    4    0    0  0.14991543010E+03 -0.20895773260E+03 -0.55870737623E+03  0.62167904283E+03  0.90514804560E+02 0.  0.
         23    2    4    4    0    0 -0.29345333532E+02  0.59544220037E+03 -0.25423186098E+03  0.65488148346E+03  0.93932718799E+02 0.  0.
          4    1    3    3  502    0 -0.75317876903E+02 -0.31582045213E+03 -0.40146819217E+02  0.32714997732E+03  0.00000000000E+00 0. -1.
         -3    1    3    3    0  502 -0.45252219668E+02 -0.70664015641E+02  0.19001046183E+02  0.86036075267E+02  0.00000000000E+00 0.  1.
         11    1    5    5    0    0  0.62379863607E+02 -0.70697370591E+02 -0.30953892314E+03  0.32357952737E+03  0.00000000000E+00 0. -1.
        -11    1    5    5    0    0  0.87535566495E+02 -0.13826036200E+03 -0.24916845308E+03  0.29809951546E+03  0.00000000000E+00 0.  1.
          3    1    6    6  503    0 -0.31525846955E+02  0.19280562946E+03 -0.12532125057E+03  0.23210623779E+03  0.00000000000E+00 0. -1.
         -3    1    6    6    0  503  0.21805134230E+01  0.40263657091E+03 -0.12891061041E+03  0.42277524567E+03  0.00000000000E+00 0.  1.
<mgrwt>
<rscale>  0 0.14695393E+04</rscale>
<asrwt>0</asrwt>
<pdfrwt beam="1">  1        2 0.19414089E+00 0.14695393E+04</pdfrwt>
<pdfrwt beam="2">  1       -1 0.65820121E-01 0.14695393E+04</pdfrwt>
<totfact> 0.44953678E+01</totfact>
</mgrwt>
</event>
<event>
12    6  0.1395358E-007  0.5523840E+04  0.7818608E-02  0.7752417E-01
         -1   -1    0    0    0  501 -0.00000000000E+00  0.00000000000E+00  0.41901588147E+04  0.41901588147E+04  0.00000000000E+00 0.  1.
          2   -1    0    0  501    0  0.00000000000E+00 -0.00000000000E+00 -0.18205041618E+04  0.18205041618E+04  0.00000000000E+00 0. -1.
         24    2    1    2    0    0  0.97850342192E+03  0.24485592819E+04  0.58487973508E+03  0.27020857554E+04  0.79193569506E+02 0.  0.
        254    2    1    2    0    0 -0.97850342192E+03 -0.24485592819E+04  0.17847749178E+04  0.33085772210E+04  0.89908298656E+03 0.  0.
         23    2    4    4    0    0 -0.11175773976E+03 -0.39719703544E+03 -0.45407266766E+02  0.42464263721E+03  0.89466597668E+02 0.  0.
         23    2    4    4    0    0 -0.86674568216E+03 -0.20513622465E+04  0.18301821845E+04  0.28839345838E+04  0.90425170319E+02 0.  0.
          2    1    3    3  502    0  0.60641359672E+03  0.16179633334E+04  0.38832660143E+03  0.17709715831E+04  0.00000000000E+00 0. -1.
         -1    1    3    3    0  502  0.37208982520E+03  0.83059594850E+03  0.19655313364E+03  0.93111417239E+03  0.00000000000E+00 0.  1.
         11    1    5    5    0    0 -0.83952014464E+02 -0.16070155943E+03  0.44114789872E+01  0.18136260112E+03  0.00000000000E+00 0. -1.
        -11    1    5    5    0    0 -0.27805725301E+02 -0.23649547601E+03 -0.49818745754E+02  0.24328003609E+03  0.00000000000E+00 0.  1.
          1    1    6    6  503    0 -0.30387743006E+03 -0.70250549140E+03  0.68442338819E+03  0.10267866537E+04  0.00000000000E+00 0. -1.
         -1    1    6    6    0  503 -0.56286825210E+03 -0.13488567551E+04  0.11457587963E+04  0.18571479301E+04  0.00000000000E+00 0.  1.
<mgrwt>
<rscale>  0 0.55238398E+04</rscale>
<asrwt>0</asrwt>
<pdfrwt beam="1">  1        2 0.28007756E+00 0.55238398E+04</pdfrwt>
<pdfrwt beam="2">  1       -1 0.64463982E+00 0.55238398E+04</pdfrwt>
<totfact> 0.20762875E-03</totfact>
</mgrwt>
</event>
<event>
12    6  0.1395358E-007  0.2118692E+04  0.7818608E-02  0.8553054E-01
         -3   -1    0    0    0  501 -0.00000000000E+00  0.00000000000E+00  0.10394440364E+04  0.10394440364E+04  0.00000000000E+00 0.  1.
          4   -1    0    0  501    0  0.00000000000E+00 -0.00000000000E+00 -0.10796292793E+04  0.10796292793E+04  0.00000000000E+00 0. -1.
         24    2    1    2    0    0 -0.45331950505E+03  0.57435999062E+03  0.44606801872E+03  0.86161134739E+03  0.89495609597E+02 0.  0.
        254    2    1    2    0    0  0.45331950505E+03 -0.57435999062E+03 -0.48625326159E+03  0.12574619683E+04  0.89965570902E+03 0.  0.
         23    2    4    4    0    0  0.51538709737E+03 -0.72393525139E+03 -0.56324924259E+03  0.10559383008E+04  0.89721109184E+02 0.  0.
         23    2    4    4    0    0 -0.62067592315E+02  0.14957526077E+03  0.76995980990E+02  0.20152366751E+03  0.91968814433E+02 0.  0.
          2    1    3    3  502    0 -0.27604396434E+03  0.35582853532E+03  0.22305818438E+03  0.50256260348E+03  0.00000000000E+00 0. -1.
         -1    1    3    3    0  502 -0.17727554072E+03  0.21853145530E+03  0.22300983434E+03  0.35904874391E+03  0.00000000000E+00 0.  1.
         11    1    5    5    0    0  0.36163725545E+03 -0.57357748580E+03 -0.43268971051E+03  0.80435876468E+03  0.00000000000E+00 0. -1.
        -11    1    5    5    0    0  0.15374984192E+03 -0.15035776559E+03 -0.13055953208E+03  0.25157953609E+03  0.00000000000E+00 0.  1.
          3    1    6    6  503    0  0.18920706196E+02  0.49788477907E+01  0.21770976327E+01  0.19685573458E+02  0.00000000000E+00 0. -1.
         -3    1    6    6    0  503 -0.80988298510E+02  0.14459641297E+03  0.74818883358E+02  0.18183809405E+03  0.00000000000E+00 0.  1.
<mgrwt>
<rscale>  0 0.21186923E+04</rscale>
<asrwt>0</asrwt>
<pdfrwt beam="1">  1        4 0.16609681E+00 0.21186923E+04</pdfrwt>
<pdfrwt beam="2">  1       -3 0.15991447E+00 0.21186923E+04</pdfrwt>
<totfact> 0.12926495E-01</totfact>
</mgrwt>
</event>
<event>
12    6  0.1395358E-007  0.2112939E+04  0.7818608E-02  0.8555565E-01
         -1   -1    0    0    0  501 -0.00000000000E+00  0.00000000000E+00  0.18568900554E+04  0.18568900554E+04  0.00000000000E+00 0.  1.
          2   -1    0    0  501    0  0.00000000000E+00 -0.00000000000E+00 -0.60107376702E+03  0.60107376702E+03  0.00000000000E+00 0. -1.
         24    2    1    2    0    0  0.84751814552E+03 -0.91955912222E+02  0.35567497455E+03  0.92706067938E+03  0.78701454522E+02 0.  0.
        254    2    1    2    0    0 -0.84751814552E+03  0.91955912222E+02  0.90014131380E+03  0.15309031430E+04  0.89814650902E+03 0.  0.
         23    2    4    4    0    0  0.12739739064E+03  0.16954916704E+03  0.56338456642E+02  0.23664209660E+03  0.88591449955E+02 0.  0.
         23    2    4    4    0    0 -0.97491553616E+03 -0.77593254814E+02  0.84380285716E+03  0.12942610464E+04  0.81408713565E+02 0.  0.
          4    1    3    3  502    0  0.14787741895E+03 -0.46278526466E+02  0.61054536699E+02  0.16654455710E+03  0.00000000000E+00 0. -1.
         -3    1    3    3    0  502  0.69964072657E+03 -0.45677385756E+02  0.29462043785E+03  0.76051612228E+03  0.00000000000E+00 0.  1.
         11    1    5    5    0    0  0.63347875881E+02  0.50841938613E+02 -0.17178886327E+02  0.83023913640E+02  0.00000000000E+00 0.  1.
        -11    1    5    5    0    0  0.64049514755E+02  0.11870722842E+03  0.73517342969E+02  0.15361818297E+03  0.00000000000E+00 0. -1.
          1    1    6    6  503    0 -0.63146680557E+03 -0.82867630265E+02  0.57592113922E+03  0.85866322227E+03  0.00000000000E+00 0. -1.
         -1    1    6    6    0  503 -0.34344873059E+03  0.52743754507E+01  0.26788171794E+03  0.43559782413E+03  0.00000000000E+00 0.  1.
<mgrwt>
<rscale>  0 0.21129391E+04</rscale>
<asrwt>0</asrwt>
<pdfrwt beam="1">  1        2 0.92472888E-01 0.21129391E+04</pdfrwt>
<pdfrwt beam="2">  1       -1 0.28567539E+00 0.21129391E+04</pdfrwt>
<totfact> 0.21278641E+00</totfact>
</mgrwt>
</event>
<event>
12    6  0.1395358E-007  0.5304295E+04  0.7818608E-02  0.7783208E-01
          2   -1    0    0  501    0  0.00000000000E+00  0.00000000000E+00  0.25897136447E+04  0.25897136447E+04  0.00000000000E+00 0. -1.
         -1   -1    0    0    0  501 -0.00000000000E+00 -0.00000000000E+00 -0.27160869068E+04  0.27160869068E+04  0.00000000000E+00 0.  1.
         24    2    1    2    0    0 -0.17399150653E+04  0.10716647440E+04  0.15060035646E+04  0.25397576889E+04  0.80948279713E+02 0.  0.
        254    2    1    2    0    0  0.17399150653E+04 -0.10716647440E+04 -0.16323768268E+04  0.27660428626E+04  0.90031619730E+03 0.  0.
         23    2    4    4    0    0  0.11246738914E+04 -0.74488397543E+03 -0.15523354351E+04  0.20585903556E+04  0.91134242475E+02 0.  0.
         23    2    4    4    0    0  0.61524117389E+03 -0.32678076857E+03 -0.80041391652E+02  0.70745250699E+03  0.93675250288E+02 0.  0.
          2    1    3    3  502    0 -0.77225924246E+03  0.49536851855E+03  0.72162736785E+03  0.11672704763E+04  0.00000000000E+00 0. -1.
         -1    1    3    3    0  502 -0.96765582280E+03  0.57629622544E+03  0.78437619676E+03  0.13724872127E+04  0.00000000000E+00 0.  1.
         11    1    5    5    0    0  0.51239551844E+03 -0.37968604492E+03 -0.68637583517E+03  0.93692179350E+03  0.00000000000E+00 0.  1.
        -11    1    5    5    0    0  0.61227837292E+03 -0.36519793051E+03 -0.86595959993E+03  0.11216685621E+04  0.00000000000E+00 0. -1.
          3    1    6    6  503    0  0.22917955992E+03 -0.17225075967E+03 -0.44035231622E+02  0.29005636783E+03  0.00000000000E+00 0. -1.
         -3    1    6    6    0  503  0.38606161397E+03 -0.15453000890E+03 -0.36006160030E+02  0.41739613917E+03  0.00000000000E+00 0.  1.
<mgrwt>
<rscale>  0 0.53042954E+04</rscale>
<asrwt>0</asrwt>
<pdfrwt beam="1">  1        2 0.39841749E+00 0.53042954E+04</pdfrwt>
<pdfrwt beam="2">  1       -1 0.41785952E+00 0.53042954E+04</pdfrwt>
<totfact> 0.13479184E-02</totfact>
</mgrwt>
</event>
<event>
12    6  0.1395358E-007  0.2909129E+04  0.7818608E-02  0.8270167E-01
          2   -1    0    0  501    0  0.00000000000E+00  0.00000000000E+00  0.16819429247E+04  0.16819429247E+04  0.00000000000E+00 0. -1.
         -1   -1    0    0    0  501 -0.00000000000E+00 -0.00000000000E+00 -0.12579246752E+04  0.12579246752E+04  0.00000000000E+00 0.  1.
         24    2    1    2    0    0  0.24537179008E+03  0.10832058588E+04 -0.51752484131E+03  0.12278763663E+04  0.79411344407E+02 0.  0.
        254    2    1    2    0    0 -0.24537179008E+03 -0.10832058588E+04  0.94154309078E+03  0.17119912337E+04  0.90048228436E+03 0.  0.
         23    2    4    4    0    0 -0.24667639378E+02 -0.11415192090E+04  0.60603752901E+03  0.12959327301E+04  0.92117085676E+02 0.  0.
         23    2    4    4    0    0 -0.22070415070E+03  0.58313350158E+02  0.33550556177E+03  0.41605850358E+03  0.91814636538E+02 0.  0.
          4    1    3    3  502    0  0.17496238043E+03  0.59461939922E+03 -0.28397662524E+03  0.68178206795E+03  0.00000000000E+00 0. -1.
         -3    1    3    3    0  502  0.70409409641E+02  0.48858645959E+03 -0.23354821607E+03  0.54609429835E+03  0.00000000000E+00 0.  1.
         11    1    5    5    0    0 -0.51038625686E+02 -0.67457322029E+03  0.32779853340E+03  0.75173522556E+03  0.00000000000E+00 0.  1.
        -11    1    5    5    0    0  0.26370986308E+02 -0.46694598868E+03  0.27823899561E+03  0.54419750453E+03  0.00000000000E+00 0. -1.
          1    1    6    6  503    0 -0.67431882755E+02 -0.63212670845E+01  0.45046728227E+02  0.81340180436E+02  0.00000000000E+00 0. -1.
         -1    1    6    6    0  503 -0.15327226794E+03  0.64634617242E+02  0.29045883354E+03  0.33471832315E+03  0.00000000000E+00 0.  1.
<mgrwt>
<rscale>  0 0.29091287E+04</rscale>
<asrwt>0</asrwt>
<pdfrwt beam="1">  1        2 0.25876045E+00 0.29091287E+04</pdfrwt>
<pdfrwt beam="2">  1       -1 0.19352687E+00 0.29091287E+04</pdfrwt>
<totfact> 0.16447385E+00</totfact>
</mgrwt>
</event>
<event>
12    6  0.1395358E-007  0.3638029E+04  0.7818608E-02  0.8081836E-01
         -1   -1    0    0    0  501 -0.00000000000E+00  0.00000000000E+00  0.11716518878E+04  0.11716518878E+04  0.00000000000E+00 0.  1.
          2   -1    0    0  501    0  0.00000000000E+00 -0.00000000000E+00 -0.28240592082E+04  0.28240592082E+04  0.00000000000E+00 0. -1.
         24    2    1    2    0    0 -0.81289063301E+03  0.87752380931E+03  0.56108852012E+03  0.13236317301E+04  0.79632985072E+02 0.  0.
        254    2    1    2    0    0  0.81289063301E+03 -0.87752380931E+03 -0.22134958405E+04  0.26720793659E+04  0.89978057594E+03 0.  0.
         23    2    4    4    0    0  0.63983410049E+03 -0.14289435470E+03 -0.62232934125E+03  0.90852139826E+03  0.91163859894E+02 0.  0.
         23    2    4    4    0    0  0.17305653252E+03 -0.73462945461E+03 -0.15911664992E+04  0.17635579677E+04  0.93257053546E+02 0.  0.
          2    1    3    3  502    0 -0.59553138341E+03  0.63456613051E+03  0.36896438603E+03  0.94523358001E+03  0.00000000000E+00 0. -1.
         -1    1    3    3    0  502 -0.21735924959E+03  0.24295767881E+03  0.19212413409E+03  0.37839815007E+03  0.00000000000E+00 0.  1.
         11    1    5    5    0    0  0.26348958668E+03 -0.15970959071E+02 -0.26993987458E+03  0.37755710788E+03  0.00000000000E+00 0. -1.
        -11    1    5    5    0    0  0.37634451381E+03 -0.12692339563E+03 -0.35238946667E+03  0.53096429038E+03  0.00000000000E+00 0.  1.
          3    1    6    6  503    0  0.14833672396E+03 -0.49395339496E+03 -0.10105812843E+04  0.11345784557E+04  0.00000000000E+00 0. -1.
         -3    1    6    6    0  503  0.24719808562E+02 -0.24067605965E+03 -0.58058521496E+03  0.62897951195E+03  0.00000000000E+00 0.  1.
<mgrwt>
<rscale>  0 0.36380293E+04</rscale>
<asrwt>0</asrwt>
<pdfrwt beam="1">  1        2 0.43447064E+00 0.36380293E+04</pdfrwt>
<pdfrwt beam="2">  1       -1 0.18025414E+00 0.36380293E+04</pdfrwt>
<totfact> 0.42746350E-01</totfact>
</mgrwt>
</event>
<event>
12    6  0.1395358E-007  0.1250909E+04  0.7818608E-02  0.9069427E-01
         -1   -1    0    0    0  501 -0.00000000000E+00  0.00000000000E+00  0.35059408146E+03  0.35059408146E+03  0.00000000000E+00 0.  1.
          2   -1    0    0  501    0  0.00000000000E+00 -0.00000000000E+00 -0.11158005676E+04  0.11158005676E+04  0.00000000000E+00 0. -1.
         24    2    1    2    0    0 -0.27643942764E+03  0.16701364409E+02 -0.30061104757E+03  0.41648554651E+03  0.79971968862E+02 0.  0.
        254    2    1    2    0    0  0.27643942764E+03 -0.16701364409E+02 -0.46459543854E+03  0.10499091025E+04  0.89986805106E+03 0.  0.
         23    2    4    4    0    0 -0.62263150118E+02  0.31217314542E+03  0.61646567539E+02  0.33727838762E+03  0.92885084271E+02 0.  0.
         23    2    4    4    0    0  0.33870257776E+03 -0.32887450983E+03 -0.52624200608E+03  0.71263071491E+03  0.89632625036E+02 0.  0.
          2    1    3    3  502    0 -0.94592978037E+02  0.23569883324E+02 -0.15640675785E+03  0.18429987736E+03  0.00000000000E+00 0. -1.
         -1    1    3    3    0  502 -0.18184644960E+03 -0.68685189157E+01 -0.14420428973E+03  0.23218566916E+03  0.00000000000E+00 0.  1.
         11    1    5    5    0    0  0.13179626696E+02  0.94557097814E+02  0.47204970667E+02  0.10650378661E+03  0.00000000000E+00 0. -1.
        -11    1    5    5    0    0 -0.75442776814E+02  0.21761604761E+03  0.14441596871E+02  0.23077460101E+03  0.00000000000E+00 0.  1.
          1    1    6    6  503    0  0.28042231759E+03 -0.30863194707E+03 -0.47787815423E+03  0.63423803516E+03  0.00000000000E+00 0. -1.
         -1    1    6    6    0  503  0.58280260166E+02 -0.20242562763E+02 -0.48363851853E+02  0.78392679749E+02  0.00000000000E+00 0.  1.
<mgrwt>
<rscale>  0 0.12509086E+04</rscale>
<asrwt>0</asrwt>
<pdfrwt beam="1">  1        2 0.17166162E+00 0.12509086E+04</pdfrwt>
<pdfrwt beam="2">  1       -1 0.53937552E-01 0.12509086E+04</pdfrwt>
<totfact> 0.82883655E+01</totfact>
</mgrwt>
</event>
<event>
12    6  0.1395358E-007  0.2700814E+04  0.7818608E-02  0.8334741E-01
          4   -1    0    0  501    0  0.00000000000E+00  0.00000000000E+00  0.15035991719E+04  0.15035991719E+04  0.00000000000E+00 0. -1.
         -3   -1    0    0    0  501 -0.00000000000E+00 -0.00000000000E+00 -0.12128225814E+04  0.12128225814E+04  0.00000000000E+00 0.  1.
         24    2    1    2    0    0 -0.10729581145E+04  0.53471242229E+03  0.11342683129E+03  0.12067985630E+04  0.79628108046E+02 0.  0.
        254    2    1    2    0    0  0.10729581145E+04 -0.53471242229E+03  0.17734975919E+03  0.15096231903E+04  0.90019595066E+03 0.  0.
         23    2    4    4    0    0  0.67595793788E+03 -0.70753860689E+03 -0.99474831110E+02  0.98770389807E+03  0.90187217597E+02 0.  0.
         23    2    4    4    0    0  0.39700017659E+03  0.17282618460E+03  0.27682459030E+03  0.52191929221E+03  0.91048687456E+02 0.  0.
          2    1    3    3  502    0 -0.14272163529E+03  0.85634209372E+02  0.40302554477E+02  0.17125121574E+03  0.00000000000E+00 0. -1.
         -1    1    3    3    0  502 -0.93023647918E+03  0.44907821291E+03  0.73124276811E+02  0.10355473472E+04  0.00000000000E+00 0.  1.
         11    1    5    5    0    0  0.12125807018E+03 -0.87526912641E+02 -0.32834832587E+02  0.15310978496E+03  0.00000000000E+00 0. -1.
        -11    1    5    5    0    0  0.55469986770E+03 -0.62001169425E+03 -0.66639998523E+02  0.83459411311E+03  0.00000000000E+00 0.  1.
          3    1    6    6  503    0  0.17545430762E+03  0.51386189425E+02  0.16252532933E+03  0.24462059848E+03  0.00000000000E+00 0. -1.
         -3    1    6    6    0  503  0.22154586897E+03  0.12143999518E+03  0.11429926097E+03  0.27729869373E+03  0.00000000000E+00 0.  1.
<mgrwt>
<rscale>  0 0.27008140E+04</rscale>
<asrwt>0</asrwt>
<pdfrwt beam="1">  1        4 0.23132295E+00 0.27008140E+04</pdfrwt>
<pdfrwt beam="2">  1       -3 0.18658809E+00 0.27008140E+04</pdfrwt>
<totfact> 0.29453499E-02</totfact>
</mgrwt>
</event>
<event>
12    6  0.1395358E-007  0.1602536E+04  0.7818608E-02  0.8818992E-01
          2   -1    0    0  501    0  0.00000000000E+00  0.00000000000E+00  0.20902571808E+04  0.20902571808E+04  0.00000000000E+00 0. -1.
         -1   -1    0    0    0  501 -0.00000000000E+00 -0.00000000000E+00 -0.30715371080E+03  0.30715371080E+03  0.00000000000E+00 0.  1.
         24    2    1    2    0    0 -0.20211448993E+03 -0.24453899674E+03  0.12789096802E+04  0.13201730991E+04  0.81224711382E+02 0.  0.
        254    2    1    2    0    0  0.20211448993E+03  0.24453899674E+03  0.50419378985E+03  0.10772377925E+04  0.89754125021E+03 0.  0.
         23    2    4    4    0    0 -0.33345438455E+03  0.10927138212E+03  0.33406967852E+03  0.49377663837E+03  0.95293005861E+02 0.  0.
         23    2    4    4    0    0  0.53556887447E+03  0.13526761462E+03  0.17012411134E+03  0.58346115410E+03  0.79707955766E+02 0.  0.
          2    1    3    3  502    0 -0.14907520090E+03 -0.22209748804E+03  0.11075854703E+04  0.11394280511E+04  0.00000000000E+00 0. -1.
         -1    1    3    3    0  502 -0.53039289025E+02 -0.22441508697E+02  0.17132420989E+03  0.18074504803E+03  0.00000000000E+00 0.  1.
         11    1    5    5    0    0 -0.20526442554E+02 -0.11896595412E+02  0.44992720698E+02  0.50864611884E+02  0.00000000000E+00 0.  1.
        -11    1    5    5    0    0 -0.31292794199E+03  0.12116797753E+03  0.28907695782E+03  0.44291202648E+03  0.00000000000E+00 0. -1.
          4    1    6    6  503    0  0.52918641060E+03  0.14178917561E+03  0.17185233167E+03  0.57417388602E+03  0.00000000000E+00 0. -1.
         -4    1    6    6    0  503  0.63824638732E+01 -0.65215609914E+01 -0.17282203329E+01  0.92872680793E+01  0.00000000000E+00 0.  1.
<mgrwt>
<rscale>  0 0.16025358E+04</rscale>
<asrwt>0</asrwt>
<pdfrwt beam="1">  1        2 0.32157802E+00 0.16025358E+04</pdfrwt>
<pdfrwt beam="2">  1       -1 0.47254418E-01 0.16025358E+04</pdfrwt>
<totfact> 0.29041000E+01</totfact>
</mgrwt>
</event>
<event>
12    6  0.1395358E-007  0.2822977E+04  0.7818608E-02  0.8296170E-01
          2   -1    0    0  501    0  0.00000000000E+00  0.00000000000E+00  0.30100996875E+04  0.30100996875E+04  0.00000000000E+00 0. -1.
         -1   -1    0    0    0  501 -0.00000000000E+00 -0.00000000000E+00 -0.66187169057E+03  0.66187169057E+03  0.00000000000E+00 0.  1.
         24    2    1    2    0    0  0.44667921832E+03 -0.70854712200E+03  0.22914878284E+04  0.24409254263E+04  0.75094080320E+02 0.  0.
        254    2    1    2    0    0 -0.44667921832E+03  0.70854712200E+03  0.56740168604E+02  0.12310459518E+04  0.90038510683E+03 0.  0.
         23    2    4    4    0    0 -0.31861529575E+03  0.42215129896E+03  0.46381523479E+03  0.70946525096E+03  0.92135467600E+02 0.  0.
         23    2    4    4    0    0 -0.12806392257E+03  0.28639582304E+03 -0.40707506619E+03  0.52158070087E+03  0.88957193587E+02 0.  0.
          2    1    3    3  502    0  0.12250084510E+03 -0.23264404131E+03  0.80246017703E+03  0.84443593169E+03  0.00000000000E+00 0. -1.
         -1    1    3    3    0  502  0.32417837322E+03 -0.47590308069E+03  0.14890276513E+04  0.15964894946E+04  0.00000000000E+00 0.  1.
         11    1    5    5    0    0 -0.13152615172E+03  0.18822204743E+03  0.26146624417E+03  0.34798170149E+03  0.00000000000E+00 0. -1.
        -11    1    5    5    0    0 -0.18708914403E+03  0.23392925153E+03  0.20234899062E+03  0.36148354947E+03  0.00000000000E+00 0.  1.
          1    1    6    6  503    0 -0.12690597461E+03  0.20719611707E+03 -0.26969865031E+03  0.36300512297E+03  0.00000000000E+00 0. -1.
         -1    1    6    6    0  503 -0.11579479657E+01  0.79199705969E+02 -0.13737641587E+03  0.15857557790E+03  0.00000000000E+00 0.  1.
<mgrwt>
<rscale>  0 0.28229770E+04</rscale>
<asrwt>0</asrwt>
<pdfrwt beam="1">  1        2 0.46309225E+00 0.28229770E+04</pdfrwt>
<pdfrwt beam="2">  1       -1 0.10182642E+00 0.28229770E+04</pdfrwt>
<totfact> 0.15477832E+00</totfact>
</mgrwt>
</event>
<event>
12    6  0.1395358E-007  0.1589171E+04  0.7818608E-02  0.8827229E-01
          2   -1    0    0  501    0  0.00000000000E+00  0.00000000000E+00  0.15751103968E+04  0.15751103968E+04  0.00000000000E+00 0. -1.
         -1   -1    0    0    0  501 -0.00000000000E+00 -0.00000000000E+00 -0.40083906538E+03  0.40083906538E+03  0.00000000000E+00 0.  1.
         24    2    1    2    0    0  0.48515801151E+03 -0.10308685578E+03  0.65264458793E+03  0.82367759766E+03  0.80589272022E+02 0.  0.
        254    2    1    2    0    0 -0.48515801151E+03  0.10308685578E+03  0.52162674348E+03  0.11522718645E+04  0.89979486232E+03 0.  0.
         23    2    4    4    0    0  0.72566221447E+02  0.32674741157E+03  0.40420918192E+03  0.53244419583E+03  0.89900119387E+02 0.  0.
         23    2    4    4    0    0 -0.55772423295E+03 -0.22366055578E+03  0.11741756156E+03  0.61982766868E+03  0.96535438356E+02 0.  0.
          4    1    3    3  502    0  0.80700408771E+02  0.21081683638E+01  0.71294711682E+02  0.10770300025E+03  0.00000000000E+00 0. -1.
         -3    1    3    3    0  502  0.40445760274E+03 -0.10519502415E+03  0.58134987625E+03  0.71597459740E+03  0.00000000000E+00 0.  1.
         11    1    5    5    0    0  0.55654993071E+02  0.27910209810E+03  0.28410721811E+03  0.40213476696E+03  0.00000000000E+00 0.  1.
        -11    1    5    5    0    0  0.16911228375E+02  0.47645313461E+02  0.12010196382E+03  0.13030942887E+03  0.00000000000E+00 0. -1.
          2    1    6    6  503    0 -0.42781767669E+03 -0.12596241445E+03  0.81480089052E+02  0.45335802546E+03  0.00000000000E+00 0. -1.
         -2    1    6    6    0  503 -0.12990655626E+03 -0.97698141338E+02  0.35937472508E+02  0.16646964321E+03  0.00000000000E+00 0.  1.
<mgrwt>
<rscale>  0 0.15891706E+04</rscale>
<asrwt>0</asrwt>
<pdfrwt beam="1">  1        2 0.24232467E+00 0.15891706E+04</pdfrwt>
<pdfrwt beam="2">  1       -1 0.61667549E-01 0.15891706E+04</pdfrwt>
<totfact> 0.33584009E+01</totfact>
</mgrwt>
</event>
