<event>
12    7  0.2492439E-007  0.2805170E+04  0.7818608E-02  0.8301665E-01
          2   -1    0    0  501    0  0.00000000000E+00  0.00000000000E+00  0.32913380141E+04  0.32913380141E+04  0.00000000000E+00 0. -1.
         -1   -1    0    0    0  501 -0.00000000000E+00 -0.00000000000E+00 -0.59770374912E+03  0.59770374912E+03  0.00000000000E+00 0.  1.
         24    2    1    2    0    0 -0.11932442198E+04  0.20246882292E+03  0.74060719092E+03  0.14211934796E+04  0.80414568782E+02 0.  0.
        254    2    1    2    0    0  0.11932442198E+04 -0.20246882292E+03  0.19530270740E+04  0.24678482836E+04  0.90063033847E+03 0.  0.
         23    2    4    4    0    0  0.67076021150E+03 -0.41282071163E+03  0.58486320445E+03  0.98520937998E+03  0.90732316153E+02 0.  0.
         23    2    4    4    0    0  0.52248400830E+03  0.21035188870E+03  0.13681638696E+04  0.14826389036E+04  0.95437353671E+02 0.  0.
          2    1    3    3  502    0 -0.26597467284E+03  0.11631937800E+02  0.15804964650E+03  0.30960865512E+03  0.00000000000E+00 0. -1.
         -1    1    3    3    0  502 -0.92726954697E+03  0.19083688512E+03  0.58255754441E+03  0.11115848245E+04  0.00000000000E+00 0.  1.
         13    1    5    5    0    0  0.48146554059E+03 -0.34227888094E+03  0.44199125904E+03  0.73778057184E+03  0.00000000000E+00 0. -1.
        -13    1    5    5    0    0  0.18929467092E+03 -0.70541830686E+02  0.14287194541E+03  0.24742880814E+03  0.00000000000E+00 0.  1.
          3    1    6    6  503    0  0.51439602008E+03  0.18846956585E+03  0.13176027898E+04  0.14269552041E+04  0.00000000000E+00 0. -1.
         -3    1    6    6    0  503  0.80879882222E+01  0.21882322849E+02  0.50561079791E+02  0.55683699557E+02  0.00000000000E+00 0.  1.
<mgrwt>
<rscale>  0 0.28051703E+04</rscale>
<asrwt>0</asrwt>
<pdfrwt beam="1">  1        2 0.50635969E+00 0.28051703E+04</pdfrwt>
<pdfrwt beam="2">  1       -1 0.91954424E-01 0.28051703E+04</pdfrwt>
<totfact> 0.12846655E+00</totfact>
</mgrwt>
</event>
<event>
12    7  0.2492439E-007  0.2519880E+04  0.7818608E-02  0.8395937E-01
          2   -1    0    0  501    0  0.00000000000E+00  0.00000000000E+00  0.18284427946E+04  0.18284427946E+04  0.00000000000E+00 0. -1.
         -1   -1    0    0    0  501 -0.00000000000E+00 -0.00000000000E+00 -0.86819694291E+03  0.86819694291E+03  0.00000000000E+00 0.  1.
         24    2    1    2    0    0 -0.47330187901E+03  0.77306998663E+03  0.10813506272E+04  0.14135144356E+04  0.83976233738E+02 0.  0.
        254    2    1    2    0    0  0.47330187901E+03 -0.77306998663E+03 -0.12110477544E+03  0.12831253020E+04  0.90005127686E+03 0.  0.
         23    2    4    4    0    0  0.12065755407E+03 -0.80405064950E+03 -0.30664172065E+03  0.87359598129E+03  0.89917191726E+02 0.  0.
         23    2    4    4    0    0  0.35264432494E+03  0.30980662873E+02  0.18553694521E+03  0.40952932066E+03  0.89288773407E+02 0.  0.
          4    1    3    3  502    0 -0.22500602056E+03  0.36169201132E+03  0.57333130022E+03  0.71425317651E+03  0.00000000000E+00 0. -1.
         -3    1    3    3    0  502 -0.24829585846E+03  0.41137797531E+03  0.50801932694E+03  0.69926125907E+03  0.00000000000E+00 0.  1.
         13    1    5    5    0    0  0.13302229612E+03 -0.65109350325E+03 -0.24734874794E+03  0.70908327039E+03  0.00000000000E+00 0.  1.
        -13    1    5    5    0    0 -0.12364742051E+02 -0.15295714625E+03 -0.59292972708E+02  0.16451271090E+03  0.00000000000E+00 0. -1.
          1    1    6    6  503    0  0.31326191253E+02  0.65093456590E+01  0.51256020264E+02  0.60422524381E+02  0.00000000000E+00 0. -1.
         -1    1    6    6    0  503  0.32131813369E+03  0.24471317214E+02  0.13428092495E+03  0.34910679628E+03  0.00000000000E+00 0.  1.
<mgrwt>
<rscale>  0 0.25198797E+04</rscale>
<asrwt>0</asrwt>
<pdfrwt beam="1">  1        2 0.28129889E+00 0.25198797E+04</pdfrwt>
<pdfrwt beam="2">  1       -1 0.13356876E+00 0.25198797E+04</pdfrwt>
<totfact> 0.39920669E+00</totfact>
</mgrwt>
</event>
<event>
12    7  0.2492439E-007  0.1017026E+04  0.7818608E-02  0.9290065E-01
          2   -1    0    0  501    0  0.00000000000E+00  0.00000000000E+00  0.21975429998E+03  0.21975429998E+03  0.00000000000E+00 0. -1.
         -1   -1    0    0    0  501 -0.00000000000E+00 -0.00000000000E+00 -0.11767034039E+04  0.11767034039E+04  0.00000000000E+00 0.  1.
         24    2    1    2    0    0  0.50822775548E+02  0.60227197809E+02 -0.15118449599E+03  0.18838106651E+03  0.80127426774E+02 0.  0.
        254    2    1    2    0    0 -0.50822775548E+02 -0.60227197809E+02 -0.80576460795E+03  0.12080766374E+04  0.89665059444E+03 0.  0.
         23    2    4    4    0    0 -0.14260424888E+03 -0.45287909201E+03 -0.48837057469E+03  0.68702144965E+03  0.89761964525E+02 0.  0.
         23    2    4    4    0    0  0.91781473331E+02  0.39265189420E+03 -0.31739403327E+03  0.52105518775E+03  0.90333755910E+02 0.  0.
          4    1    3    3  502    0  0.58226875198E+02  0.36040362762E+02 -0.14775858263E+03  0.16285538212E+03  0.00000000000E+00 0. -1.
         -3    1    3    3    0  502 -0.74040996500E+01  0.24186835048E+02 -0.34259133546E+01  0.25525684390E+02  0.00000000000E+00 0.  1.
         13    1    5    5    0    0 -0.12514830440E+03 -0.25035834854E+03 -0.28746883420E+03  0.40122279523E+03  0.00000000000E+00 0.  1.
        -13    1    5    5    0    0 -0.17455944475E+02 -0.20252074347E+03 -0.20090174049E+03  0.28579865442E+03  0.00000000000E+00 0. -1.
          2    1    6    6  503    0 -0.13403368025E+02  0.52842268807E+02 -0.22416071916E+02  0.58944346016E+02  0.00000000000E+00 0. -1.
         -2    1    6    6    0  503  0.10518484136E+03  0.33980962539E+03 -0.29497796135E+03  0.46211084173E+03  0.00000000000E+00 0.  1.
<mgrwt>
<rscale>  0 0.10170263E+04</rscale>
<asrwt>0</asrwt>
<pdfrwt beam="1">  1        2 0.33808353E-01 0.10170263E+04</pdfrwt>
<pdfrwt beam="2">  1       -1 0.18103130E+00 0.10170263E+04</pdfrwt>
<totfact> 0.36464054E+01</totfact>
</mgrwt>
</event>
<event>
12    7  0.2492439E-007  0.1406219E+04  0.7818608E-02  0.8949330E-01
         -1   -1    0    0    0  501 -0.00000000000E+00  0.00000000000E+00  0.29295900245E+03  0.29295900245E+03  0.00000000000E+00 0.  1.
          2   -1    0    0  501    0  0.00000000000E+00 -0.00000000000E+00 -0.16874805659E+04  0.16874805659E+04  0.00000000000E+00 0. -1.
         24    2    1    2    0    0  0.29843339837E+03  0.13147295684E+03 -0.63576545650E+02  0.34202541038E+03  0.81189731758E+02 0.  0.
        254    2    1    2    0    0 -0.29843339837E+03 -0.13147295684E+03 -0.13309450178E+04  0.16384141580E+04  0.89813065920E+03 0.  0.
         23    2    4    4    0    0  0.16194387879E+03 -0.12801917623E+03 -0.10854139755E+04  0.11085919698E+04  0.90763032092E+02 0.  0.
         23    2    4    4    0    0 -0.46037727716E+03 -0.34537806056E+01 -0.24553104226E+03  0.52982218811E+03  0.92015718078E+02 0.  0.
          4    1    3    3  502    0  0.22755268073E+03  0.71229129255E+02 -0.70778099217E+02  0.24872344219E+03  0.00000000000E+00 0. -1.
         -3    1    3    3    0  502  0.70880717638E+02  0.60243827582E+02  0.72015535667E+01  0.93301968191E+02  0.00000000000E+00 0.  1.
         13    1    5    5    0    0  0.16924095099E+03 -0.13383934535E+03 -0.10519768735E+04  0.10738765349E+04  0.00000000000E+00 0.  1.
        -13    1    5    5    0    0 -0.72970721991E+01  0.58201691193E+01 -0.33437102039E+02  0.34715434954E+02  0.00000000000E+00 0. -1.
          2    1    6    6  503    0 -0.43081745307E+03  0.19057431801E+02 -0.21571386479E+03  0.48218184852E+03  0.00000000000E+00 0.  1.
         -2    1    6    6    0  503 -0.29559824090E+02 -0.22511212407E+02 -0.29817177464E+02  0.47640339589E+02  0.00000000000E+00 0. -1.
<mgrwt>
<rscale>  0 0.14062185E+04</rscale>
<asrwt>0</asrwt>
<pdfrwt beam="1">  1        2 0.25961239E+00 0.14062185E+04</pdfrwt>
<pdfrwt beam="2">  1       -1 0.45070616E-01 0.14062185E+04</pdfrwt>
<totfact> 0.53933338E+01</totfact>
</mgrwt>
</event>
<event>
12    7  0.2492439E-007  0.2628074E+04  0.7818608E-02  0.8358727E-01
         -1   -1    0    0    0  501 -0.00000000000E+00  0.00000000000E+00  0.60700747178E+03  0.60700747178E+03  0.00000000000E+00 0.  1.
          2   -1    0    0  501    0  0.00000000000E+00 -0.00000000000E+00 -0.28445997586E+04  0.28445997586E+04  0.00000000000E+00 0. -1.
         24    2    1    2    0    0  0.30956090649E+03 -0.63760429575E+03  0.21493989312E+03  0.74496479608E+03  0.80038721650E+02 0.  0.
        254    2    1    2    0    0 -0.30956090649E+03  0.63760429575E+03 -0.24525321799E+04  0.27066424343E+04  0.89923966812E+03 0.  0.
         23    2    4    4    0    0 -0.10979284523E+03  0.42372081215E+03 -0.23352460136E+04  0.23776954620E+04  0.92021575940E+02 0.  0.
         23    2    4    4    0    0 -0.19976806125E+03  0.21388348360E+03 -0.11728616635E+03  0.32894697231E+03  0.93790420209E+02 0.  0.
          2    1    3    3  502    0 -0.17539716484E+01 -0.22754547407E+02 -0.73549023767E+00  0.22833895641E+02  0.00000000000E+00 0. -1.
         -1    1    3    3    0  502  0.31131487814E+03 -0.61484974835E+03  0.21567538336E+03  0.72213090044E+03  0.00000000000E+00 0.  1.
         13    1    5    5    0    0 -0.20400929271E+02  0.12169267485E+03 -0.46406673041E+03  0.48019083217E+03  0.00000000000E+00 0.  1.
        -13    1    5    5    0    0 -0.89391915961E+02  0.30202813730E+03 -0.18711792832E+04  0.18975046298E+04  0.00000000000E+00 0. -1.
          1    1    6    6  503    0 -0.17289168111E+03  0.19219515349E+03 -0.13332194435E+03  0.29086981842E+03  0.00000000000E+00 0. -1.
         -1    1    6    6    0  503 -0.26876380146E+02  0.21688330107E+02  0.16035778000E+02  0.38077153894E+02  0.00000000000E+00 0.  1.
<mgrwt>
<rscale>  0 0.26280741E+04</rscale>
<asrwt>0</asrwt>
<pdfrwt beam="1">  1        2 0.43763073E+00 0.26280741E+04</pdfrwt>
<pdfrwt beam="2">  1       -1 0.93385765E-01 0.26280741E+04</pdfrwt>
<totfact> 0.24250106E+00</totfact>
</mgrwt>
</event>
<event>
12    7  0.2492439E-007  0.1865831E+04  0.7818608E-02  0.8672054E-01
          2   -1    0    0  501    0  0.00000000000E+00  0.00000000000E+00  0.27370669823E+04  0.27370669823E+04  0.00000000000E+00 0. -1.
         -1   -1    0    0    0  501 -0.00000000000E+00 -0.00000000000E+00 -0.31797971505E+03  0.31797971505E+03  0.00000000000E+00 0.  1.
         24    2    1    2    0    0  0.31811257563E+03  0.46252889273E+03  0.22190678311E+03  0.60855378892E+03  0.77243163026E+02 0.  0.
        254    2    1    2    0    0 -0.31811257563E+03 -0.46252889273E+03  0.21971804841E+04  0.24464929084E+04  0.91793076197E+03 0.  0.
         23    2    4    4    0    0 -0.53926334609E+03 -0.47645699189E+02  0.80408968770E+03  0.97347835170E+03  0.89581282980E+02 0.  0.
         23    2    4    4    0    0  0.22115077046E+03 -0.41488319354E+03  0.13930907964E+04  0.14730145567E+04  0.89633641606E+02 0.  0.
          4    1    3    3  502    0  0.21732934088E+03  0.25661412036E+03  0.15063596083E+03  0.36847529344E+03  0.00000000000E+00 0. -1.
         -3    1    3    3    0  502  0.10078323475E+03  0.20591477236E+03  0.71270822279E+02  0.24007849548E+03  0.00000000000E+00 0.  1.
         13    1    5    5    0    0 -0.35847381904E+03 -0.21204155235E+02  0.60258140944E+03  0.70146806779E+03  0.00000000000E+00 0. -1.
        -13    1    5    5    0    0 -0.18078952705E+03 -0.26441543954E+02  0.20150827827E+03  0.27201028390E+03  0.00000000000E+00 0.  1.
          4    1    6    6  503    0  0.12974387578E+03 -0.21559602974E+03  0.61130479389E+03  0.66106631466E+03  0.00000000000E+00 0. -1.
         -4    1    6    6    0  503  0.91406894684E+02 -0.19928716380E+03  0.78178600255E+03  0.81194824209E+03  0.00000000000E+00 0.  1.
<mgrwt>
<rscale>  0 0.18658315E+04</rscale>
<asrwt>0</asrwt>
<pdfrwt beam="1">  1        2 0.42108721E+00 0.18658315E+04</pdfrwt>
<pdfrwt beam="2">  1       -1 0.48919958E-01 0.18658315E+04</pdfrwt>
<totfact> 0.11309687E+01</totfact>
</mgrwt>
</event>
<event>
12    7  0.2492439E-007  0.1560334E+04  0.7818608E-02  0.8845294E-01
          2   -1    0    0  501    0  0.00000000000E+00  0.00000000000E+00  0.26056549109E+04  0.26056549109E+04  0.00000000000E+00 0. -1.
         -1   -1    0    0    0  501 -0.00000000000E+00 -0.00000000000E+00 -0.23359210035E+03  0.23359210035E+03  0.00000000000E+00 0.  1.
         24    2    1    2    0    0 -0.49739913796E+03  0.14168510562E+03  0.77170186804E+03  0.93220696111E+03  0.77494990778E+02 0.  0.
        254    2    1    2    0    0  0.49739913796E+03 -0.14168510562E+03  0.16003609425E+04  0.19070400502E+04  0.89898055316E+03 0.  0.
         23    2    4    4    0    0  0.50932584917E+03 -0.39120874252E+03  0.14852663522E+04  0.16206757090E+04  0.90091708078E+02 0.  0.
         23    2    4    4    0    0 -0.11926711206E+02  0.24952363690E+03  0.11509459032E+03  0.28636434117E+03  0.79708715718E+02 0.  0.
          4    1    3    3  502    0 -0.25929781537E+03  0.11355044652E+03  0.42817151320E+03  0.51328345548E+03  0.00000000000E+00 0. -1.
         -3    1    3    3    0  502 -0.23810132260E+03  0.28134659104E+02  0.34353035484E+03  0.41892350562E+03  0.00000000000E+00 0.  1.
         13    1    5    5    0    0  0.25338066800E+03 -0.20687448382E+03  0.86579889802E+03  0.92553041375E+03  0.00000000000E+00 0. -1.
        -13    1    5    5    0    0  0.25594518117E+03 -0.18433425871E+03  0.61946745420E+03  0.69514529525E+03  0.00000000000E+00 0.  1.
          2    1    6    6  503    0 -0.13672688824E+02  0.68721724536E+02  0.72046018908E+02  0.10049998350E+03  0.00000000000E+00 0.  1.
         -2    1    6    6    0  503  0.17459776178E+01  0.18080191236E+03  0.43048571416E+02  0.18586435767E+03  0.00000000000E+00 0. -1.
<mgrwt>
<rscale>  0 0.15603338E+04</rscale>
<asrwt>0</asrwt>
<pdfrwt beam="1">  1        2 0.40086997E+00 0.15603338E+04</pdfrwt>
<pdfrwt beam="2">  1       -1 0.35937248E-01 0.15603338E+04</pdfrwt>
<totfact> 0.24552329E+01</totfact>
</mgrwt>
</event>
<event>
12    7  0.2492439E-007  0.1905741E+04  0.7818608E-02  0.8652004E-01
         -1   -1    0    0    0  501 -0.00000000000E+00  0.00000000000E+00  0.16392778203E+04  0.16392778203E+04  0.00000000000E+00 0.  1.
          2   -1    0    0  501    0  0.00000000000E+00 -0.00000000000E+00 -0.55387942929E+03  0.55387942929E+03  0.00000000000E+00 0. -1.
         24    2    1    2    0    0 -0.54766029544E+03  0.32350462021E+03  0.85212138706E+03  0.10664106046E+04  0.80831187670E+02 0.  0.
        254    2    1    2    0    0  0.54766029544E+03 -0.32350462021E+03  0.23327700398E+03  0.11267466450E+04  0.90030706034E+03 0.  0.
         23    2    4    4    0    0  0.48153679625E+03  0.12210406270E+03 -0.15130434253E+03  0.52728020357E+03  0.91347253562E+02 0.  0.
         23    2    4    4    0    0  0.66123499183E+02 -0.44560868291E+03  0.38458134652E+03  0.59946644141E+03  0.92291856967E+02 0.  0.
          4    1    3    3  502    0 -0.34580330257E+03  0.17160927627E+03  0.56056382600E+03  0.68063313965E+03  0.00000000000E+00 0. -1.
         -3    1    3    3    0  502 -0.20185699287E+03  0.15189534394E+03  0.29155756105E+03  0.38577746498E+03  0.00000000000E+00 0.  1.
         13    1    5    5    0    0  0.23590470148E+03  0.22580018679E+02 -0.42386980620E+02  0.24074372588E+03  0.00000000000E+00 0.  1.
        -13    1    5    5    0    0  0.24563209477E+03  0.99524044023E+02 -0.10891736191E+03  0.28653647769E+03  0.00000000000E+00 0. -1.
          2    1    6    6  503    0  0.34178918891E+02 -0.40800215207E+03  0.32980220273E+03  0.52574085585E+03  0.00000000000E+00 0. -1.
         -2    1    6    6    0  503  0.31944580291E+02 -0.37606530844E+02  0.54779143790E+02  0.73725585562E+02  0.00000000000E+00 0.  1.
<mgrwt>
<rscale>  0 0.19057411E+04</rscale>
<asrwt>0</asrwt>
<pdfrwt beam="1">  1        2 0.85212220E-01 0.19057411E+04</pdfrwt>
<pdfrwt beam="2">  1       -1 0.25219659E+00 0.19057411E+04</pdfrwt>
<totfact> 0.39381597E+00</totfact>
</mgrwt>
</event>
<event>
12    7  0.2492439E-007  0.1962924E+04  0.7818608E-02  0.8624154E-01
         -1   -1    0    0    0  501 -0.00000000000E+00  0.00000000000E+00  0.26141685143E+03  0.26141685143E+03  0.00000000000E+00 0.  1.
          2   -1    0    0  501    0  0.00000000000E+00 -0.00000000000E+00 -0.36847941495E+04  0.36847941495E+04  0.00000000000E+00 0. -1.
         24    2    1    2    0    0 -0.54003774030E+03  0.34527764396E+03 -0.48750936393E+03  0.80944691652E+03  0.81740555345E+02 0.  0.
        254    2    1    2    0    0  0.54003774030E+03 -0.34527764396E+03 -0.29358679341E+04  0.31367640844E+04  0.89950596558E+03 0.  0.
         23    2    4    4    0    0  0.32436761940E+03 -0.73207721416E+02 -0.24583299285E+03  0.42290416428E+03  0.88545744120E+02 0.  0.
         23    2    4    4    0    0  0.21567012090E+03 -0.27206992254E+03 -0.26900349413E+04  0.27138599201E+04  0.90620289618E+02 0.  0.
          2    1    3    3  502    0 -0.47626610268E+03  0.30554130553E+03 -0.46067039074E+03  0.72965889213E+03  0.00000000000E+00 0. -1.
         -1    1    3    3    0  502 -0.63771637618E+02  0.39736338422E+02 -0.26838973185E+02  0.79788024398E+02  0.00000000000E+00 0.  1.
         13    1    5    5    0    0  0.21648923459E+03 -0.87289297327E+02 -0.18784733803E+03  0.29962248334E+03  0.00000000000E+00 0.  1.
        -13    1    5    5    0    0  0.10787838481E+03  0.14081575911E+02 -0.57985654824E+02  0.12328168094E+03  0.00000000000E+00 0. -1.
          1    1    6    6  503    0  0.20690956161E+03 -0.23626690063E+03 -0.21814957944E+04  0.22039867323E+04  0.00000000000E+00 0. -1.
         -1    1    6    6    0  503  0.87605592941E+01 -0.35803021913E+02 -0.50853914686E+03  0.50987318782E+03  0.00000000000E+00 0.  1.
<mgrwt>
<rscale>  0 0.19629236E+04</rscale>
<asrwt>0</asrwt>
<pdfrwt beam="1">  1        2 0.56689138E+00 0.19629236E+04</pdfrwt>
<pdfrwt beam="2">  1       -1 0.40217979E-01 0.19629236E+04</pdfrwt>
<totfact> 0.38611007E+00</totfact>
</mgrwt>
</event>
<event>
12    7  0.2492439E-007  0.2847886E+04  0.7818608E-02  0.8288554E-01
          2   -1    0    0  501    0  0.00000000000E+00  0.00000000000E+00  0.14555078000E+04  0.14555078000E+04  0.00000000000E+00 0. -1.
         -1   -1    0    0    0  501 -0.00000000000E+00 -0.00000000000E+00 -0.13930624504E+04  0.13930624504E+04  0.00000000000E+00 0.  1.
         24    2    1    2    0    0  0.74999989786E+03  0.10346384816E+04 -0.42614039465E+02  0.12810064311E+04  0.78644044465E+02 0.  0.
        254    2    1    2    0    0 -0.74999989786E+03 -0.10346384816E+04  0.10505938916E+03  0.15675638193E+04  0.90179943344E+03 0.  0.
         23    2    4    4    0    0 -0.91118008926E+03 -0.79713551996E+03  0.23851756648E+03  0.12372867992E+04  0.91180050404E+02 0.  0.
         23    2    4    4    0    0  0.16118019141E+03 -0.23750296160E+03 -0.13345817732E+03  0.33027702019E+03  0.94260883186E+02 0.  0.
          2    1    3    3  502    0  0.34569575700E+03  0.41610680816E+03 -0.33394782147E+02  0.54200151630E+03  0.00000000000E+00 0. -1.
         -1    1    3    3    0  502  0.40430414086E+03  0.61853167340E+03 -0.92192573182E+01  0.73900491475E+03  0.00000000000E+00 0.  1.
         13    1    5    5    0    0 -0.61469940797E+03 -0.53200182872E+03  0.20336608978E+03  0.83799706109E+03  0.00000000000E+00 0. -1.
        -13    1    5    5    0    0 -0.29648068129E+03 -0.26513369124E+03  0.35151476696E+02  0.39928973806E+03  0.00000000000E+00 0.  1.
          1    1    6    6  503    0  0.34137896450E+02 -0.13173079693E+03 -0.48950683559E+02  0.14461869953E+03  0.00000000000E+00 0. -1.
         -1    1    6    6    0  503  0.12704229496E+03 -0.10577216468E+03 -0.84507493762E+02  0.18565832066E+03  0.00000000000E+00 0.  1.
<mgrwt>
<rscale>  0 0.28478857E+04</rscale>
<asrwt>0</asrwt>
<pdfrwt beam="1">  1        2 0.22392428E+00 0.28478857E+04</pdfrwt>
<pdfrwt beam="2">  1       -1 0.21431730E+00 0.28478857E+04</pdfrwt>
<totfact> 0.15959519E+00</totfact>
</mgrwt>
</event>
<event>
12    7  0.2492439E-007  0.2369639E+04  0.7818608E-02  0.8450959E-01
          2   -1    0    0  501    0  0.00000000000E+00  0.00000000000E+00  0.13195037251E+04  0.13195037251E+04  0.00000000000E+00 0. -1.
         -1   -1    0    0    0  501 -0.00000000000E+00 -0.00000000000E+00 -0.10638823975E+04  0.10638823975E+04  0.00000000000E+00 0.  1.
         24    2    1    2    0    0 -0.10015395915E+04  0.92942084741E+02  0.22900626840E+03  0.10345937147E+04  0.78870140912E+02 0.  0.
        254    2    1    2    0    0  0.10015395915E+04 -0.92942084741E+02  0.26615059192E+02  0.13487924078E+04  0.89822759561E+03 0.  0.
         23    2    4    4    0    0  0.82564986171E+03 -0.42186296542E+03  0.15528476959E+03  0.94395230227E+03  0.85243964978E+02 0.  0.
         23    2    4    4    0    0  0.17588972978E+03  0.32892088068E+03 -0.12866971040E+03  0.40484010553E+03  0.90628217903E+02 0.  0.
          4    1    3    3  502    0 -0.69702078443E+03  0.50306606643E+02  0.19305849351E+03  0.72501055890E+03  0.00000000000E+00 0. -1.
         -3    1    3    3    0  502 -0.30451880706E+03  0.42635478098E+02  0.35947774884E+02  0.30958315582E+03  0.00000000000E+00 0.  1.
         13    1    5    5    0    0  0.32517367547E+03 -0.19917572415E+03  0.33491413754E+02  0.38279310744E+03  0.00000000000E+00 0. -1.
        -13    1    5    5    0    0  0.50047618624E+03 -0.22268724127E+03  0.12179335583E+03  0.56115919483E+03  0.00000000000E+00 0.  1.
          4    1    6    6  503    0 -0.56249011015E+01  0.49327593229E+02 -0.77980714635E+01  0.50255953724E+02  0.00000000000E+00 0. -1.
         -4    1    6    6    0  503  0.18151463088E+03  0.27959328745E+03 -0.12087163893E+03  0.35458415180E+03  0.00000000000E+00 0.  1.
<mgrwt>
<rscale>  0 0.23696386E+04</rscale>
<asrwt>0</asrwt>
<pdfrwt beam="1">  1        2 0.20300057E+00 0.23696386E+04</pdfrwt>
<pdfrwt beam="2">  1       -1 0.16367422E+00 0.23696386E+04</pdfrwt>
<totfact> 0.45360627E+00</totfact>
</mgrwt>
</event>
<event>
12    7  0.2492439E-007  0.2121623E+04  0.7818608E-02  0.8551778E-01
         -1   -1    0    0    0  501 -0.00000000000E+00  0.00000000000E+00  0.10083451369E+04  0.10083451369E+04  0.00000000000E+00 0.  1.
          2   -1    0    0  501    0  0.00000000000E+00 -0.00000000000E+00 -0.11160078763E+04  0.11160078763E+04  0.00000000000E+00 0. -1.
         24    2    1    2    0    0  0.78271235038E+03  0.34338025957E+03 -0.19488478119E+03  0.88014908718E+03  0.78318016084E+02 0.  0.
        254    2    1    2    0    0 -0.78271235038E+03 -0.34338025957E+03  0.87222041849E+02  0.12442039260E+04  0.89993727490E+03 0.  0.
         23    2    4    4    0    0 -0.60527331972E+03 -0.57179738782E+02  0.43387451025E+03  0.75252082932E+03  0.91734365569E+02 0.  0.
         23    2    4    4    0    0 -0.17743903066E+03 -0.28620052078E+03 -0.34665246841E+03  0.49168309666E+03  0.90493016272E+02 0.  0.
          2    1    3    3  502    0  0.75721902735E+01  0.35418681197E+01 -0.11379207025E+02  0.14119817556E+02  0.00000000000E+00 0. -1.
         -1    1    3    3    0  502  0.77514016010E+03  0.33983839145E+03 -0.18350557416E+03  0.86602926963E+03  0.00000000000E+00 0.  1.
         13    1    5    5    0    0 -0.28066665249E+03 -0.65593217682E+02  0.23364590412E+03  0.37103456516E+03  0.00000000000E+00 0. -1.
        -13    1    5    5    0    0 -0.32460666722E+03  0.84134788998E+01  0.20022860613E+03  0.38148626417E+03  0.00000000000E+00 0.  1.
          1    1    6    6  503    0 -0.12618607161E+03 -0.21773843536E+03 -0.30825478929E+03  0.39793713827E+03  0.00000000000E+00 0. -1.
         -1    1    6    6    0  503 -0.51252959053E+02 -0.68462085426E+02 -0.38397679119E+02  0.93745958389E+02  0.00000000000E+00 0.  1.
<mgrwt>
<rscale>  0 0.21216231E+04</rscale>
<asrwt>0</asrwt>
<pdfrwt beam="1">  1        2 0.17169352E+00 0.21216231E+04</pdfrwt>
<pdfrwt beam="2">  1       -1 0.15513002E+00 0.21216231E+04</pdfrwt>
<totfact> 0.71131984E+00</totfact>
</mgrwt>
</event>
<event>
12    7  0.2492439E-007  0.1638128E+04  0.7818608E-02  0.8797461E-01
          2   -1    0    0  501    0  0.00000000000E+00  0.00000000000E+00  0.23726282276E+04  0.23726282276E+04  0.00000000000E+00 0. -1.
         -1   -1    0    0    0  501 -0.00000000000E+00 -0.00000000000E+00 -0.28275210424E+03  0.28275210424E+03  0.00000000000E+00 0.  1.
         24    2    1    2    0    0  0.39486947973E+03  0.36987044028E+03  0.44551233129E+03  0.70536779561E+03  0.79601765941E+02 0.  0.
        254    2    1    2    0    0 -0.39486947973E+03 -0.36987044028E+03  0.16443637920E+04  0.19500125362E+04  0.89771407594E+03 0.  0.
         23    2    4    4    0    0 -0.42866258342E+03  0.11601537672E+03  0.12069590863E+04  0.12893046701E+04  0.91351618475E+02 0.  0.
         23    2    4    4    0    0  0.33793103684E+02 -0.48588581700E+03  0.43740470570E+03  0.66070786609E+03  0.89358864883E+02 0.  0.
          4    1    3    3  502    0  0.12599574740E+03  0.12675799976E+03  0.19632243497E+03  0.26549014546E+03  0.00000000000E+00 0. -1.
         -3    1    3    3    0  502  0.26887373233E+03  0.24311244052E+03  0.24918989632E+03  0.43987765015E+03  0.00000000000E+00 0.  1.
         13    1    5    5    0    0 -0.99255165823E+02  0.51111616084E+02  0.21826815277E+03  0.24516315333E+03  0.00000000000E+00 0. -1.
        -13    1    5    5    0    0 -0.32940741759E+03  0.64903760632E+02  0.98869093356E+03  0.10441415168E+04  0.00000000000E+00 0.  1.
          4    1    6    6  503    0  0.66394844111E+01 -0.85080817421E+02  0.12711184369E+03  0.15310208703E+03  0.00000000000E+00 0. -1.
         -4    1    6    6    0  503  0.27153619273E+02 -0.40080499958E+03  0.31029286201E+03  0.50760577906E+03  0.00000000000E+00 0.  1.
<mgrwt>
<rscale>  0 0.16381277E+04</rscale>
<asrwt>0</asrwt>
<pdfrwt beam="1">  1        2 0.36501971E+00 0.16381277E+04</pdfrwt>
<pdfrwt beam="2">  1       -1 0.43500325E-01 0.16381277E+04</pdfrwt>
<totfact> 0.23443780E+01</totfact>
</mgrwt>
</event>
<event>
12    7  0.2492439E-007  0.5887928E+04  0.7818608E-02  0.7704455E-01
         -1   -1    0    0    0  501 -0.00000000000E+00  0.00000000000E+00  0.28452742370E+04  0.28452742370E+04  0.00000000000E+00 0.  1.
          2   -1    0    0  501    0  0.00000000000E+00 -0.00000000000E+00 -0.30460764191E+04  0.30460764191E+04  0.00000000000E+00 0. -1.
         24    2    1    2    0    0  0.85916092450E+03 -0.22343101794E+04 -0.16904052188E+04  0.29315976049E+04  0.80593060484E+02 0.  0.
        254    2    1    2    0    0 -0.85916092450E+03  0.22343101794E+04  0.14896030367E+04  0.29597530512E+04  0.90051176851E+03 0.  0.
         23    2    4    4    0    0 -0.18157128712E+03  0.15295809897E+02  0.26552726879E+03  0.33499325819E+03  0.92269488209E+02 0.  0.
         23    2    4    4    0    0 -0.67758963738E+03  0.22190143695E+04  0.12240757679E+04  0.26247597930E+04  0.88600207215E+02 0.  0.
          2    1    3    3  502    0  0.63291450492E+03 -0.15451665412E+04 -0.11881724601E+04  0.20493594622E+04  0.00000000000E+00 0. -1.
         -1    1    3    3    0  502  0.22624641958E+03 -0.68914363824E+03 -0.50223275876E+03  0.88223814272E+03  0.00000000000E+00 0.  1.
         13    1    5    5    0    0 -0.12270628873E+03  0.40761867930E+02  0.22383279494E+03  0.25849464842E+03  0.00000000000E+00 0.  1.
        -13    1    5    5    0    0 -0.58864998389E+02 -0.25466058033E+02  0.41694473851E+02  0.76498609771E+02  0.00000000000E+00 0. -1.
          2    1    6    6  503    0 -0.57858899196E+03  0.19549241456E+04  0.11009212304E+04  0.23170069469E+04  0.00000000000E+00 0. -1.
         -2    1    6    6    0  503 -0.99000645415E+02  0.26409022392E+03  0.12315453752E+03  0.30775284609E+03  0.00000000000E+00 0.  1.
<mgrwt>
<rscale>  0 0.58879276E+04</rscale>
<asrwt>0</asrwt>
<pdfrwt beam="1">  1        2 0.46862714E+00 0.58879276E+04</pdfrwt>
<pdfrwt beam="2">  1       -1 0.43773450E+00 0.58879276E+04</pdfrwt>
<totfact> 0.49603220E-03</totfact>
</mgrwt>
</event>
<event>
12    7  0.2492439E-007  0.4693553E+04  0.7818608E-02  0.7877601E-01
          2   -1    0    0  501    0  0.00000000000E+00  0.00000000000E+00  0.30453456899E+04  0.30453456899E+04  0.00000000000E+00 0. -1.
         -1   -1    0    0    0  501 -0.00000000000E+00 -0.00000000000E+00 -0.18084513010E+04  0.18084513010E+04  0.00000000000E+00 0.  1.
         24    2    1    2    0    0 -0.22375986821E+04 -0.30048810788E+03  0.69518146612E+03  0.23636247405E+04  0.79395704044E+02 0.  0.
        254    2    1    2    0    0  0.22375986821E+04  0.30048810788E+03  0.54171292282E+03  0.24901722504E+04  0.90020218877E+03 0.  0.
         23    2    4    4    0    0  0.12668466945E+04 -0.16137297982E+03 -0.58217456446E+01  0.12801884083E+04  0.88919524403E+02 0.  0.
         23    2    4    4    0    0  0.97075198760E+03  0.46186108770E+03  0.54753466846E+03  0.12099838422E+04  0.92690880588E+02 0.  0.
          4    1    3    3  502    0 -0.10421671209E+04 -0.12880201848E+03  0.36314297392E+03  0.11111143448E+04  0.00000000000E+00 0. -1.
         -3    1    3    3    0  502 -0.11954315613E+04 -0.17168608940E+03  0.33203849220E+03  0.12525103957E+04  0.00000000000E+00 0.  1.
         13    1    5    5    0    0  0.88313380403E+02  0.85657340324E+01 -0.11367630075E+02  0.89453048976E+02  0.00000000000E+00 0.  1.
        -13    1    5    5    0    0  0.11785333141E+04 -0.16993871385E+03  0.55458844300E+01  0.11907353593E+04  0.00000000000E+00 0. -1.
          3    1    6    6  503    0  0.95207536323E+03  0.45013084258E+03  0.51941683866E+03  0.11742483234E+04  0.00000000000E+00 0. -1.
         -3    1    6    6    0  503  0.18676624376E+02  0.11730245125E+02  0.28117829798E+02  0.35735518763E+02  0.00000000000E+00 0.  1.
<mgrwt>
<rscale>  0 0.46935528E+04</rscale>
<asrwt>0</asrwt>
<pdfrwt beam="1">  1        2 0.46851472E+00 0.46935528E+04</pdfrwt>
<pdfrwt beam="2">  1       -1 0.27822328E+00 0.46935528E+04</pdfrwt>
<totfact> 0.63110638E-02</totfact>
</mgrwt>
</event>
<event>
12    7  0.2492439E-007  0.2515115E+04  0.7818608E-02  0.8397620E-01
         -1   -1    0    0    0  501 -0.00000000000E+00  0.00000000000E+00  0.78240605889E+03  0.78240605889E+03  0.00000000000E+00 0.  1.
          2   -1    0    0  501    0  0.00000000000E+00 -0.00000000000E+00 -0.20212664838E+04  0.20212664838E+04  0.00000000000E+00 0. -1.
         24    2    1    2    0    0  0.32572437192E+03 -0.95543955077E+03 -0.10100395836E+04  0.14302394937E+04  0.80274201405E+02 0.  0.
        254    2    1    2    0    0 -0.32572437192E+03  0.95543955077E+03 -0.22882084132E+03  0.13734330489E+04  0.90277254106E+03 0.  0.
         23    2    4    4    0    0 -0.49918152746E+03  0.99088253964E+03 -0.64177906222E+02  0.11151813830E+04  0.92088591695E+02 0.  0.
         23    2    4    4    0    0  0.17345715553E+03 -0.35442988871E+02 -0.16464293509E+03  0.25825166591E+03  0.90791170278E+02 0.  0.
          4    1    3    3  502    0  0.99360836085E+02 -0.31698536469E+03 -0.38538236016E+03  0.50879451717E+03  0.00000000000E+00 0. -1.
         -3    1    3    3    0  502  0.22636353584E+03 -0.63845418608E+03 -0.62465722341E+03  0.92144497656E+03  0.00000000000E+00 0.  1.
         13    1    5    5    0    0 -0.25033246418E+03  0.59766577444E+03 -0.40167044064E+02  0.64921807737E+03  0.00000000000E+00 0.  1.
        -13    1    5    5    0    0 -0.24884906328E+03  0.39321676520E+03 -0.24010862158E+02  0.46596330567E+03  0.00000000000E+00 0. -1.
          3    1    6    6  503    0  0.18148668262E+03 -0.21421683634E+02 -0.14949831686E+03  0.23610601695E+03  0.00000000000E+00 0. -1.
         -3    1    6    6    0  503 -0.80295270900E+01 -0.14021305238E+02 -0.15144618239E+02  0.22145648951E+02  0.00000000000E+00 0.  1.
<mgrwt>
<rscale>  0 0.25151152E+04</rscale>
<asrwt>0</asrwt>
<pdfrwt beam="1">  1        2 0.31096407E+00 0.25151152E+04</pdfrwt>
<pdfrwt beam="2">  1       -1 0.12037016E+00 0.25151152E+04</pdfrwt>
<totfact> 0.40485217E+00</totfact>
</mgrwt>
</event>
<event>
12    7  0.2492439E-007  0.2252616E+04  0.7818608E-02  0.8496842E-01
          2   -1    0    0  501    0  0.00000000000E+00  0.00000000000E+00  0.12208917987E+04  0.12208917987E+04  0.00000000000E+00 0. -1.
         -1   -1    0    0    0  501 -0.00000000000E+00 -0.00000000000E+00 -0.10390521512E+04  0.10390521512E+04  0.00000000000E+00 0.  1.
         24    2    1    2    0    0 -0.94338081434E+02 -0.53498780444E+03  0.85128433745E+03  0.10125427701E+04  0.73798465305E+02 0.  0.
        254    2    1    2    0    0  0.94338081434E+02  0.53498780444E+03 -0.66944468989E+03  0.12474011798E+04  0.90152198317E+03 0.  0.
         23    2    4    4    0    0  0.68636696905E+02 -0.67463498358E+02  0.16674074132E+03  0.21246981699E+03  0.89881191259E+02 0.  0.
         23    2    4    4    0    0  0.25701384529E+02  0.60245130280E+03 -0.83618543121E+03  0.10349313629E+04  0.90932486195E+02 0.  0.
          2    1    3    3  502    0 -0.24489238007E+02 -0.72211693801E+02  0.16618041702E+03  0.18283922583E+03  0.00000000000E+00 0. -1.
         -1    1    3    3    0  502 -0.69848843427E+02 -0.46277611064E+03  0.68510392043E+03  0.82970354423E+03  0.00000000000E+00 0.  1.
         13    1    5    5    0    0  0.53239755771E+02 -0.81153853358E+02  0.16546036098E+03  0.19182687654E+03  0.00000000000E+00 0. -1.
        -13    1    5    5    0    0  0.15396941134E+02  0.13690355000E+02  0.12803803399E+01  0.20642940443E+02  0.00000000000E+00 0.  1.
          2    1    6    6  503    0 -0.27811728915E+02  0.37481502846E+03 -0.52581877640E+03  0.64633209996E+03  0.00000000000E+00 0. -1.
         -2    1    6    6    0  503  0.53513113444E+02  0.22763627434E+03 -0.31036665481E+03  0.38859926290E+03  0.00000000000E+00 0.  1.
<mgrwt>
<rscale>  0 0.22526165E+04</rscale>
<asrwt>0</asrwt>
<pdfrwt beam="1">  1        2 0.18782951E+00 0.22526165E+04</pdfrwt>
<pdfrwt beam="2">  1       -1 0.15985418E+00 0.22526165E+04</pdfrwt>
<totfact> 0.55944564E+00</totfact>
</mgrwt>
</event>
<event>
12    7  0.2492439E-007  0.2447471E+04  0.7818608E-02  0.8421942E-01
          2   -1    0    0  501    0  0.00000000000E+00  0.00000000000E+00  0.11008373487E+04  0.11008373487E+04  0.00000000000E+00 0. -1.
         -1   -1    0    0    0  501 -0.00000000000E+00 -0.00000000000E+00 -0.13603543078E+04  0.13603543078E+04  0.00000000000E+00 0.  1.
         24    2    1    2    0    0 -0.26941098668E+03 -0.88007370854E+03 -0.63414032220E+03  0.11204712810E+04  0.78803115470E+02 0.  0.
        254    2    1    2    0    0  0.26941098668E+03  0.88007370854E+03  0.37462336311E+03  0.13407203756E+04  0.90004247072E+03 0.  0.
         23    2    4    4    0    0 -0.12969757675E+03  0.96561535177E+02  0.41637152839E+03  0.45580298307E+03  0.90804835940E+02 0.  0.
         23    2    4    4    0    0  0.39910856343E+03  0.78351217336E+03 -0.41748165279E+02  0.88491739251E+03  0.90315619098E+02 0.  0.
          4    1    3    3  502    0 -0.10593251817E+03 -0.32622782095E+03 -0.28256419720E+03  0.44439713670E+03  0.00000000000E+00 0. -1.
         -3    1    3    3    0  502 -0.16347846851E+03 -0.55384588759E+03 -0.35157612500E+03  0.67607414426E+03  0.00000000000E+00 0.  1.
         13    1    5    5    0    0 -0.13454093860E+03  0.99235282230E+02  0.33650712230E+03  0.37574718729E+03  0.00000000000E+00 0. -1.
        -13    1    5    5    0    0  0.48433618536E+01 -0.26737470525E+01  0.79864406088E+02  0.80055795775E+02  0.00000000000E+00 0.  1.
          1    1    6    6  503    0  0.32511095559E+03  0.60048030140E+03  0.13500511491E+01  0.68284372183E+03  0.00000000000E+00 0. -1.
         -1    1    6    6    0  503  0.73997607840E+02  0.18303187197E+03 -0.43098216428E+02  0.20207367068E+03  0.00000000000E+00 0.  1.
<mgrwt>
<rscale>  0 0.24474712E+04</rscale>
<asrwt>0</asrwt>
<pdfrwt beam="1">  1        2 0.16935959E+00 0.24474712E+04</pdfrwt>
<pdfrwt beam="2">  1       -1 0.20928528E+00 0.24474712E+04</pdfrwt>
<totfact> 0.28885680E+00</totfact>
</mgrwt>
</event>
<event>
12    7  0.2492439E-007  0.3462776E+04  0.7818608E-02  0.8122669E-01
         -1   -1    0    0    0  501 -0.00000000000E+00  0.00000000000E+00  0.93610957128E+03  0.93610957128E+03  0.00000000000E+00 0.  1.
          2   -1    0    0  501    0  0.00000000000E+00 -0.00000000000E+00 -0.32023006121E+04  0.32023006121E+04  0.00000000000E+00 0. -1.
         24    2    1    2    0    0  0.10167258383E+04  0.12133807774E+04 -0.14248664716E+04  0.21313395185E+04  0.79619975168E+02 0.  0.
        254    2    1    2    0    0 -0.10167258383E+04 -0.12133807774E+04 -0.84132456928E+03  0.20070706648E+04  0.90248616702E+03 0.  0.
         23    2    4    4    0    0 -0.42495892671E+03 -0.89043737125E+03 -0.91128979101E+02  0.99490385400E+03  0.89779654550E+02 0.  0.
         23    2    4    4    0    0 -0.59176691158E+03 -0.32294340612E+03 -0.75019559018E+03  0.10121668108E+04  0.84898222825E+02 0.  0.
          2    1    3    3  502    0  0.75983728162E+03  0.89412687376E+03 -0.11008549403E+04  0.16089428705E+04  0.00000000000E+00 0. -1.
         -1    1    3    3    0  502  0.25688855667E+03  0.31925390360E+03 -0.32401153121E+03  0.52239664803E+03  0.00000000000E+00 0.  1.
         13    1    5    5    0    0 -0.13840848211E+03 -0.26978037587E+03  0.12553901537E+02  0.30347316120E+03  0.00000000000E+00 0. -1.
        -13    1    5    5    0    0 -0.28655044459E+03 -0.62065699538E+03 -0.10368288064E+03  0.69143069280E+03  0.00000000000E+00 0.  1.
          3    1    6    6  503    0 -0.77390004198E+02 -0.69422391390E+02 -0.88293141795E+02  0.13639780080E+03  0.00000000000E+00 0. -1.
         -3    1    6    6    0  503 -0.51437690738E+03 -0.25352101473E+03 -0.66190244839E+03  0.87576901003E+03  0.00000000000E+00 0.  1.
<mgrwt>
<rscale>  0 0.34627759E+04</rscale>
<asrwt>0</asrwt>
<pdfrwt beam="1">  1        2 0.49266163E+00 0.34627759E+04</pdfrwt>
<pdfrwt beam="2">  1       -1 0.14401686E+00 0.34627759E+04</pdfrwt>
<totfact> 0.47000960E-01</totfact>
</mgrwt>
</event>
<event>
12    7  0.2492439E-007  0.1704358E+04  0.7818608E-02  0.8758882E-01
          2   -1    0    0  501    0  0.00000000000E+00  0.00000000000E+00  0.85276771024E+03  0.85276771024E+03  0.00000000000E+00 0. -1.
         -1   -1    0    0    0  501 -0.00000000000E+00 -0.00000000000E+00 -0.85159117693E+03  0.85159117693E+03  0.00000000000E+00 0.  1.
         24    2    1    2    0    0  0.56527168905E+03  0.21707449081E+03 -0.78605652180E+02  0.61590664841E+03  0.80676725248E+02 0.  0.
        254    2    1    2    0    0 -0.56527168905E+03 -0.21707449081E+03  0.79782185495E+02  0.10884522388E+04  0.90094931153E+03 0.  0.
         23    2    4    4    0    0 -0.12328266763E+03 -0.40203636736E+03 -0.25125031246E+03  0.49816561788E+03  0.90611293497E+02 0.  0.
         23    2    4    4    0    0 -0.44198902142E+03  0.18496187655E+03  0.33103249795E+03  0.59028662088E+03  0.96387702859E+02 0.  0.
          2    1    3    3  502    0  0.61844829328E+02  0.22825754402E+02  0.16573121881E+02  0.67974012295E+02  0.00000000000E+00 0. -1.
         -1    1    3    3    0  502  0.50342685972E+03  0.19424873641E+03 -0.95178774061E+02  0.54793263611E+03  0.00000000000E+00 0.  1.
         13    1    5    5    0    0 -0.83862230130E+02 -0.16317219913E+03 -0.14471022239E+03  0.23366447885E+03  0.00000000000E+00 0. -1.
        -13    1    5    5    0    0 -0.39420437504E+02 -0.23886416823E+03 -0.10654009007E+03  0.26450113903E+03  0.00000000000E+00 0.  1.
          1    1    6    6  503    0 -0.38797504440E+03  0.15322773145E+03  0.32206813408E+03  0.52700214018E+03  0.00000000000E+00 0. -1.
         -1    1    6    6    0  503 -0.54013977015E+02  0.31734145102E+02  0.89643638731E+01  0.63284480704E+02  0.00000000000E+00 0.  1.
<mgrwt>
<rscale>  0 0.17043585E+04</rscale>
<asrwt>0</asrwt>
<pdfrwt beam="1">  1        2 0.13119503E+00 0.17043585E+04</pdfrwt>
<pdfrwt beam="2">  1       -1 0.13101403E+00 0.17043585E+04</pdfrwt>
<totfact> 0.17062059E+01</totfact>
</mgrwt>
</event>
<event>
12    7  0.2492439E-007  0.1748708E+04  0.7818608E-02  0.8734062E-01
         -1   -1    0    0    0  501 -0.00000000000E+00  0.00000000000E+00  0.30712611089E+03  0.30712611089E+03  0.00000000000E+00 0.  1.
          2   -1    0    0  501    0  0.00000000000E+00 -0.00000000000E+00 -0.24891893934E+04  0.24891893934E+04  0.00000000000E+00 0. -1.
         24    2    1    2    0    0  0.56968858260E+03 -0.14949201926E+03 -0.12154151079E+04  0.13531128460E+04  0.82386554362E+02 0.  0.
        254    2    1    2    0    0 -0.56968858260E+03  0.14949201926E+03 -0.96664817455E+03  0.14432026583E+04  0.89528334877E+03 0.  0.
         23    2    4    4    0    0  0.12858327164E+03  0.21140572138E+03 -0.22179416497E+02  0.26365047530E+03  0.88281424043E+02 0.  0.
         23    2    4    4    0    0 -0.69827185424E+03 -0.61913702116E+02 -0.94446875805E+03  0.11795521830E+04  0.88911352161E+02 0.  0.
          2    1    3    3  502    0  0.30442798045E+03 -0.88957688351E+02 -0.74464500838E+03  0.80937386546E+03  0.00000000000E+00 0. -1.
         -1    1    3    3    0  502  0.26526060215E+03 -0.60534330909E+02 -0.47077009955E+03  0.54373898049E+03  0.00000000000E+00 0.  1.
         13    1    5    5    0    0  0.45309193018E+02  0.15012984498E+03 -0.31118189271E+02  0.15987568618E+03  0.00000000000E+00 0. -1.
        -13    1    5    5    0    0  0.83274078623E+02  0.61275876392E+02  0.89387727740E+01  0.10377478912E+03  0.00000000000E+00 0.  1.
          3    1    6    6  503    0 -0.38409049682E+03 -0.67541539950E+02 -0.57109110337E+03  0.69154350385E+03  0.00000000000E+00 0. -1.
         -3    1    6    6    0  503 -0.31418135742E+03  0.56278378344E+01 -0.37337765468E+03  0.48800867915E+03  0.00000000000E+00 0.  1.
<mgrwt>
<rscale>  0 0.17487082E+04</rscale>
<asrwt>0</asrwt>
<pdfrwt beam="1">  1        2 0.38295222E+00 0.17487082E+04</pdfrwt>
<pdfrwt beam="2">  1       -1 0.47250170E-01 0.17487082E+04</pdfrwt>
<totfact> 0.17057018E+01</totfact>
</mgrwt>
</event>
<event>
12    7  0.2492439E-007  0.1284236E+04  0.7818608E-02  0.9042160E-01
          2   -1    0    0  501    0  0.00000000000E+00  0.00000000000E+00  0.84645505277E+03  0.84645505277E+03  0.00000000000E+00 0. -1.
         -1   -1    0    0    0  501 -0.00000000000E+00 -0.00000000000E+00 -0.48710865895E+03  0.48710865895E+03  0.00000000000E+00 0.  1.
         24    2    1    2    0    0  0.24776497356E+03  0.10871008717E+03  0.26752334231E+03  0.38901195209E+03  0.80970334136E+02 0.  0.
        254    2    1    2    0    0 -0.24776497356E+03 -0.10871008717E+03  0.91823051510E+02  0.94455175964E+03  0.90030061017E+03 0.  0.
         23    2    4    4    0    0 -0.61133812434E+02 -0.37877510491E+02 -0.39435317826E+03  0.41137382875E+03  0.92422664723E+02 0.  0.
         23    2    4    4    0    0 -0.18663116113E+03 -0.70832576677E+02  0.48617622977E+03  0.53317793089E+03  0.89793849339E+02 0.  0.
          2    1    3    3  502    0  0.17246676369E+03  0.50081629203E+02  0.21479766429E+03  0.27998391159E+03  0.00000000000E+00 0. -1.
         -1    1    3    3    0  502  0.75298209869E+02  0.58628457965E+02  0.52725678016E+02  0.10902804050E+03  0.00000000000E+00 0.  1.
         13    1    5    5    0    0  0.46740669578E+01 -0.33743775463E+02 -0.48361173048E+02  0.59154816735E+02  0.00000000000E+00 0.  1.
        -13    1    5    5    0    0 -0.65807879391E+02 -0.41337350279E+01 -0.34599200521E+03  0.35221901201E+03  0.00000000000E+00 0. -1.
          2    1    6    6  503    0 -0.14941023397E+03 -0.38384488578E+02  0.26565586569E+03  0.30719672191E+03  0.00000000000E+00 0.  1.
         -2    1    6    6    0  503 -0.37220927157E+02 -0.32448088099E+02  0.22052036408E+03  0.22598120898E+03  0.00000000000E+00 0. -1.
<mgrwt>
<rscale>  0 0.12842361E+04</rscale>
<asrwt>0</asrwt>
<pdfrwt beam="1">  1        2 0.13022385E+00 0.12842361E+04</pdfrwt>
<pdfrwt beam="2">  1       -1 0.74939794E-01 0.12842361E+04</pdfrwt>
<totfact> 0.64050721E+01</totfact>
</mgrwt>
</event>
<event>
12    7  0.2492439E-007  0.1398374E+04  0.7818608E-02  0.8954996E-01
          2   -1    0    0  501    0  0.00000000000E+00  0.00000000000E+00  0.34850834112E+03  0.34850834112E+03  0.00000000000E+00 0. -1.
         -1   -1    0    0    0  501 -0.00000000000E+00 -0.00000000000E+00 -0.14027279353E+04  0.14027279353E+04  0.00000000000E+00 0.  1.
         24    2    1    2    0    0  0.32509875076E+03 -0.23749944390E+03 -0.25835880375E+03  0.48355858046E+03  0.70600606662E+02 0.  0.
        254    2    1    2    0    0 -0.32509875076E+03  0.23749944390E+03 -0.79586079047E+03  0.12676776960E+04  0.90084247209E+03 0.  0.
         23    2    4    4    0    0 -0.25865237356E+03  0.45865258660E+03 -0.11954394658E+03  0.54723134722E+03  0.88927760969E+02 0.  0.
         23    2    4    4    0    0 -0.66446377199E+02 -0.22115314270E+03 -0.67631684389E+03  0.72044634878E+03  0.91184618021E+02 0.  0.
          2    1    3    3  502    0  0.88303081163E+02 -0.10161062564E+03 -0.10238149399E+03  0.16912753678E+03  0.00000000000E+00 0. -1.
         -1    1    3    3    0  502  0.23679566960E+03 -0.13588881826E+03 -0.15597730976E+03  0.31443104368E+03  0.00000000000E+00 0.  1.
         13    1    5    5    0    0 -0.38856389715E+01  0.64503949525E+02 -0.11475242685E+02  0.65631843561E+02  0.00000000000E+00 0.  1.
        -13    1    5    5    0    0 -0.25476673459E+03  0.39414863708E+03 -0.10806870389E+03  0.48159950366E+03  0.00000000000E+00 0. -1.
          4    1    6    6  503    0 -0.54591566353E+01 -0.15504269376E+03 -0.37029741897E+03  0.40148252487E+03  0.00000000000E+00 0. -1.
         -4    1    6    6    0  503 -0.60987220564E+02 -0.66110448935E+02 -0.30601942492E+03  0.31896382390E+03  0.00000000000E+00 0.  1.
<mgrwt>
<rscale>  0 0.13983739E+04</rscale>
<asrwt>0</asrwt>
<pdfrwt beam="1">  1        2 0.53616668E-01 0.13983739E+04</pdfrwt>
<pdfrwt beam="2">  1       -1 0.21580430E+00 0.13983739E+04</pdfrwt>
<totfact> 0.12152648E+01</totfact>
</mgrwt>
</event>
<event>
12    7  0.2492439E-007  0.1829464E+04  0.7818608E-02  0.8690786E-01
         -1   -1    0    0    0  501 -0.00000000000E+00  0.00000000000E+00  0.39492244810E+03  0.39492244810E+03  0.00000000000E+00 0.  1.
          2   -1    0    0  501    0  0.00000000000E+00 -0.00000000000E+00 -0.21187318771E+04  0.21187318771E+04  0.00000000000E+00 0. -1.
         24    2    1    2    0    0 -0.68739207174E+03  0.11934453383E+02 -0.56420569078E+03  0.89286434521E+03  0.78920124042E+02 0.  0.
        254    2    1    2    0    0  0.68739207174E+03 -0.11934453383E+02 -0.11596037382E+04  0.16207899800E+04  0.89979388644E+03 0.  0.
         23    2    4    4    0    0  0.34547814596E+03 -0.39923367011E+03 -0.87133634618E+03  0.10224265997E+04  0.85944463714E+02 0.  0.
         23    2    4    4    0    0  0.34191392578E+03  0.38729921673E+03 -0.28826739204E+03  0.59836338032E+03  0.89637211453E+02 0.  0.
          2    1    3    3  502    0 -0.63082054980E+03  0.96753673506E+01 -0.54304735460E+03  0.83242333468E+03  0.00000000000E+00 0. -1.
         -3    1    3    3    0  502 -0.56571521941E+02  0.22590860322E+01 -0.21158336177E+02  0.60441010532E+02  0.00000000000E+00 0.  1.
         13    1    5    5    0    0  0.10816626541E+02 -0.49373340938E+02 -0.74132020998E+02  0.89723367872E+02  0.00000000000E+00 0. -1.
        -13    1    5    5    0    0  0.33466151941E+03 -0.34986032918E+03 -0.79720432518E+03  0.93270323179E+03  0.00000000000E+00 0.  1.
          4    1    6    6  503    0  0.16060524541E+02  0.13606667136E+02 -0.36883484917E+02  0.42467320362E+02  0.00000000000E+00 0. -1.
         -4    1    6    6    0  503  0.32585340124E+03  0.37369254960E+03 -0.25138390712E+03  0.55589605996E+03  0.00000000000E+00 0.  1.
<mgrwt>
<rscale>  0 0.18294642E+04</rscale>
<asrwt>0</asrwt>
<pdfrwt beam="1">  1        2 0.32595874E+00 0.18294642E+04</pdfrwt>
<pdfrwt beam="2">  1       -1 0.60757301E-01 0.18294642E+04</pdfrwt>
<totfact> 0.16902091E+01</totfact>
</mgrwt>
</event>
<event>
12    7  0.2492439E-007  0.3253121E+04  0.7818608E-02  0.8174927E-01
          2   -1    0    0  501    0  0.00000000000E+00  0.00000000000E+00  0.16941250301E+04  0.16941250301E+04  0.00000000000E+00 0. -1.
         -1   -1    0    0    0  501 -0.00000000000E+00 -0.00000000000E+00 -0.15616905535E+04  0.15616905535E+04  0.00000000000E+00 0.  1.
         24    2    1    2    0    0 -0.85465289012E+03 -0.12268296609E+04  0.19304520969E+03  0.15095811853E+04  0.77629392496E+02 0.  0.
        254    2    1    2    0    0  0.85465289012E+03  0.12268296609E+04 -0.60610733019E+02  0.17462343983E+04  0.90006573828E+03 0.  0.
         23    2    4    4    0    0  0.13124081778E+03  0.70567796544E+03  0.29549731654E+03  0.78183159383E+03  0.93468892534E+02 0.  0.
         23    2    4    4    0    0  0.72341207234E+03  0.52115169550E+03 -0.35610804956E+03  0.96440280445E+03  0.91300110288E+02 0.  0.
          4    1    3    3  502    0 -0.50125550085E+03 -0.76702611919E+03  0.91639605374E+02  0.92086044650E+03  0.00000000000E+00 0. -1.
         -3    1    3    3    0  502 -0.35339738927E+03 -0.45980354174E+03  0.10140560431E+03  0.58872073883E+03  0.00000000000E+00 0.  1.
         13    1    5    5    0    0  0.58215134796E+01  0.87919265577E+02  0.69355223949E+02  0.11213311004E+03  0.00000000000E+00 0. -1.
        -13    1    5    5    0    0  0.12541930430E+03  0.61775869986E+03  0.22614209259E+03  0.66969848379E+03  0.00000000000E+00 0.  1.
          3    1    6    6  503    0  0.69118240678E+03  0.48128539278E+03 -0.31698798001E+03  0.89991673404E+03  0.00000000000E+00 0. -1.
         -3    1    6    6    0  503  0.32229665565E+02  0.39866302715E+02 -0.39120069550E+02  0.64486070404E+02  0.00000000000E+00 0.  1.
<mgrwt>
<rscale>  0 0.32531210E+04</rscale>
<asrwt>0</asrwt>
<pdfrwt beam="1">  1        2 0.26063462E+00 0.32531210E+04</pdfrwt>
<pdfrwt beam="2">  1       -1 0.24026009E+00 0.32531210E+04</pdfrwt>
<totfact> 0.76141234E-01</totfact>
</mgrwt>
</event>
<event>
12    7  0.2492439E-007  0.2596203E+04  0.7818608E-02  0.8369492E-01
         -1   -1    0    0    0  501 -0.00000000000E+00  0.00000000000E+00  0.67279668908E+03  0.67279668908E+03  0.00000000000E+00 0.  1.
          2   -1    0    0  501    0  0.00000000000E+00 -0.00000000000E+00 -0.25045710435E+04  0.25045710435E+04  0.00000000000E+00 0. -1.
         24    2    1    2    0    0 -0.76962334117E+03 -0.83123049324E+03 -0.64396925956E+03  0.13054815214E+04  0.79507076502E+02 0.  0.
        254    2    1    2    0    0  0.76962334117E+03  0.83123049324E+03 -0.11878050949E+04  0.18718862113E+04  0.89989600746E+03 0.  0.
         23    2    4    4    0    0  0.59296132205E+03  0.95940931969E+03 -0.11805799542E+04  0.16352769103E+04  0.91061369450E+02 0.  0.
         23    2    4    4    0    0  0.17666201912E+03 -0.12817882645E+03 -0.72251407058E+01  0.23660930094E+03  0.91063044541E+02 0.  0.
          4    1    3    3  502    0 -0.45739564277E+03 -0.44419283614E+03 -0.38503815057E+03  0.74483046870E+03  0.00000000000E+00 0. -1.
         -3    1    3    3    0  502 -0.31222769839E+03 -0.38703765710E+03 -0.25893110899E+03  0.56065105267E+03  0.00000000000E+00 0.  1.
         13    1    5    5    0    0  0.31039993593E+03  0.41883674554E+03 -0.52706449433E+03  0.74132942801E+03  0.00000000000E+00 0.  1.
        -13    1    5    5    0    0  0.28256138612E+03  0.54057257415E+03 -0.65351545987E+03  0.89394748231E+03  0.00000000000E+00 0. -1.
          3    1    6    6  503    0  0.16826269278E+03 -0.91848737686E+02 -0.28301040676E+02  0.19377686472E+03  0.00000000000E+00 0. -1.
         -3    1    6    6    0  503  0.83993263367E+01 -0.36330088766E+02  0.21075899971E+02  0.42832436216E+02  0.00000000000E+00 0.  1.
<mgrwt>
<rscale>  0 0.25962027E+04</rscale>
<asrwt>0</asrwt>
<pdfrwt beam="1">  1        2 0.38531862E+00 0.25962027E+04</pdfrwt>
<pdfrwt beam="2">  1       -1 0.10350718E+00 0.25962027E+04</pdfrwt>
<totfact> 0.30637307E+00</totfact>
</mgrwt>
</event>
<event>
12    7  0.2492439E-007  0.1824015E+04  0.7818608E-02  0.8693632E-01
         -1   -1    0    0    0  501 -0.00000000000E+00  0.00000000000E+00  0.36122659647E+03  0.36122659647E+03  0.00000000000E+00 0.  1.
          2   -1    0    0  501    0  0.00000000000E+00 -0.00000000000E+00 -0.23025927798E+04  0.23025927798E+04  0.00000000000E+00 0. -1.
         24    2    1    2    0    0 -0.27748165523E+03 -0.31625404690E+03 -0.15285418896E+04  0.15875898680E+04  0.83597785116E+02 0.  0.
        254    2    1    2    0    0  0.27748165523E+03  0.31625404690E+03 -0.41282429375E+03  0.10762295083E+04  0.90046286195E+03 0.  0.
         23    2    4    4    0    0 -0.26766904172E+03  0.30862646648E+03 -0.63966524904E+02  0.42279095772E+03  0.88110532356E+02 0.  0.
         23    2    4    4    0    0  0.54515069695E+03  0.76275804125E+01 -0.34885776885E+03  0.65343855053E+03  0.89625521308E+02 0.  0.
          4    1    3    3  502    0 -0.27026698005E+03 -0.27016687030E+03 -0.13482613529E+04  0.14013718471E+04  0.00000000000E+00 0. -1.
         -3    1    3    3    0  502 -0.72146751800E+01 -0.46087176600E+02 -0.18028053673E+03  0.18621802090E+03  0.00000000000E+00 0.  1.
         13    1    5    5    0    0 -0.98827907958E+02  0.10141021252E+03  0.19108436466E+02  0.14288498500E+03  0.00000000000E+00 0. -1.
        -13    1    5    5    0    0 -0.16884113376E+03  0.20721625397E+03 -0.83074961371E+02  0.27990597272E+03  0.00000000000E+00 0.  1.
          3    1    6    6  503    0  0.28406575920E+03  0.29829494313E+02 -0.22504343294E+03  0.36363127064E+03  0.00000000000E+00 0. -1.
         -3    1    6    6    0  503  0.26108493775E+03 -0.22201913901E+02 -0.12381433591E+03  0.28980727989E+03  0.00000000000E+00 0.  1.
<mgrwt>
<rscale>  0 0.18240151E+04</rscale>
<asrwt>0</asrwt>
<pdfrwt beam="1">  1        2 0.35424502E+00 0.18240151E+04</pdfrwt>
<pdfrwt beam="2">  1       -1 0.55573327E-01 0.18240151E+04</pdfrwt>
<totfact> 0.15880375E+01</totfact>
</mgrwt>
</event>
<event>
12    7  0.2492439E-007  0.3046611E+04  0.7818608E-02  0.8230545E-01
         -1   -1    0    0    0  501 -0.00000000000E+00  0.00000000000E+00  0.12696981804E+04  0.12696981804E+04  0.00000000000E+00 0.  1.
          2   -1    0    0  501    0  0.00000000000E+00 -0.00000000000E+00 -0.18275674834E+04  0.18275674834E+04  0.00000000000E+00 0. -1.
         24    2    1    2    0    0  0.11364475076E+04  0.16299773111E+03 -0.10498076271E+04  0.15577472414E+04  0.79995101294E+02 0.  0.
        254    2    1    2    0    0 -0.11364475076E+04 -0.16299773111E+03  0.49193832409E+03  0.15395184225E+04  0.90001803343E+03 0.  0.
         23    2    4    4    0    0 -0.10541313445E+04 -0.11376245218E+03  0.36614020239E+02  0.10647798836E+04  0.90999050260E+02 0.  0.
         23    2    4    4    0    0 -0.82316163152E+02 -0.49235278934E+02  0.45532430385E+03  0.47473853887E+03  0.94108422569E+02 0.  0.
          2    1    3    3  502    0  0.47694194665E+03  0.71777553274E+02 -0.49467908966E+03  0.69089292902E+03  0.00000000000E+00 0. -1.
         -1    1    3    3    0  502  0.65950556096E+03  0.91220177836E+02 -0.55512853745E+03  0.86685431237E+03  0.00000000000E+00 0.  1.
         13    1    5    5    0    0 -0.12072138038E+03 -0.36371054193E+01  0.31764774077E+02  0.12488347004E+03  0.00000000000E+00 0. -1.
        -13    1    5    5    0    0 -0.93340996408E+03 -0.11012534676E+03  0.48492461620E+01  0.93989641356E+03  0.00000000000E+00 0.  1.
          4    1    6    6  503    0 -0.37832457254E+02 -0.56103242602E+02  0.13237291160E+03  0.14866558572E+03  0.00000000000E+00 0. -1.
         -4    1    6    6    0  503 -0.44483705899E+02  0.68679636675E+01  0.32295139225E+03  0.32607295314E+03  0.00000000000E+00 0.  1.
<mgrwt>
<rscale>  0 0.30466106E+04</rscale>
<asrwt>0</asrwt>
<pdfrwt beam="1">  1        2 0.28116423E+00 0.30466106E+04</pdfrwt>
<pdfrwt beam="2">  1       -1 0.19533818E+00 0.30466106E+04</pdfrwt>
<totfact> 0.13105799E+00</totfact>
</mgrwt>
</event>
<event>
12    7  0.2492439E-007  0.1967107E+04  0.7818608E-02  0.8622156E-01
         -1   -1    0    0    0  501 -0.00000000000E+00  0.00000000000E+00  0.80075659047E+03  0.80075659047E+03  0.00000000000E+00 0.  1.
          2   -1    0    0  501    0  0.00000000000E+00 -0.00000000000E+00 -0.12080787503E+04  0.12080787503E+04  0.00000000000E+00 0. -1.
         24    2    1    2    0    0  0.24629950898E+03 -0.73490776147E+03 -0.12401811052E+03  0.78919785813E+03  0.81852926279E+02 0.  0.
        254    2    1    2    0    0 -0.24629950898E+03  0.73490776147E+03 -0.28330404928E+03  0.12196374826E+04  0.89805430718E+03 0.  0.
         23    2    4    4    0    0 -0.48817410189E+03  0.77648545052E+03 -0.25710317832E+03  0.95692356598E+03  0.91416946961E+02 0.  0.
         23    2    4    4    0    0  0.24187459291E+03 -0.41577689051E+02 -0.26200870963E+02  0.26271391663E+03  0.90000519070E+02 0.  0.
          4    1    3    3  502    0  0.15840045311E+03 -0.44370688210E+03 -0.11461664486E+03  0.48487470139E+03  0.00000000000E+00 0. -1.
         -3    1    3    3    0  502  0.87899055875E+02 -0.29120087937E+03 -0.94014656520E+01  0.30432315674E+03  0.00000000000E+00 0.  1.
         13    1    5    5    0    0  0.36018271190E+01  0.37753085269E+01  0.10241547955E+01  0.53174247633E+01  0.00000000000E+00 0.  1.
        -13    1    5    5    0    0 -0.49177592901E+03  0.77271014200E+03 -0.25812733311E+03  0.95160614121E+03  0.00000000000E+00 0. -1.
          3    1    6    6  503    0  0.15826371755E+03  0.36823695526E+01  0.15162139689E+02  0.15903098634E+03  0.00000000000E+00 0. -1.
         -3    1    6    6    0  503  0.83610875358E+02 -0.45260058604E+02 -0.41363010652E+02  0.10368293029E+03  0.00000000000E+00 0.  1.
<mgrwt>
<rscale>  0 0.19671065E+04</rscale>
<asrwt>0</asrwt>
<pdfrwt beam="1">  1        2 0.18585827E+00 0.19671065E+04</pdfrwt>
<pdfrwt beam="2">  1       -1 0.12319332E+00 0.19671065E+04</pdfrwt>
<totfact> 0.11544778E+01</totfact>
</mgrwt>
</event>
<event>
12    7  0.2492439E-007  0.1604726E+04  0.7818608E-02  0.8817650E-01
          2   -1    0    0  501    0  0.00000000000E+00  0.00000000000E+00  0.94688728649E+03  0.94688728649E+03  0.00000000000E+00 0. -1.
         -1   -1    0    0    0  501 -0.00000000000E+00 -0.00000000000E+00 -0.67989716750E+03  0.67989716750E+03  0.00000000000E+00 0.  1.
         24    2    1    2    0    0  0.22136832432E+03 -0.48068306599E+03 -0.43394351740E+02  0.53717919930E+03  0.81352796198E+02 0.  0.
        254    2    1    2    0    0 -0.22136832432E+03  0.48068306599E+03  0.31038447073E+03  0.10896052547E+04  0.90046707127E+03 0.  0.
         23    2    4    4    0    0 -0.41490380069E+03 -0.80256341869E+02  0.20821344354E+03  0.48049845009E+03  0.94549871679E+02 0.  0.
         23    2    4    4    0    0  0.19353547637E+03  0.56093940786E+03  0.10217102720E+03  0.60910680460E+03  0.91995547211E+02 0.  0.
          4    1    3    3  502    0  0.11830372976E+03 -0.26605650879E+03  0.16602382029E+02  0.29164615107E+03  0.00000000000E+00 0. -1.
         -3    1    3    3    0  502  0.10306459456E+03 -0.21462655720E+03 -0.59996733769E+02  0.24553304823E+03  0.00000000000E+00 0.  1.
         13    1    5    5    0    0 -0.36877443906E+03 -0.43013275024E+02  0.19649068000E+03  0.42006346670E+03  0.00000000000E+00 0. -1.
        -13    1    5    5    0    0 -0.46129361632E+02 -0.37243066845E+02  0.11722763541E+02  0.60434983392E+02  0.00000000000E+00 0.  1.
          2    1    6    6  503    0  0.13219569450E+03  0.28829503546E+03  0.19870448554E+02  0.31778068513E+03  0.00000000000E+00 0. -1.
         -2    1    6    6    0  503  0.61339781872E+02  0.27264437240E+03  0.82300578643E+02  0.29132611947E+03  0.00000000000E+00 0.  1.
<mgrwt>
<rscale>  0 0.16047255E+04</rscale>
<asrwt>0</asrwt>
<pdfrwt beam="1">  1        2 0.14567497E+00 0.16047255E+04</pdfrwt>
<pdfrwt beam="2">  1       -1 0.10459956E+00 0.16047255E+04</pdfrwt>
<totfact> 0.25637207E+01</totfact>
</mgrwt>
</event>
<event>
12    7  0.2492439E-007  0.2915062E+04  0.7818608E-02  0.8268410E-01
         -1   -1    0    0    0  501 -0.00000000000E+00  0.00000000000E+00  0.14926237724E+04  0.14926237724E+04  0.00000000000E+00 0.  1.
          2   -1    0    0  501    0  0.00000000000E+00 -0.00000000000E+00 -0.14232637450E+04  0.14232637450E+04  0.00000000000E+00 0. -1.
         24    2    1    2    0    0  0.79568990188E+03 -0.90391619467E+03  0.56431004262E+03  0.13324249480E+04  0.81997016918E+02 0.  0.
        254    2    1    2    0    0 -0.79568990188E+03  0.90391619467E+03 -0.49495001527E+03  0.15834625694E+04  0.90121655791E+03 0.  0.
         23    2    4    4    0    0 -0.63137829353E+03  0.10009097828E+04 -0.17503934071E+03  0.11997477243E+04  0.91087256978E+02 0.  0.
         23    2    4    4    0    0 -0.16431160835E+03 -0.96993588086E+02 -0.31991067456E+03  0.38371484515E+03  0.92131329749E+02 0.  0.
          2    1    3    3  502    0  0.60386812398E+03 -0.63203681670E+03  0.39948302185E+03  0.96110037643E+03  0.00000000000E+00 0. -1.
         -1    1    3    3    0  502  0.19182177790E+03 -0.27187937797E+03  0.16482702078E+03  0.37132457153E+03  0.00000000000E+00 0.  1.
         13    1    5    5    0    0  0.81247852504E+00 -0.13780651036E+01  0.75745267640E+00  0.17700054634E+01  0.00000000000E+00 0.  1.
        -13    1    5    5    0    0 -0.63219077206E+03  0.10022878479E+04 -0.17579679339E+03  0.11979777188E+04  0.00000000000E+00 0. -1.
          3    1    6    6  503    0 -0.91049094964E+02 -0.35624056082E+02 -0.23995670233E+03  0.25911045919E+03  0.00000000000E+00 0. -1.
         -3    1    6    6    0  503 -0.73262513386E+02 -0.61369532003E+02 -0.79953972227E+02  0.12460438596E+03  0.00000000000E+00 0.  1.
<mgrwt>
<rscale>  0 0.29150625E+04</rscale>
<asrwt>0</asrwt>
<pdfrwt beam="1">  1        2 0.21896365E+00 0.29150625E+04</pdfrwt>
<pdfrwt beam="2">  1       -1 0.22963442E+00 0.29150625E+04</pdfrwt>
<totfact> 0.13077481E+00</totfact>
</mgrwt>
</event>
<event>
12    7  0.2492439E-007  0.2459539E+04  0.7818608E-02  0.8417543E-01
         -1   -1    0    0    0  501 -0.00000000000E+00  0.00000000000E+00  0.19206334258E+04  0.19206334258E+04  0.00000000000E+00 0.  1.
          2   -1    0    0  501    0  0.00000000000E+00 -0.00000000000E+00 -0.78741386434E+03  0.78741386434E+03  0.00000000000E+00 0. -1.
         24    2    1    2    0    0 -0.60239913666E+03 -0.84160252049E+03  0.76333942055E+03  0.12883375567E+04  0.77117226736E+02 0.  0.
        254    2    1    2    0    0  0.60239913666E+03  0.84160252049E+03  0.36988014091E+03  0.14197097334E+04  0.89865726853E+03 0.  0.
         23    2    4    4    0    0  0.73311395277E+03  0.28769130236E+03  0.23099341590E+03  0.82606580385E+03  0.93831769209E+02 0.  0.
         23    2    4    4    0    0 -0.13071481611E+03  0.55391121813E+03  0.13888672501E+03  0.59364392960E+03  0.96018706708E+02 0.  0.
          2    1    3    3  502    0 -0.57778315696E+03 -0.77461067655E+03  0.70593184566E+03  0.11967434342E+04  0.00000000000E+00 0. -1.
         -1    1    3    3    0  502 -0.24615979702E+02 -0.66991843941E+02  0.57407574894E+02  0.91594122445E+02  0.00000000000E+00 0.  1.
         13    1    5    5    0    0  0.13464523925E+03  0.64450114965E+02  0.79256938516E+01  0.14948569963E+03  0.00000000000E+00 0. -1.
        -13    1    5    5    0    0  0.59846871352E+03  0.22324118739E+03  0.22306772205E+03  0.67658010422E+03  0.00000000000E+00 0.  1.
          3    1    6    6  503    0 -0.66433211064E+02  0.12775866136E+03  0.57492398764E+02  0.15505167848E+03  0.00000000000E+00 0. -1.
         -3    1    6    6    0  503 -0.64281605048E+02  0.42615255677E+03  0.81394326246E+02  0.43859225111E+03  0.00000000000E+00 0.  1.
<mgrwt>
<rscale>  0 0.24595393E+04</rscale>
<asrwt>0</asrwt>
<pdfrwt beam="1">  1        2 0.12114060E+00 0.24595393E+04</pdfrwt>
<pdfrwt beam="2">  1       -1 0.29548206E+00 0.24595393E+04</pdfrwt>
<totfact> 0.12687308E+00</totfact>
</mgrwt>
</event>
<event>
12    7  0.2492439E-007  0.1501045E+04  0.7818608E-02  0.8883758E-01
          2   -1    0    0  501    0  0.00000000000E+00  0.00000000000E+00  0.18779376319E+04  0.18779376319E+04  0.00000000000E+00 0. -1.
         -1   -1    0    0    0  501 -0.00000000000E+00 -0.00000000000E+00 -0.29994838132E+03  0.29994838132E+03  0.00000000000E+00 0.  1.
         24    2    1    2    0    0  0.31280274196E+03  0.15159220093E+03  0.10083502880E+04  0.10691177490E+04  0.73598281544E+02 0.  0.
        254    2    1    2    0    0 -0.31280274196E+03 -0.15159220093E+03  0.56963896260E+03  0.11087682643E+04  0.88546754059E+03 0.  0.
         23    2    4    4    0    0 -0.15722165552E+03  0.36140904435E+03  0.20056997611E+03  0.45137508737E+03  0.90421280007E+02 0.  0.
         23    2    4    4    0    0 -0.15558108645E+03 -0.51300124528E+03  0.36906898649E+03  0.65739317693E+03  0.92618141686E+02 0.  0.
          4    1    3    3  502    0  0.10763481492E+03  0.18570149114E+02  0.35936534884E+03  0.37559760086E+03  0.00000000000E+00 0. -1.
         -3    1    3    3    0  502  0.20516792704E+03  0.13302205182E+03  0.64898493917E+03  0.69352014811E+03  0.00000000000E+00 0.  1.
         13    1    5    5    0    0 -0.10870501274E+03  0.19524057790E+03  0.15629218089E+03  0.27269563411E+03  0.00000000000E+00 0. -1.
        -13    1    5    5    0    0 -0.48516642777E+02  0.16616846645E+03  0.44277795225E+02  0.17867945326E+03  0.00000000000E+00 0.  1.
          1    1    6    6  503    0 -0.46339738854E+02 -0.11053483402E+03  0.40616306051E+02  0.12655040595E+03  0.00000000000E+00 0. -1.
         -1    1    6    6    0  503 -0.10924134759E+03 -0.40246641126E+03  0.32845268044E+03  0.53084277098E+03  0.00000000000E+00 0.  1.
<mgrwt>
<rscale>  0 0.15010454E+04</rscale>
<asrwt>0</asrwt>
<pdfrwt beam="1">  1        2 0.28891348E+00 0.15010454E+04</pdfrwt>
<pdfrwt beam="2">  1       -1 0.46145906E-01 0.15010454E+04</pdfrwt>
<totfact> 0.40164915E+01</totfact>
</mgrwt>
</event>
<event>
12    7  0.2492439E-007  0.1897551E+04  0.7818608E-02  0.8656077E-01
         -1   -1    0    0    0  501 -0.00000000000E+00  0.00000000000E+00  0.73731234134E+03  0.73731234134E+03  0.00000000000E+00 0.  1.
          2   -1    0    0  501    0  0.00000000000E+00 -0.00000000000E+00 -0.12208864035E+04  0.12208864035E+04  0.00000000000E+00 0. -1.
         24    2    1    2    0    0  0.19649156368E+03  0.27299907404E+03 -0.85955451972E+03  0.92631553259E+03  0.78032458065E+02 0.  0.
        254    2    1    2    0    0 -0.19649156368E+03 -0.27299907404E+03  0.37598045752E+03  0.10318832123E+04  0.90015789191E+03 0.  0.
         23    2    4    4    0    0 -0.99680769465E+02 -0.58219498787E+03  0.35580967914E+03  0.69554043947E+03  0.91042382805E+02 0.  0.
         23    2    4    4    0    0 -0.96810794214E+02  0.30919591383E+03  0.20170778380E+02  0.33634277283E+03  0.88006576644E+02 0.  0.
          4    1    3    3  502    0  0.11107687867E+03  0.17104869126E+03 -0.61497064118E+03  0.64790787715E+03  0.00000000000E+00 0. -1.
         -3    1    3    3    0  502  0.85414685005E+02  0.10195038278E+03 -0.24458387854E+03  0.27840765544E+03  0.00000000000E+00 0.  1.
         13    1    5    5    0    0 -0.19829076699E+02 -0.36841416946E+03  0.23341324828E+03  0.43658210798E+03  0.00000000000E+00 0.  1.
        -13    1    5    5    0    0 -0.79851692765E+02 -0.21378081841E+03  0.12239643086E+03  0.25895833149E+03  0.00000000000E+00 0. -1.
          1    1    6    6  503    0 -0.50845124075E+02  0.27021462932E+03  0.93905211061E+01  0.27511698317E+03  0.00000000000E+00 0. -1.
         -1    1    6    6    0  503 -0.45965670139E+02  0.38981284507E+02  0.10780257274E+02  0.61225789664E+02  0.00000000000E+00 0.  1.
<mgrwt>
<rscale>  0 0.18975506E+04</rscale>
<asrwt>0</asrwt>
<pdfrwt beam="1">  1        2 0.18782868E+00 0.18975506E+04</pdfrwt>
<pdfrwt beam="2">  1       -1 0.11343267E+00 0.18975506E+04</pdfrwt>
<totfact> 0.13945306E+01</totfact>
</mgrwt>
</event>
<event>
12    7  0.2492439E-007  0.2598158E+04  0.7818608E-02  0.8368827E-01
          2   -1    0    0  501    0  0.00000000000E+00  0.00000000000E+00  0.11293368059E+04  0.11293368059E+04  0.00000000000E+00 0. -1.
         -1   -1    0    0    0  501 -0.00000000000E+00 -0.00000000000E+00 -0.14943336624E+04  0.14943336624E+04  0.00000000000E+00 0.  1.
         24    2    1    2    0    0  0.11402053816E+04  0.38110680032E+02 -0.18367898423E+03  0.11582927801E+04  0.79896552819E+02 0.  0.
        254    2    1    2    0    0 -0.11402053816E+04 -0.38110680032E+02 -0.18131787222E+03  0.14653776882E+04  0.90162900479E+03 0.  0.
         23    2    4    4    0    0 -0.88899884784E+02  0.30083367422E+03  0.57127179725E+02  0.33150799995E+03  0.90719073575E+02 0.  0.
         23    2    4    4    0    0 -0.10513054968E+04 -0.33894435425E+03 -0.23844505195E+03  0.11338696883E+04  0.93155270080E+02 0.  0.
          4    1    3    3  502    0  0.10362098567E+04  0.38846888811E+02 -0.14357624432E+03  0.10468304953E+04  0.00000000000E+00 0. -1.
         -3    1    3    3    0  502  0.10399552481E+03 -0.73620877951E+00 -0.40102739916E+02  0.11146228480E+03  0.00000000000E+00 0.  1.
         13    1    5    5    0    0 -0.10568792060E+03  0.27798194486E+03  0.58602349348E+02  0.30311406034E+03  0.00000000000E+00 0.  1.
        -13    1    5    5    0    0  0.16788035813E+02  0.22851729360E+02 -0.14751696232E+01  0.28393939611E+02  0.00000000000E+00 0. -1.
          4    1    6    6  503    0 -0.85019242464E+02 -0.35437050412E+02  0.48186649618E+01  0.92234893956E+02  0.00000000000E+00 0. -1.
         -4    1    6    6    0  503 -0.96628625430E+03 -0.30350730384E+03 -0.24326371691E+03  0.10416347943E+04  0.00000000000E+00 0.  1.
<mgrwt>
<rscale>  0 0.25981578E+04</rscale>
<asrwt>0</asrwt>
<pdfrwt beam="1">  1        2 0.17374412E+00 0.25981578E+04</pdfrwt>
<pdfrwt beam="2">  1       -1 0.22989749E+00 0.25981578E+04</pdfrwt>
<totfact> 0.19922654E+00</totfact>
</mgrwt>
</event>
<event>
12    7  0.2492439E-007  0.2361334E+04  0.7818608E-02  0.8454123E-01
          2   -1    0    0  501    0  0.00000000000E+00  0.00000000000E+00  0.23693243292E+04  0.23693243292E+04  0.00000000000E+00 0. -1.
         -1   -1    0    0    0  501 -0.00000000000E+00 -0.00000000000E+00 -0.58834245377E+03  0.58834245377E+03  0.00000000000E+00 0.  1.
         24    2    1    2    0    0  0.66847618201E+03 -0.65725094862E+03  0.30041462621E+03  0.98767802455E+03  0.80123137402E+02 0.  0.
        254    2    1    2    0    0 -0.66847618201E+03  0.65725094862E+03  0.14805672492E+04  0.19699887584E+04  0.89996506237E+03 0.  0.
         23    2    4    4    0    0  0.88459498678E+02  0.50899271870E+03  0.58132873809E+03  0.78227811711E+03  0.84363974478E+02 0.  0.
         23    2    4    4    0    0 -0.75693568069E+03  0.14825822992E+03  0.89923851114E+03  0.11877106413E+04  0.84229093209E+02 0.  0.
          4    1    3    3  502    0  0.29386728831E+03 -0.27701551395E+03  0.88853512265E+02  0.41351000562E+03  0.00000000000E+00 0. -1.
         -3    1    3    3    0  502  0.37460889371E+03 -0.38023543467E+03  0.21156111395E+03  0.57416801892E+03  0.00000000000E+00 0.  1.
         13    1    5    5    0    0  0.65616560940E+02  0.15400067827E+03  0.19935194676E+03  0.26031315882E+03  0.00000000000E+00 0.  1.
        -13    1    5    5    0    0  0.22842937737E+02  0.35499204043E+03  0.38197679133E+03  0.52196495829E+03  0.00000000000E+00 0. -1.
          4    1    6    6  503    0 -0.35464238583E+02  0.60003123992E+01  0.18848033174E+02  0.40607441703E+02  0.00000000000E+00 0.  1.
         -4    1    6    6    0  503 -0.72147144211E+03  0.14225791752E+03  0.88039047797E+03  0.11471031996E+04  0.00000000000E+00 0. -1.
<mgrwt>
<rscale>  0 0.23613336E+04</rscale>
<asrwt>0</asrwt>
<pdfrwt beam="1">  1        2 0.36451143E+00 0.23613336E+04</pdfrwt>
<pdfrwt beam="2">  1       -1 0.90514225E-01 0.23613336E+04</pdfrwt>
<totfact> 0.50669448E+00</totfact>
</mgrwt>
</event>
<event>
12    7  0.2492439E-007  0.1407585E+04  0.7818608E-02  0.8948346E-01
         -1   -1    0    0    0  501 -0.00000000000E+00  0.00000000000E+00  0.46458367836E+03  0.46458367836E+03  0.00000000000E+00 0.  1.
          2   -1    0    0  501    0  0.00000000000E+00 -0.00000000000E+00 -0.10661671189E+04  0.10661671189E+04  0.00000000000E+00 0. -1.
         24    2    1    2    0    0  0.22990014115E+03  0.28043598033E+03 -0.38056332506E+03  0.53157223033E+03  0.79007453540E+02 0.  0.
        254    2    1    2    0    0 -0.22990014115E+03 -0.28043598033E+03 -0.22102011544E+03  0.99917856688E+03  0.90443877799E+03 0.  0.
         23    2    4    4    0    0  0.42866654163E+02 -0.52504329991E+03  0.46306884862E+02  0.53649058748E+03  0.90386979460E+02 0.  0.
         23    2    4    4    0    0 -0.27276679531E+03  0.24460731958E+03 -0.26732700030E+03  0.46268797940E+03  0.91553130885E+02 0.  0.
          2    1    3    3  502    0  0.18375897098E+03  0.16803994430E+03 -0.27006147285E+03  0.36733905512E+03  0.00000000000E+00 0. -1.
         -1    1    3    3    0  502  0.46141170173E+02  0.11239603603E+03 -0.11050185221E+03  0.16423317521E+03  0.00000000000E+00 0.  1.
         13    1    5    5    0    0 -0.17866500063E+02 -0.62922326846E+02 -0.12839807555E+02  0.66658020510E+02  0.00000000000E+00 0. -1.
        -13    1    5    5    0    0  0.60733154226E+02 -0.46212097306E+03  0.59146692417E+02  0.46983256697E+03  0.00000000000E+00 0.  1.
          3    1    6    6  503    0 -0.14343026645E-01  0.31501066530E+02 -0.23312537695E+02  0.39189179783E+02  0.00000000000E+00 0. -1.
         -3    1    6    6    0  503 -0.27275245229E+03  0.21310625305E+03 -0.24401446261E+03  0.42349879962E+03  0.00000000000E+00 0.  1.
<mgrwt>
<rscale>  0 0.14075849E+04</rscale>
<asrwt>0</asrwt>
<pdfrwt beam="1">  1        2 0.16402571E+00 0.14075849E+04</pdfrwt>
<pdfrwt beam="2">  1       -1 0.71474412E-01 0.14075849E+04</pdfrwt>
<totfact> 0.50156180E+01</totfact>
</mgrwt>
</event>
<event>
12    7  0.2492439E-007  0.1238442E+04  0.7818608E-02  0.9079858E-01
          2   -1    0    0  501    0  0.00000000000E+00  0.00000000000E+00  0.25844916214E+04  0.25844916214E+04  0.00000000000E+00 0. -1.
         -1   -1    0    0    0  501 -0.00000000000E+00 -0.00000000000E+00 -0.14835981433E+03  0.14835981433E+03  0.00000000000E+00 0.  1.
         24    2    1    2    0    0  0.26387288272E+02  0.26909455524E+03  0.39094722446E+03  0.48203112739E+03  0.80038158551E+02 0.  0.
        254    2    1    2    0    0 -0.26387288272E+02 -0.26909455524E+03  0.20451845826E+04  0.22508203083E+04  0.90016882570E+03 0.  0.
         23    2    4    4    0    0 -0.43360697417E+03 -0.16050452180E+03  0.74891161704E+03  0.88478951894E+03  0.90593449649E+02 0.  0.
         23    2    4    4    0    0  0.40721968590E+03 -0.10859003344E+03  0.12962729655E+04  0.13660307894E+04  0.89982489003E+02 0.  0.
          2    1    3    3  502    0 -0.54099165653E+01 -0.10080930096E+01  0.27761807372E+02  0.28301968082E+02  0.00000000000E+00 0. -1.
         -1    1    3    3    0  502  0.31797204838E+02  0.27010264825E+03  0.36318541708E+03  0.45372915931E+03  0.00000000000E+00 0.  1.
         13    1    5    5    0    0 -0.21891387434E+02 -0.33343932859E+02  0.73546195372E+02  0.83666561755E+02  0.00000000000E+00 0. -1.
        -13    1    5    5    0    0 -0.41171558674E+03 -0.12716058894E+03  0.67536542167E+03  0.80112295719E+03  0.00000000000E+00 0.  1.
          1    1    6    6  503    0  0.10235358614E+02 -0.10432967719E+02  0.14435253387E+02  0.20542295921E+02  0.00000000000E+00 0. -1.
         -1    1    6    6    0  503  0.39698432729E+03 -0.98157065719E+02  0.12818377122E+04  0.13454884934E+04  0.00000000000E+00 0.  1.
<mgrwt>
<rscale>  0 0.12384421E+04</rscale>
<asrwt>0</asrwt>
<pdfrwt beam="1">  1        2 0.39761406E+00 0.12384421E+04</pdfrwt>
<pdfrwt beam="2">  1       -1 0.22824589E-01 0.12384421E+04</pdfrwt>
<totfact> 0.57402400E+01</totfact>
</mgrwt>
</event>
<event>
12    7  0.2492439E-007  0.1836320E+04  0.7818608E-02  0.8687220E-01
          2   -1    0    0  501    0  0.00000000000E+00  0.00000000000E+00  0.10792634370E+04  0.10792634370E+04  0.00000000000E+00 0. -1.
         -1   -1    0    0    0  501 -0.00000000000E+00 -0.00000000000E+00 -0.78110450967E+03  0.78110450967E+03  0.00000000000E+00 0.  1.
         24    2    1    2    0    0  0.46471124590E+03  0.54563258747E+02 -0.41463109890E+03  0.63010590668E+03  0.78618154349E+02 0.  0.
        254    2    1    2    0    0 -0.46471124590E+03 -0.54563258747E+02  0.71279002624E+03  0.12302620400E+04  0.88687167859E+03 0.  0.
         23    2    4    4    0    0 -0.10109501880E+03 -0.44065115250E+03  0.28187329034E+03  0.54077835620E+03  0.92709426188E+02 0.  0.
         23    2    4    4    0    0 -0.36361622710E+03  0.38608789375E+03  0.43091673590E+03  0.68948368380E+03  0.91749085231E+02 0.  0.
          4    1    3    3  502    0  0.38876463025E+03  0.61633849101E+02 -0.31222491726E+03  0.50241523468E+03  0.00000000000E+00 0. -1.
         -3    1    3    3    0  502  0.75946615649E+02 -0.70705903545E+01 -0.10240618165E+03  0.12769067200E+03  0.00000000000E+00 0.  1.
         13    1    5    5    0    0 -0.11393648680E+03 -0.42505322995E+03  0.27704510786E+03  0.52000554142E+03  0.00000000000E+00 0.  1.
        -13    1    5    5    0    0  0.12841467994E+02 -0.15597922544E+02  0.48281824840E+01  0.20772814783E+02  0.00000000000E+00 0. -1.
          3    1    6    6  503    0 -0.23864857969E+03  0.18809933270E+03  0.23312140147E+03  0.38298836976E+03  0.00000000000E+00 0. -1.
         -3    1    6    6    0  503 -0.12496764741E+03  0.19798856105E+03  0.19779533443E+03  0.30649531404E+03  0.00000000000E+00 0.  1.
<mgrwt>
<rscale>  0 0.18363197E+04</rscale>
<asrwt>0</asrwt>
<pdfrwt beam="1">  1        2 0.16604053E+00 0.18363197E+04</pdfrwt>
<pdfrwt beam="2">  1       -1 0.12016992E+00 0.18363197E+04</pdfrwt>
<totfact> 0.14866632E+01</totfact>
</mgrwt>
</event>
<event>
12    7  0.2492439E-007  0.1049746E+04  0.7818608E-02  0.9255607E-01
         -1   -1    0    0    0  501 -0.00000000000E+00  0.00000000000E+00  0.73044669301E+02  0.73044669301E+02  0.00000000000E+00 0.  1.
          2   -1    0    0  501    0  0.00000000000E+00 -0.00000000000E+00 -0.37715471802E+04  0.37715471802E+04  0.00000000000E+00 0. -1.
         24    2    1    2    0    0  0.58346734982E+02 -0.90925084954E+02 -0.57619139937E+03  0.59170231251E+03  0.80270700498E+02 0.  0.
        254    2    1    2    0    0 -0.58346734982E+02  0.90925084954E+02 -0.31223111115E+04  0.32528895370E+04  0.90597568961E+03 0.  0.
         23    2    4    4    0    0 -0.25718002101E+03  0.32962955983E+03 -0.79242658767E+03  0.90058274803E+03  0.91171153808E+02 0.  0.
         23    2    4    4    0    0  0.19883328603E+03 -0.23870447488E+03 -0.23298845239E+04  0.23523067890E+04  0.92037127892E+02 0.  0.
          4    1    3    3  502    0  0.12409871876E+02 -0.17065211459E+02 -0.32860671282E+03  0.32928346158E+03  0.00000000000E+00 0. -1.
         -3    1    3    3    0  502  0.45936863106E+02 -0.73859873495E+02 -0.24758468655E+03  0.26241885092E+03  0.00000000000E+00 0.  1.
         13    1    5    5    0    0 -0.20786218451E+03  0.29269596554E+03 -0.72642896639E+03  0.81029418066E+03  0.00000000000E+00 0. -1.
        -13    1    5    5    0    0 -0.49317836503E+02  0.36933594289E+02 -0.65997621275E+02  0.90288567374E+02  0.00000000000E+00 0.  1.
          3    1    6    6  503    0  0.17775068270E+03 -0.23796213016E+03 -0.20218221918E+04  0.20435230011E+04  0.00000000000E+00 0. -1.
         -3    1    6    6    0  503  0.21082603337E+02 -0.74234471518E+00 -0.30806233202E+03  0.30878378787E+03  0.00000000000E+00 0.  1.
<mgrwt>
<rscale>  0 0.10497455E+04</rscale>
<asrwt>0</asrwt>
<pdfrwt beam="1">  1        2 0.58023802E+00 0.10497455E+04</pdfrwt>
<pdfrwt beam="2">  1       -1 0.11237642E-01 0.10497455E+04</pdfrwt>
<totfact> 0.32062028E+01</totfact>
</mgrwt>
</event>
<event>
12    7  0.2492439E-007  0.2533880E+04  0.7818608E-02  0.8391014E-01
          2   -1    0    0  501    0  0.00000000000E+00  0.00000000000E+00  0.11739532912E+04  0.11739532912E+04  0.00000000000E+00 0. -1.
         -1   -1    0    0    0  501 -0.00000000000E+00 -0.00000000000E+00 -0.13672920823E+04  0.13672920823E+04  0.00000000000E+00 0.  1.
         24    2    1    2    0    0 -0.86805004700E+03  0.13153326862E+02  0.59982447028E+03  0.10583417742E+04  0.81326636882E+02 0.  0.
        254    2    1    2    0    0  0.86805004700E+03 -0.13153326862E+02 -0.79316326135E+03  0.14829035993E+04  0.90344409426E+03 0.  0.
         23    2    4    4    0    0  0.13561292244E+03  0.18479506092E+03 -0.66213865566E+03  0.70656306796E+03  0.90904842644E+02 0.  0.
         23    2    4    4    0    0  0.73243712456E+03 -0.19794838778E+03 -0.13102460569E+03  0.77634053131E+03  0.99445802292E+02 0.  0.
          4    1    3    3  502    0 -0.68846826622E+03  0.27919397918E+02  0.50835453951E+03  0.85626653807E+03  0.00000000000E+00 0. -1.
         -3    1    3    3    0  502 -0.17958178078E+03 -0.14766071056E+02  0.91469930769E+02  0.20207523618E+03  0.00000000000E+00 0.  1.
         13    1    5    5    0    0  0.52185869337E+02  0.13676112518E+03 -0.33570646585E+03  0.36623189584E+03  0.00000000000E+00 0. -1.
        -13    1    5    5    0    0  0.83427053102E+02  0.48033935738E+02 -0.32643218981E+03  0.34033117212E+03  0.00000000000E+00 0.  1.
          4    1    6    6  503    0  0.29230062153E+03 -0.11188266201E+03 -0.91746157288E+02  0.32615140776E+03  0.00000000000E+00 0. -1.
         -4    1    6    6    0  503  0.44013650304E+03 -0.86065725768E+02 -0.39278448406E+02  0.45018912355E+03  0.00000000000E+00 0.  1.
<mgrwt>
<rscale>  0 0.25338801E+04</rscale>
<asrwt>0</asrwt>
<pdfrwt beam="1">  1        2 0.18060820E+00 0.25338801E+04</pdfrwt>
<pdfrwt beam="2">  1       -1 0.21035263E+00 0.25338801E+04</pdfrwt>
<totfact> 0.25447510E+00</totfact>
</mgrwt>
</event>
<event>
12    7  0.2492439E-007  0.4323106E+04  0.7818608E-02  0.7942359E-01
          2   -1    0    0  501    0  0.00000000000E+00  0.00000000000E+00  0.48524390431E+04  0.48524390431E+04  0.00000000000E+00 0. -1.
         -1   -1    0    0    0  501 -0.00000000000E+00 -0.00000000000E+00 -0.96287906344E+03  0.96287906344E+03  0.00000000000E+00 0.  1.
         24    2    1    2    0    0  0.11247007285E+04  0.16595128066E+04  0.25385155698E+04  0.32356150679E+04  0.78797752246E+02 0.  0.
        254    2    1    2    0    0 -0.11247007285E+04 -0.16595128066E+04  0.13510444098E+04  0.25797030386E+04  0.90034009458E+03 0.  0.
         23    2    4    4    0    0 -0.50031463183E+03 -0.60524708741E+03  0.10505760557E+04  0.13149616581E+04  0.93676815528E+02 0.  0.
         23    2    4    4    0    0 -0.62438609666E+03 -0.10542657192E+04  0.30046835408E+03  0.12647413805E+04  0.89192618845E+02 0.  0.
          4    1    3    3  502    0  0.77196173998E+03  0.10854883200E+04  0.16501655412E+04  0.21206735096E+04  0.00000000000E+00 0. -1.
         -3    1    3    3    0  502  0.35273898851E+03  0.57402448660E+03  0.88835002863E+03  0.11149415584E+04  0.00000000000E+00 0.  1.
         13    1    5    5    0    0 -0.32925578052E+03 -0.34554833717E+03  0.58372850559E+03  0.75402386605E+03  0.00000000000E+00 0.  1.
        -13    1    5    5    0    0 -0.17105885131E+03 -0.25969875024E+03  0.46684755014E+03  0.56093779206E+03  0.00000000000E+00 0. -1.
          3    1    6    6  503    0 -0.44135306986E+03 -0.67306484787E+03  0.17522744256E+03  0.82371929584E+03  0.00000000000E+00 0. -1.
         -3    1    6    6    0  503 -0.18303302680E+03 -0.38120087133E+03  0.12524091152E+03  0.44102208462E+03  0.00000000000E+00 0.  1.
<mgrwt>
<rscale>  0 0.43231063E+04</rscale>
<asrwt>0</asrwt>
<pdfrwt beam="1">  1        2 0.74652907E+00 0.43231063E+04</pdfrwt>
<pdfrwt beam="2">  1       -1 0.14813524E+00 0.43231063E+04</pdfrwt>
<totfact> 0.16099243E-02</totfact>
</mgrwt>
</event>
<event>
12    7  0.2492439E-007  0.1359796E+04  0.7818608E-02  0.8983446E-01
          2   -1    0    0  501    0  0.00000000000E+00  0.00000000000E+00  0.91297652306E+03  0.91297652306E+03  0.00000000000E+00 0. -1.
         -1   -1    0    0    0  501 -0.00000000000E+00 -0.00000000000E+00 -0.50632320160E+03  0.50632320160E+03  0.00000000000E+00 0.  1.
         24    2    1    2    0    0  0.21994931424E+03  0.14288869770E+03 -0.16267758028E+03  0.31887169577E+03  0.80126665157E+02 0.  0.
        254    2    1    2    0    0 -0.21994931424E+03 -0.14288869770E+03  0.56933090174E+03  0.11004280289E+04  0.90443866034E+03 0.  0.
         23    2    4    4    0    0  0.76877021558E+02 -0.10650505317E+03 -0.20818344331E+03  0.26253139468E+03  0.91263269343E+02 0.  0.
         23    2    4    4    0    0 -0.29682633580E+03 -0.36383644532E+02  0.77751434505E+03  0.83789663421E+03  0.90069804310E+02 0.  0.
          2    1    3    3  502    0  0.11295871203E+03  0.88038412217E+02 -0.43725003325E+02  0.14974080461E+03  0.00000000000E+00 0. -1.
         -1    1    3    3    0  502  0.10699060221E+03  0.54850285482E+02 -0.11895257695E+03  0.16913089115E+03  0.00000000000E+00 0.  1.
         13    1    5    5    0    0  0.30245761591E+02  0.11879118407E+02 -0.37060793908E+02  0.49289167101E+02  0.00000000000E+00 0. -1.
        -13    1    5    5    0    0  0.46631259967E+02 -0.11838417157E+03 -0.17112264940E+03  0.21324222758E+03  0.00000000000E+00 0.  1.
          4    1    6    6  503    0 -0.52224129585E+02 -0.15303506305E+02  0.25274060670E+03  0.25853311450E+03  0.00000000000E+00 0.  1.
         -4    1    6    6    0  503 -0.24460220622E+03 -0.21080138227E+02  0.52477373834E+03  0.57936351971E+03  0.00000000000E+00 0. -1.
<mgrwt>
<rscale>  0 0.13597959E+04</rscale>
<asrwt>0</asrwt>
<pdfrwt beam="1">  1        2 0.14045793E+00 0.13597959E+04</pdfrwt>
<pdfrwt beam="2">  1       -1 0.77895877E-01 0.13597959E+04</pdfrwt>
<totfact> 0.52858214E+01</totfact>
</mgrwt>
</event>
<event>
12    7  0.2492439E-007  0.2126554E+04  0.7818608E-02  0.8549636E-01
         -1   -1    0    0    0  501 -0.00000000000E+00  0.00000000000E+00  0.56468330359E+03  0.56468330359E+03  0.00000000000E+00 0.  1.
          2   -1    0    0  501    0  0.00000000000E+00 -0.00000000000E+00 -0.20021095743E+04  0.20021095743E+04  0.00000000000E+00 0. -1.
         24    2    1    2    0    0  0.19779311227E+03 -0.71466978143E+03 -0.39733256211E+02  0.74663603660E+03  0.77534687406E+02 0.  0.
        254    2    1    2    0    0 -0.19779311227E+03  0.71466978143E+03 -0.13976930145E+04  0.18201568413E+04  0.89975004993E+03 0.  0.
         23    2    4    4    0    0 -0.54343477487E+03  0.39329672018E+03 -0.69536634782E+03  0.96965811070E+03  0.81846376289E+02 0.  0.
         23    2    4    4    0    0  0.34564166260E+03  0.32137306125E+03 -0.70232666667E+03  0.85049873059E+03  0.85653608173E+02 0.  0.
          4    1    3    3  502    0  0.11933342023E+03 -0.32417927301E+03 -0.44590447398E+02  0.34831160508E+03  0.00000000000E+00 0. -1.
         -3    1    3    3    0  502  0.78459692037E+02 -0.39049050842E+03  0.48571911878E+01  0.39832443152E+03  0.00000000000E+00 0.  1.
         13    1    5    5    0    0 -0.15046913024E+02  0.32637386224E+02 -0.41153560612E+02  0.54637204560E+02  0.00000000000E+00 0.  1.
        -13    1    5    5    0    0 -0.52838786184E+03  0.36065933396E+03 -0.65421278721E+03  0.91502090614E+03  0.00000000000E+00 0. -1.
          3    1    6    6  503    0  0.27806097346E+03  0.29880877082E+03 -0.58788782190E+03  0.71569314487E+03  0.00000000000E+00 0. -1.
         -3    1    6    6    0  503  0.67580689139E+02  0.22564290428E+02 -0.11443884478E+03  0.13480558572E+03  0.00000000000E+00 0.  1.
<mgrwt>
<rscale>  0 0.21265539E+04</rscale>
<asrwt>0</asrwt>
<pdfrwt beam="1">  1        2 0.30801685E+00 0.21265539E+04</pdfrwt>
<pdfrwt beam="2">  1       -1 0.86874356E-01 0.21265539E+04</pdfrwt>
<totfact> 0.91054555E+00</totfact>
</mgrwt>
</event>
<event>
12    7  0.2492439E-007  0.1525753E+04  0.7818608E-02  0.8867506E-01
          2   -1    0    0  501    0  0.00000000000E+00  0.00000000000E+00  0.11917424675E+04  0.11917424675E+04  0.00000000000E+00 0. -1.
         -1   -1    0    0    0  501 -0.00000000000E+00 -0.00000000000E+00 -0.48834401868E+03  0.48834401868E+03  0.00000000000E+00 0.  1.
         24    2    1    2    0    0 -0.29871066421E+03  0.37357772229E+03  0.13174328204E+03  0.50242189008E+03  0.79265930700E+02 0.  0.
        254    2    1    2    0    0  0.29871066421E+03 -0.37357772229E+03  0.57165516676E+03  0.11776645961E+04  0.91176526347E+03 0.  0.
         23    2    4    4    0    0  0.10774873370E+02  0.27007383746E+03  0.44003143626E+02  0.29217318200E+03  0.10184751374E+03 0.  0.
         23    2    4    4    0    0  0.28793579084E+03 -0.64365155975E+03  0.52765202313E+03  0.88549141408E+03  0.92108831756E+02 0.  0.
          4    1    3    3  502    0 -0.10170289660E+03  0.71994559831E+02  0.35054460763E+02  0.12944308031E+03  0.00000000000E+00 0. -1.
         -3    1    3    3    0  502 -0.19700776761E+03  0.30158316246E+03  0.96688821279E+02  0.37297880977E+03  0.00000000000E+00 0.  1.
         13    1    5    5    0    0  0.56431253678E+02  0.15807981334E+03  0.22959818924E+02  0.16941330250E+03  0.00000000000E+00 0. -1.
        -13    1    5    5    0    0 -0.45656380308E+02  0.11199402411E+03  0.21043324702E+02  0.12275987950E+03  0.00000000000E+00 0.  1.
          1    1    6    6  503    0  0.16723454289E+03 -0.47427222924E+03  0.38348331088E+03  0.63242469077E+03  0.00000000000E+00 0. -1.
         -1    1    6    6    0  503  0.12070124794E+03 -0.16937933050E+03  0.14416871225E+03  0.25306672331E+03  0.00000000000E+00 0.  1.
<mgrwt>
<rscale>  0 0.15257527E+04</rscale>
<asrwt>0</asrwt>
<pdfrwt beam="1">  1        2 0.18334499E+00 0.15257527E+04</pdfrwt>
<pdfrwt beam="2">  1       -1 0.75129850E-01 0.15257527E+04</pdfrwt>
<totfact> 0.37531738E+01</totfact>
</mgrwt>
</event>
<event>
12    7  0.2492439E-007  0.1619605E+04  0.7818608E-02  0.8808594E-01
          2   -1    0    0  501    0  0.00000000000E+00  0.00000000000E+00  0.24962816256E+04  0.24962816256E+04  0.00000000000E+00 0. -1.
         -1   -1    0    0    0  501 -0.00000000000E+00 -0.00000000000E+00 -0.26270277610E+03  0.26270277610E+03  0.00000000000E+00 0.  1.
         24    2    1    2    0    0 -0.42598044583E+03  0.32895928580E+03  0.55056819421E+03  0.77619288110E+03  0.98369203828E+02 0.  0.
        254    2    1    2    0    0  0.42598044583E+03 -0.32895928580E+03  0.16830106553E+04  0.19827915206E+04  0.89959090501E+03 0.  0.
         23    2    4    4    0    0  0.61556854031E+02 -0.40826932144E+03  0.14971387863E+04  0.15558409297E+04  0.93505977377E+02 0.  0.
         23    2    4    4    0    0  0.36442359179E+03  0.79310035643E+02  0.18587186895E+03  0.42695059091E+03  0.92972143161E+02 0.  0.
          2    1    3    3  502    0 -0.44666171119E+02  0.10381938006E+02  0.77948011671E+02  0.90436408612E+02  0.00000000000E+00 0. -1.
         -1    1    3    3    0  502 -0.38131427471E+03  0.31857734779E+03  0.47262018254E+03  0.68575647249E+03  0.00000000000E+00 0.  1.
         13    1    5    5    0    0  0.64671685230E+02 -0.13382932779E+03  0.55152195031E+03  0.57119977024E+03  0.00000000000E+00 0. -1.
        -13    1    5    5    0    0 -0.31148311982E+01 -0.27443999365E+03  0.94561683603E+03  0.98464115944E+03  0.00000000000E+00 0.  1.
          4    1    6    6  503    0  0.16099346136E+03  0.38153659542E+02  0.31843996229E+02  0.16848927690E+03  0.00000000000E+00 0. -1.
         -4    1    6    6    0  503  0.20343013044E+03  0.41156376101E+02  0.15402787273E+03  0.25846131401E+03  0.00000000000E+00 0.  1.
<mgrwt>
<rscale>  0 0.16196050E+04</rscale>
<asrwt>0</asrwt>
<pdfrwt beam="1">  1        2 0.38404331E+00 0.16196050E+04</pdfrwt>
<pdfrwt beam="2">  1       -1 0.40415813E-01 0.16196050E+04</pdfrwt>
<totfact> 0.22844004E+01</totfact>
</mgrwt>
</event>
<event>
12    7  0.2492439E-007  0.1420782E+04  0.7818608E-02  0.8938911E-01
         -1   -1    0    0    0  501 -0.00000000000E+00  0.00000000000E+00  0.56529572284E+03  0.56529572284E+03  0.00000000000E+00 0.  1.
          2   -1    0    0  501    0  0.00000000000E+00 -0.00000000000E+00 -0.89272862283E+03  0.89272862283E+03  0.00000000000E+00 0. -1.
         24    2    1    2    0    0  0.84937753857E+01  0.20869453627E+03  0.27633773564E+03  0.35577403619E+03  0.81160747939E+02 0.  0.
        254    2    1    2    0    0 -0.84937753857E+01 -0.20869453627E+03 -0.60377063563E+03  0.11022503095E+04  0.89821557024E+03 0.  0.
         23    2    4    4    0    0 -0.22548132140E+03  0.28527884087E+03 -0.22731838405E+03  0.43795983319E+03  0.88934382604E+02 0.  0.
         23    2    4    4    0    0  0.21698754602E+03 -0.49397337714E+03 -0.37645225158E+03  0.66429047629E+03  0.92044808273E+02 0.  0.
          4    1    3    3  502    0  0.35560052565E+02  0.94093404397E+02  0.87971796305E+02  0.13363054679E+03  0.00000000000E+00 0. -1.
         -3    1    3    3    0  502 -0.27066277179E+02  0.11460113187E+03  0.18836593933E+03  0.22214348941E+03  0.00000000000E+00 0.  1.
         13    1    5    5    0    0  0.48867770833E+01  0.14052577748E+02  0.13950882418E+01  0.14943286213E+02  0.00000000000E+00 0.  1.
        -13    1    5    5    0    0 -0.23036809849E+03  0.27122626312E+03 -0.22871347229E+03  0.42301654698E+03  0.00000000000E+00 0. -1.
          1    1    6    6  503    0  0.15603724845E+03 -0.43102827398E+03 -0.29857715897E+03  0.54706609814E+03  0.00000000000E+00 0. -1.
         -1    1    6    6    0  503  0.60950297570E+02 -0.62945103154E+02 -0.77875092605E+02  0.11722437815E+03  0.00000000000E+00 0.  1.
<mgrwt>
<rscale>  0 0.14207824E+04</rscale>
<asrwt>0</asrwt>
<pdfrwt beam="1">  1        2 0.13734286E+00 0.14207824E+04</pdfrwt>
<pdfrwt beam="2">  1       -1 0.86968573E-01 0.14207824E+04</pdfrwt>
<totfact> 0.42858873E+01</totfact>
</mgrwt>
</event>
<event>
12    7  0.2492439E-007  0.1791683E+04  0.7818608E-02  0.8710735E-01
          2   -1    0    0  501    0  0.00000000000E+00  0.00000000000E+00  0.20583169106E+04  0.20583169106E+04  0.00000000000E+00 0. -1.
         -1   -1    0    0    0  501 -0.00000000000E+00 -0.00000000000E+00 -0.38989698477E+03  0.38989698477E+03  0.00000000000E+00 0.  1.
         24    2    1    2    0    0  0.49627350674E+03 -0.40564855901E+03  0.36855737172E+03  0.74363125932E+03  0.79465506141E+02 0.  0.
        254    2    1    2    0    0 -0.49627350674E+03  0.40564855901E+03  0.12998625541E+04  0.17045826361E+04  0.89728543767E+03 0.  0.
         23    2    4    4    0    0 -0.30466673995E+03 -0.18296928211E+03  0.87281792551E+03  0.94714747734E+03  0.94750367347E+02 0.  0.
         23    2    4    4    0    0 -0.19160676679E+03  0.58861784112E+03  0.42704462864E+03  0.75743515875E+03  0.90314942831E+02 0.  0.
          4    1    3    3  502    0  0.41558384532E+03 -0.30699297639E+03  0.31683554491E+03  0.60608529314E+03  0.00000000000E+00 0. -1.
         -3    1    3    3    0  502  0.80689661420E+02 -0.98655582628E+02  0.51721826803E+02  0.13754596618E+03  0.00000000000E+00 0.  1.
         13    1    5    5    0    0 -0.35701293583E+02 -0.56860876595E+02  0.11468453598E+03  0.13289200293E+03  0.00000000000E+00 0. -1.
        -13    1    5    5    0    0 -0.26896544637E+03 -0.12610840551E+03  0.75813338953E+03  0.81425547441E+03  0.00000000000E+00 0.  1.
          2    1    6    6  503    0 -0.11065514568E+03  0.20255291812E+03  0.14629880293E+03  0.27326833999E+03  0.00000000000E+00 0. -1.
         -2    1    6    6    0  503 -0.80951621105E+02  0.38606492300E+03  0.28074582571E+03  0.48416681876E+03  0.00000000000E+00 0.  1.
<mgrwt>
<rscale>  0 0.17916825E+04</rscale>
<asrwt>0</asrwt>
<pdfrwt beam="1">  1        2 0.31666413E+00 0.17916825E+04</pdfrwt>
<pdfrwt beam="2">  1       -1 0.59984153E-01 0.17916825E+04</pdfrwt>
<totfact> 0.18796526E+01</totfact>
</mgrwt>
</event>
<event>
12    7  0.2492439E-007  0.2497668E+04  0.7818608E-02  0.8403817E-01
         -1   -1    0    0    0  501 -0.00000000000E+00  0.00000000000E+00  0.71808534201E+03  0.71808534201E+03  0.00000000000E+00 0.  1.
          2   -1    0    0  501    0  0.00000000000E+00 -0.00000000000E+00 -0.21718684979E+04  0.21718684979E+04  0.00000000000E+00 0. -1.
         24    2    1    2    0    0 -0.32869333214E+03 -0.51555907454E+03  0.40405714077E+03  0.73705586484E+03  0.78413703939E+02 0.  0.
        254    2    1    2    0    0  0.32869333214E+03  0.51555907454E+03 -0.18578402967E+04  0.21528979751E+04  0.89975477617E+03 0.  0.
         23    2    4    4    0    0 -0.18283534731E+03 -0.65512686504E+02 -0.86320567952E+03  0.88940624501E+03  0.90546933561E+02 0.  0.
         23    2    4    4    0    0  0.51152867945E+03  0.58107176104E+03 -0.99463461715E+03  0.12634917301E+04  0.88359204125E+02 0.  0.
          4    1    3    3  502    0 -0.86115549493E+02 -0.86420251822E+02  0.10110522732E+03  0.15845066986E+03  0.00000000000E+00 0. -1.
         -3    1    3    3    0  502 -0.24257778265E+03 -0.42913882271E+03  0.30295191345E+03  0.57860519498E+03  0.00000000000E+00 0.  1.
         13    1    5    5    0    0 -0.43045118540E+02  0.22973424867E+02 -0.20509091234E+03  0.21081494920E+03  0.00000000000E+00 0. -1.
        -13    1    5    5    0    0 -0.13979022877E+03 -0.88486111371E+02 -0.65811476718E+03  0.67859129581E+03  0.00000000000E+00 0.  1.
          3    1    6    6  503    0  0.29444748645E+03  0.26828358525E+03 -0.51851364527E+03  0.65385916276E+03  0.00000000000E+00 0. -1.
         -3    1    6    6    0  503  0.21708119300E+03  0.31278817578E+03 -0.47612097189E+03  0.60963256732E+03  0.00000000000E+00 0.  1.
<mgrwt>
<rscale>  0 0.24976685E+04</rscale>
<asrwt>0</asrwt>
<pdfrwt beam="1">  1        2 0.33413361E+00 0.24976685E+04</pdfrwt>
<pdfrwt beam="2">  1       -1 0.11047467E+00 0.24976685E+04</pdfrwt>
<totfact> 0.41051177E+00</totfact>
</mgrwt>
</event>
<event>
12    7  0.2492439E-007  0.1218188E+04  0.7818608E-02  0.9097084E-01
         -3   -1    0    0    0  501 -0.00000000000E+00  0.00000000000E+00  0.29949874194E+03  0.29949874194E+03  0.00000000000E+00 0.  1.
          2   -1    0    0  501    0  0.00000000000E+00 -0.00000000000E+00 -0.12387218800E+04  0.12387218800E+04  0.00000000000E+00 0. -1.
         24    2    1    2    0    0  0.20717059780E+03  0.11014018573E+03 -0.37951767127E+03  0.45324670499E+03  0.79676820168E+02 0.  0.
        254    2    1    2    0    0 -0.20717059780E+03 -0.11014018573E+03 -0.55970546675E+03  0.10849739169E+04  0.89935959091E+03 0.  0.
         23    2    4    4    0    0 -0.24945376841E+03  0.13765078991E+03  0.14329719170E+03  0.33262168139E+03  0.94489021818E+02 0.  0.
         23    2    4    4    0    0  0.42283170610E+02 -0.24779097564E+03 -0.70300265845E+03  0.75235223552E+03  0.92913477950E+02 0.  0.
          4    1    3    3  502    0  0.88112888943E+02  0.11706411100E+02 -0.18152292325E+03  0.20211752256E+03  0.00000000000E+00 0. -1.
         -3    1    3    3    0  502  0.11905770886E+03  0.98433774631E+02 -0.19799474802E+03  0.25112918243E+03  0.00000000000E+00 0.  1.
         13    1    5    5    0    0 -0.18647732293E+03  0.10341007403E+03  0.14988058163E+03  0.26063695848E+03  0.00000000000E+00 0. -1.
        -13    1    5    5    0    0 -0.62976445477E+02  0.34240715875E+02 -0.65833899250E+01  0.71984722903E+02  0.00000000000E+00 0.  1.
          3    1    6    6  503    0  0.36102150289E+02 -0.23981217526E+03 -0.70138805929E+03  0.74213102238E+03  0.00000000000E+00 0. -1.
         -3    1    6    6    0  503  0.61810203210E+01 -0.79788003806E+01 -0.16145991569E+01  0.10221213145E+02  0.00000000000E+00 0.  1.
<mgrwt>
<rscale>  0 0.12181882E+04</rscale>
<asrwt>0</asrwt>
<pdfrwt beam="1">  1        2 0.19057259E+00 0.12181882E+04</pdfrwt>
<pdfrwt beam="2">  1       -3 0.46076730E-01 0.12181882E+04</pdfrwt>
<totfact> 0.53028116E+01</totfact>
</mgrwt>
</event>
<event>
12    7  0.2492439E-007  0.1153946E+04  0.7818608E-02  0.9154151E-01
          2   -1    0    0  501    0  0.00000000000E+00  0.00000000000E+00  0.29663641934E+04  0.29663641934E+04  0.00000000000E+00 0. -1.
         -1   -1    0    0    0  501 -0.00000000000E+00 -0.00000000000E+00 -0.11222417298E+03  0.11222417298E+03  0.00000000000E+00 0.  1.
         24    2    1    2    0    0  0.15811545788E+03 -0.67556364024E+02  0.90408644280E+03  0.92373235609E+03  0.79654311121E+02 0.  0.
        254    2    1    2    0    0 -0.15811545788E+03  0.67556364024E+02  0.19500535777E+04  0.21548560103E+04  0.90062817476E+03 0.  0.
         23    2    4    4    0    0 -0.12983835717E+03  0.13252861530E+03  0.55657147015E+01  0.20693088546E+03  0.91474484489E+02 0.  0.
         23    2    4    4    0    0 -0.28277100714E+02 -0.64972251276E+02  0.19444878630E+04  0.19479251249E+04  0.91423492843E+02 0.  0.
          2    1    3    3  502    0  0.12306658648E+03 -0.25655415054E+02  0.48193475990E+03  0.49806093787E+03  0.00000000000E+00 0. -1.
         -1    1    3    3    0  502  0.35048871401E+02 -0.41900948970E+02  0.42215168290E+03  0.42567141822E+03  0.00000000000E+00 0.  1.
         13    1    5    5    0    0 -0.43561938769E+02  0.60253305284E+01  0.28057250860E+02  0.52164704955E+02  0.00000000000E+00 0. -1.
        -13    1    5    5    0    0 -0.86276418398E+02  0.12650328477E+03 -0.22491536158E+02  0.15476618051E+03  0.00000000000E+00 0.  1.
          3    1    6    6  503    0  0.14692196733E+02 -0.38359641424E+02  0.31670433602E+03  0.31935710293E+03  0.00000000000E+00 0. -1.
         -3    1    6    6    0  503 -0.42969297447E+02 -0.26612609852E+02  0.16277835269E+04  0.16285680219E+04  0.00000000000E+00 0.  1.
<mgrwt>
<rscale>  0 0.11539459E+04</rscale>
<asrwt>0</asrwt>
<pdfrwt beam="1">  1        2 0.45636366E+00 0.11539459E+04</pdfrwt>
<pdfrwt beam="2">  1       -1 0.17265260E-01 0.11539459E+04</pdfrwt>
<totfact> 0.54663238E+01</totfact>
</mgrwt>
</event>
<event>
12    7  0.2492439E-007  0.3862663E+04  0.7818608E-02  0.8032840E-01
          2   -1    0    0  501    0  0.00000000000E+00  0.00000000000E+00  0.14868374419E+04  0.14868374419E+04  0.00000000000E+00 0. -1.
         -1   -1    0    0    0  501 -0.00000000000E+00 -0.00000000000E+00 -0.25087085777E+04  0.25087085777E+04  0.00000000000E+00 0.  1.
         24    2    1    2    0    0 -0.86126394483E+03  0.25963988011E+03 -0.21259101084E+04  0.23098083431E+04  0.80822909803E+02 0.  0.
        254    2    1    2    0    0  0.86126394483E+03 -0.25963988011E+03  0.11040389726E+04  0.16857376765E+04  0.90200942950E+03 0.  0.
         23    2    4    4    0    0  0.81759399397E+03 -0.31243043206E+03  0.12322393806E+04  0.15141732502E+04  0.90741538463E+02 0.  0.
         23    2    4    4    0    0  0.43669950867E+02  0.52790551944E+02 -0.12820040796E+03  0.17156442628E+03  0.91132325654E+02 0.  0.
          4    1    3    3  502    0 -0.24612861648E+03  0.37059289850E+02 -0.60166181852E+03  0.65111414566E+03  0.00000000000E+00 0. -1.
         -3    1    3    3    0  502 -0.61513532835E+03  0.22258059026E+03 -0.15242482899E+04  0.16586941974E+04  0.00000000000E+00 0.  1.
         13    1    5    5    0    0  0.23920354186E+03 -0.13375780719E+03  0.36002075093E+03  0.45246483457E+03  0.00000000000E+00 0. -1.
        -13    1    5    5    0    0  0.57839045210E+03 -0.17867262486E+03  0.87221862963E+03  0.10617084156E+04  0.00000000000E+00 0.  1.
          2    1    6    6  503    0 -0.27141819154E+02  0.13593088509E+02 -0.53036997655E+02  0.61109520718E+02  0.00000000000E+00 0.  1.
         -2    1    6    6    0  503  0.70811770021E+02  0.39197463435E+02 -0.75163410309E+02  0.11045490556E+03  0.00000000000E+00 0. -1.
<mgrwt>
<rscale>  0 0.38626632E+04</rscale>
<asrwt>0</asrwt>
<pdfrwt beam="1">  1        2 0.22874422E+00 0.38626632E+04</pdfrwt>
<pdfrwt beam="2">  1       -1 0.38595516E+00 0.38626632E+04</pdfrwt>
<totfact> 0.10452924E-01</totfact>
</mgrwt>
</event>
<event>
12    7  0.2492439E-007  0.1914746E+04  0.7818608E-02  0.8647551E-01
         -1   -1    0    0    0  501 -0.00000000000E+00  0.00000000000E+00  0.69639790396E+03  0.69639790396E+03  0.00000000000E+00 0.  1.
          2   -1    0    0  501    0  0.00000000000E+00 -0.00000000000E+00 -0.13161489148E+04  0.13161489148E+04  0.00000000000E+00 0. -1.
         24    2    1    2    0    0  0.43565742524E+02 -0.71936727447E+03 -0.43718137522E+03  0.84693155340E+03  0.82330139080E+02 0.  0.
        254    2    1    2    0    0 -0.43565742524E+02  0.71936727447E+03 -0.18256963559E+03  0.11656152653E+04  0.89774162510E+03 0.  0.
         23    2    4    4    0    0 -0.44733875095E+03  0.40952523900E+03 -0.20974868207E+03  0.64750717210E+03  0.86302658230E+02 0.  0.
         23    2    4    4    0    0  0.40377300842E+03  0.30984203547E+03  0.27179046477E+02  0.51810809323E+03  0.93072909207E+02 0.  0.
          4    1    3    3  502    0 -0.18697468883E+02 -0.34219973723E+03 -0.19280657419E+03  0.39322338505E+03  0.00000000000E+00 0. -1.
         -3    1    3    3    0  502  0.62263211407E+02 -0.37716753724E+03 -0.24437480103E+03  0.45370816834E+03  0.00000000000E+00 0.  1.
         13    1    5    5    0    0 -0.82393351561E+00  0.19275991038E+02 -0.10145365910E+02  0.21798420731E+02  0.00000000000E+00 0. -1.
        -13    1    5    5    0    0 -0.44651481743E+03  0.39024924796E+03 -0.19960331616E+03  0.62570875137E+03  0.00000000000E+00 0.  1.
          1    1    6    6  503    0  0.30349880549E+02  0.93842724581E+01  0.22263052987E+02  0.38792052629E+02  0.00000000000E+00 0. -1.
         -1    1    6    6    0  503  0.37342312787E+03  0.30045776301E+03  0.49159934893E+01  0.47931604060E+03  0.00000000000E+00 0.  1.
<mgrwt>
<rscale>  0 0.19147463E+04</rscale>
<asrwt>0</asrwt>
<pdfrwt beam="1">  1        2 0.20248445E+00 0.19147463E+04</pdfrwt>
<pdfrwt beam="2">  1       -1 0.10713814E+00 0.19147463E+04</pdfrwt>
<totfact> 0.14009906E+01</totfact>
</mgrwt>
</event>
<event>
12    7  0.2492439E-007  0.3848447E+04  0.7818608E-02  0.8035837E-01
         -1   -1    0    0    0  501 -0.00000000000E+00  0.00000000000E+00  0.11333901635E+04  0.11333901635E+04  0.00000000000E+00 0.  1.
          2   -1    0    0  501    0  0.00000000000E+00 -0.00000000000E+00 -0.32668686999E+04  0.32668686999E+04  0.00000000000E+00 0. -1.
         24    2    1    2    0    0  0.88084415553E+03  0.15266599201E+04 -0.15189322255E+04  0.23284783292E+04  0.89884848323E+02 0.  0.
        254    2    1    2    0    0 -0.88084415553E+03 -0.15266599201E+04 -0.61454631099E+03  0.20717805343E+04  0.89890515403E+03 0.  0.
         23    2    4    4    0    0 -0.40351642740E+03 -0.10329325101E+04  0.47146826463E+02  0.11136648916E+04  0.90838261934E+02 0.  0.
         23    2    4    4    0    0 -0.47732772813E+03 -0.49372740993E+03 -0.66169313746E+03  0.95811564268E+03  0.92408123202E+02 0.  0.
          4    1    3    3  502    0  0.81628173826E+03  0.14192575735E+04 -0.14397067471E+04  0.21802209644E+04  0.00000000000E+00 0. -1.
         -3    1    3    3    0  502  0.64562417276E+02  0.10740234656E+03 -0.79225478370E+02  0.14825736472E+03  0.00000000000E+00 0.  1.
         13    1    5    5    0    0 -0.23165502472E+03 -0.47489746902E+03  0.36938161391E+02  0.52967545188E+03  0.00000000000E+00 0. -1.
        -13    1    5    5    0    0 -0.17186140268E+03 -0.55803504111E+03  0.10208665073E+02  0.58398943970E+03  0.00000000000E+00 0.  1.
          3    1    6    6  503    0 -0.14360942985E+03 -0.15401635637E+03 -0.26391583096E+03  0.33763333989E+03  0.00000000000E+00 0. -1.
         -3    1    6    6    0  503 -0.33371829828E+03 -0.33971105356E+03 -0.39777730650E+03  0.62048230279E+03  0.00000000000E+00 0.  1.
<mgrwt>
<rscale>  0 0.38484474E+04</rscale>
<asrwt>0</asrwt>
<pdfrwt beam="1">  1        2 0.50259518E+00 0.38484474E+04</pdfrwt>
<pdfrwt beam="2">  1       -1 0.17436772E+00 0.38484474E+04</pdfrwt>
<totfact> 0.24257704E-01</totfact>
</mgrwt>
</event>
<event>
12    7  0.2492439E-007  0.1575360E+04  0.7818608E-02  0.8835830E-01
         -1   -1    0    0    0  501 -0.00000000000E+00  0.00000000000E+00  0.75867843061E+03  0.75867843061E+03  0.00000000000E+00 0.  1.
          2   -1    0    0  501    0  0.00000000000E+00 -0.00000000000E+00 -0.81778978238E+03  0.81778978238E+03  0.00000000000E+00 0. -1.
         24    2    1    2    0    0 -0.29908069314E+03  0.35331439966E+03  0.20790278671E+03  0.51396073229E+03  0.81558197634E+02 0.  0.
        254    2    1    2    0    0  0.29908069314E+03 -0.35331439966E+03 -0.26701413848E+03  0.10625074807E+04  0.91833832022E+03 0.  0.
         23    2    4    4    0    0 -0.24911900095E+03  0.12243890931E+03 -0.31144086520E+02  0.29387589340E+03  0.91331941013E+02 0.  0.
         23    2    4    4    0    0  0.54819969409E+03 -0.47575330897E+03 -0.23587005196E+03  0.76863158730E+03  0.91080843156E+02 0.  0.
          4    1    3    3  502    0 -0.51374689686E+02  0.39143859994E+02  0.34753952939E+01  0.64681364302E+02  0.00000000000E+00 0. -1.
         -3    1    3    3    0  502 -0.24770600346E+03  0.31417053966E+03  0.20442739142E+03  0.44927936799E+03  0.00000000000E+00 0.  1.
         13    1    5    5    0    0 -0.23784118665E+03  0.94145723441E+02 -0.46142998243E+02  0.25992503457E+03  0.00000000000E+00 0.  1.
        -13    1    5    5    0    0 -0.11277814292E+02  0.28293185873E+02  0.14998911723E+02  0.33950858824E+02  0.00000000000E+00 0. -1.
          2    1    6    6  503    0  0.17103248018E+03 -0.20135920390E+03 -0.10403429805E+03  0.28393797464E+03  0.00000000000E+00 0. -1.
         -2    1    6    6    0  503  0.37716721391E+03 -0.27439410507E+03 -0.13183575390E+03  0.48469361266E+03  0.00000000000E+00 0.  1.
<mgrwt>
<rscale>  0 0.15753596E+04</rscale>
<asrwt>0</asrwt>
<pdfrwt beam="1">  1        2 0.12581381E+00 0.15753596E+04</pdfrwt>
<pdfrwt beam="2">  1       -1 0.11671976E+00 0.15753596E+04</pdfrwt>
<totfact> 0.24301552E+01</totfact>
</mgrwt>
</event>
<event>
12    7  0.2492439E-007  0.2774581E+04  0.7818608E-02  0.8311204E-01
         -1   -1    0    0    0  501 -0.00000000000E+00  0.00000000000E+00  0.67230126086E+03  0.67230126086E+03  0.00000000000E+00 0.  1.
          2   -1    0    0  501    0  0.00000000000E+00 -0.00000000000E+00 -0.28626679595E+04  0.28626679595E+04  0.00000000000E+00 0. -1.
         24    2    1    2    0    0 -0.25064208828E+03 -0.10504692631E+04 -0.20498743776E+03  0.11022264033E+04  0.81092942498E+02 0.  0.
        254    2    1    2    0    0  0.25064208828E+03  0.10504692631E+04 -0.19853792609E+04  0.24327428171E+04  0.90011092378E+03 0.  0.
         23    2    4    4    0    0  0.51151771363E+03  0.53763527435E+03 -0.71282618093E+03  0.10328839107E+04  0.89587661631E+02 0.  0.
         23    2    4    4    0    0 -0.26087562535E+03  0.51283398879E+03 -0.12725530800E+04  0.13998589064E+04  0.95701747503E+02 0.  0.
          4    1    3    3  502    0 -0.15064825470E+03 -0.77982759088E+03 -0.16035519240E+03  0.81027140877E+03  0.00000000000E+00 0. -1.
         -3    1    3    3    0  502 -0.99993833582E+02 -0.27064167226E+03 -0.44632245362E+02  0.29195499455E+03  0.00000000000E+00 0.  1.
         13    1    5    5    0    0  0.13031760317E+03  0.86498407844E+02 -0.13500468310E+03  0.20661780348E+03  0.00000000000E+00 0. -1.
        -13    1    5    5    0    0  0.38120011046E+03  0.45113686651E+03 -0.57782149783E+03  0.82626610720E+03  0.00000000000E+00 0.  1.
          4    1    6    6  503    0 -0.10390450082E+03  0.25743949333E+03 -0.51324918067E+03  0.58352031625E+03  0.00000000000E+00 0. -1.
         -4    1    6    6    0  503 -0.15697112453E+03  0.25539449546E+03 -0.75930389932E+03  0.81633859015E+03  0.00000000000E+00 0.  1.
<mgrwt>
<rscale>  0 0.27745813E+04</rscale>
<asrwt>0</asrwt>
<pdfrwt beam="1">  1        2 0.44041045E+00 0.27745813E+04</pdfrwt>
<pdfrwt beam="2">  1       -1 0.10343096E+00 0.27745813E+04</pdfrwt>
<totfact> 0.18501642E+00</totfact>
</mgrwt>
</event>
<event>
12    7  0.2492439E-007  0.2775376E+04  0.7818608E-02  0.8310954E-01
          2   -1    0    0  501    0  0.00000000000E+00  0.00000000000E+00  0.20088042562E+04  0.20088042562E+04  0.00000000000E+00 0. -1.
         -1   -1    0    0    0  501 -0.00000000000E+00 -0.00000000000E+00 -0.95861916282E+03  0.95861916282E+03  0.00000000000E+00 0.  1.
         24    2    1    2    0    0 -0.12063894774E+04  0.22119142157E+03  0.66942049275E+03  0.13996361827E+04  0.80971794860E+02 0.  0.
        254    2    1    2    0    0  0.12063894774E+04 -0.22119142157E+03  0.38076460063E+03  0.15677872363E+04  0.89926298768E+03 0.  0.
         23    2    4    4    0    0  0.12379514553E+04 -0.87051329850E+02  0.52285994810E+03  0.13500292746E+04  0.95366541954E+02 0.  0.
         23    2    4    4    0    0 -0.31561977846E+02 -0.13414009172E+03 -0.14209534748E+03  0.21775796170E+03  0.90761883270E+02 0.  0.
          4    1    3    3  502    0 -0.70587725104E+03  0.12364730114E+03  0.43585651521E+03  0.83876233253E+03  0.00000000000E+00 0. -1.
         -3    1    3    3    0  502 -0.50051222640E+03  0.97544120428E+02  0.23356397754E+03  0.56087385017E+03  0.00000000000E+00 0.  1.
         13    1    5    5    0    0  0.59171047232E+03 -0.11747384478E+02  0.28941674927E+03  0.65880295905E+03  0.00000000000E+00 0. -1.
        -13    1    5    5    0    0  0.64624098296E+03 -0.75303945372E+02  0.23344319883E+03  0.69122631557E+03  0.00000000000E+00 0.  1.
          4    1    6    6  503    0  0.41669251942E+00 -0.12824333006E+03 -0.13119218201E+03  0.18346093305E+03  0.00000000000E+00 0. -1.
         -4    1    6    6    0  503 -0.31978670365E+02 -0.58967616642E+01 -0.10903165470E+02  0.34297028643E+02  0.00000000000E+00 0.  1.
<mgrwt>
<rscale>  0 0.27753762E+04</rscale>
<asrwt>0</asrwt>
<pdfrwt beam="1">  1        2 0.30904681E+00 0.27753762E+04</pdfrwt>
<pdfrwt beam="2">  1       -1 0.14747987E+00 0.27753762E+04</pdfrwt>
<totfact> 0.23928279E+00</totfact>
</mgrwt>
</event>
<event>
12    7  0.2492439E-007  0.2606007E+04  0.7818608E-02  0.8366164E-01
          2   -1    0    0  501    0  0.00000000000E+00  0.00000000000E+00  0.22982459780E+04  0.22982459780E+04  0.00000000000E+00 0. -1.
         -1   -1    0    0    0  501 -0.00000000000E+00 -0.00000000000E+00 -0.73874515009E+03  0.73874515009E+03  0.00000000000E+00 0.  1.
         24    2    1    2    0    0 -0.50676205336E+03 -0.95587297006E+03  0.11286151405E+04  0.15655142586E+04  0.81005215234E+02 0.  0.
        254    2    1    2    0    0  0.50676205336E+03  0.95587297006E+03  0.43088568740E+03  0.14714768695E+04  0.89948918184E+03 0.  0.
         23    2    4    4    0    0  0.38684231256E+03  0.19088108156E+02  0.33126820007E+03  0.51759598759E+03  0.90308666999E+02 0.  0.
         23    2    4    4    0    0  0.11991974080E+03  0.93678486191E+03  0.99617487335E+02  0.95388088191E+03  0.89545917636E+02 0.  0.
          4    1    3    3  502    0 -0.12011685801E+03 -0.18550249868E+03  0.26961896957E+03  0.34861673131E+03  0.00000000000E+00 0. -1.
         -3    1    3    3    0  502 -0.38664519535E+03 -0.77037047138E+03  0.85899617097E+03  0.12168975273E+04  0.00000000000E+00 0.  1.
         13    1    5    5    0    0  0.36146884960E+03  0.33714785812E+02  0.32581944793E+03  0.48780603590E+03  0.00000000000E+00 0. -1.
        -13    1    5    5    0    0  0.25373462956E+02 -0.14626677656E+02  0.54487521391E+01  0.29789951687E+02  0.00000000000E+00 0.  1.
          3    1    6    6  503    0  0.51420506038E+02  0.55866983737E+03  0.19629241466E+02  0.56137452984E+03  0.00000000000E+00 0. -1.
         -3    1    6    6    0  503  0.68499234766E+02  0.37811502454E+03  0.79988245869E+02  0.39250635208E+03  0.00000000000E+00 0.  1.
<mgrwt>
<rscale>  0 0.26060070E+04</rscale>
<asrwt>0</asrwt>
<pdfrwt beam="1">  1        2 0.35357630E+00 0.26060070E+04</pdfrwt>
<pdfrwt beam="2">  1       -1 0.11365310E+00 0.26060070E+04</pdfrwt>
<totfact> 0.32256541E+00</totfact>
</mgrwt>
</event>
<event>
12    7  0.2492439E-007  0.2655463E+04  0.7818608E-02  0.8349602E-01
         -1   -1    0    0    0  501 -0.00000000000E+00  0.00000000000E+00  0.25954740810E+04  0.25954740810E+04  0.00000000000E+00 0.  1.
          2   -1    0    0  501    0  0.00000000000E+00 -0.00000000000E+00 -0.67920963212E+03  0.67920963212E+03  0.00000000000E+00 0. -1.
         24    2    1    2    0    0  0.10884908990E+04 -0.43698159701E+03  0.78886951713E+03  0.14157972294E+04  0.80008289969E+02 0.  0.
        254    2    1    2    0    0 -0.10884908990E+04  0.43698159701E+03  0.11273949318E+04  0.18588864837E+04  0.89926318379E+03 0.  0.
         23    2    4    4    0    0  0.10921901093E+03  0.21204438195E+03  0.19522536526E+03  0.32223429581E+03  0.93970132973E+02 0.  0.
         23    2    4    4    0    0 -0.11977099100E+04  0.22493721505E+03  0.93216956652E+03  0.15366521879E+04  0.85170808861E+02 0.  0.
          4    1    3    3  502    0  0.90118518738E+03 -0.34490947208E+03  0.67939596977E+03  0.11801170152E+04  0.00000000000E+00 0. -1.
         -3    1    3    3    0  502  0.18730571164E+03 -0.92072124924E+02  0.10947354736E+03  0.23568021421E+03  0.00000000000E+00 0.  1.
         13    1    5    5    0    0  0.41199550296E+01  0.35790037509E+02  0.77959944114E+02  0.85881626094E+02  0.00000000000E+00 0.  1.
        -13    1    5    5    0    0  0.10509905590E+03  0.17625434444E+03  0.11726542114E+03  0.23635266972E+03  0.00000000000E+00 0. -1.
          1    1    6    6  503    0 -0.21002209395E+03  0.69834048571E+01  0.16467384605E+03  0.26697476185E+03  0.00000000000E+00 0. -1.
         -1    1    6    6    0  503 -0.98768781600E+03  0.21795381020E+03  0.76749572047E+03  0.12696774260E+04  0.00000000000E+00 0.  1.
<mgrwt>
<rscale>  0 0.26554630E+04</rscale>
<asrwt>0</asrwt>
<pdfrwt beam="1">  1        2 0.10449379E+00 0.26554630E+04</pdfrwt>
<pdfrwt beam="2">  1       -1 0.39930370E+00 0.26554630E+04</pdfrwt>
<totfact> 0.30908115E-01</totfact>
</mgrwt>
</event>
<event>
12    7  0.2492439E-007  0.3573119E+04  0.7818608E-02  0.8096677E-01
          2   -1    0    0  501    0  0.00000000000E+00  0.00000000000E+00  0.13120826323E+04  0.13120826323E+04  0.00000000000E+00 0. -1.
         -1   -1    0    0    0  501 -0.00000000000E+00 -0.00000000000E+00 -0.24326173268E+04  0.24326173268E+04  0.00000000000E+00 0.  1.
         24    2    1    2    0    0  0.14599210448E+03 -0.11404920790E+04 -0.17976070138E+04  0.21353894748E+04  0.80382561088E+02 0.  0.
        254    2    1    2    0    0 -0.14599210448E+03  0.11404920790E+04  0.67707231933E+03  0.16093104843E+04  0.89967629310E+03 0.  0.
         23    2    4    4    0    0  0.86425142330E+02  0.11664921847E+04  0.41468159600E+03  0.12444400483E+04  0.92178552597E+02 0.  0.
         23    2    4    4    0    0 -0.23241724681E+03 -0.26000105728E+02  0.26239072333E+03  0.36487043596E+03  0.97917114100E+02 0.  0.
          4    1    3    3  502    0  0.10235343668E+03 -0.68742636738E+03 -0.11533201648E+04  0.13465432184E+04  0.00000000000E+00 0. -1.
         -3    1    3    3    0  502  0.43638667805E+02 -0.45306571158E+03 -0.64428684904E+03  0.78884625637E+03  0.00000000000E+00 0.  1.
         13    1    5    5    0    0  0.23213433313E+02  0.77944876744E+03  0.30392698505E+03  0.83692942163E+03  0.00000000000E+00 0. -1.
        -13    1    5    5    0    0  0.63211709016E+02  0.38704341726E+03  0.11075461094E+03  0.40751062666E+03  0.00000000000E+00 0.  1.
          2    1    6    6  503    0 -0.48262335849E+02 -0.18525530500E+02  0.10498614696E+02  0.52751011861E+02  0.00000000000E+00 0. -1.
         -2    1    6    6    0  503 -0.18415491096E+03 -0.74745752285E+01  0.25189210863E+03  0.31211942410E+03  0.00000000000E+00 0.  1.
<mgrwt>
<rscale>  0 0.35731191E+04</rscale>
<asrwt>0</asrwt>
<pdfrwt beam="1">  1        2 0.20185887E+00 0.35731191E+04</pdfrwt>
<pdfrwt beam="2">  1       -1 0.37424882E+00 0.35731191E+04</pdfrwt>
<totfact> 0.16179419E-01</totfact>
</mgrwt>
</event>
<event>
12    7  0.2492439E-007  0.3020130E+04  0.7818608E-02  0.8238006E-01
         -1   -1    0    0    0  501 -0.00000000000E+00  0.00000000000E+00  0.14901827418E+04  0.14901827418E+04  0.00000000000E+00 0.  1.
          2   -1    0    0  501    0  0.00000000000E+00 -0.00000000000E+00 -0.15302128883E+04  0.15302128883E+04  0.00000000000E+00 0. -1.
         24    2    1    2    0    0  0.12365480887E+04 -0.34168127812E+03  0.47576391543E+03  0.13703965950E+04  0.76408461364E+02 0.  0.
        254    2    1    2    0    0 -0.12365480887E+04  0.34168127812E+03 -0.51579406191E+03  0.16499990351E+04  0.90036438748E+03 0.  0.
         23    2    4    4    0    0 -0.33214559342E+03  0.34920704114E+03 -0.55413001634E+03  0.74010470706E+03  0.91807677201E+02 0.  0.
         23    2    4    4    0    0 -0.90440249523E+03 -0.75257630204E+01  0.38335954431E+02  0.90989432806E+03  0.91856041424E+02 0.  0.
          2    1    3    3  502    0  0.34314769624E+03 -0.73939477051E+02  0.10104153308E+03  0.36527630516E+03  0.00000000000E+00 0. -1.
         -1    1    3    3    0  502  0.89340039241E+03 -0.26774180107E+03  0.37472238235E+03  0.10051202898E+04  0.00000000000E+00 0.  1.
         13    1    5    5    0    0 -0.32060617647E+03  0.35361773229E+03 -0.53186950562E+03  0.71464606064E+03  0.00000000000E+00 0.  1.
        -13    1    5    5    0    0 -0.11539416952E+02 -0.44106911508E+01 -0.22260510718E+02  0.25458646418E+02  0.00000000000E+00 0. -1.
          3    1    6    6  503    0 -0.88980952667E+03 -0.14308128999E+02  0.27228422554E+02  0.89034100394E+03  0.00000000000E+00 0. -1.
         -3    1    6    6    0  503 -0.14592968567E+02  0.67823659788E+01  0.11107531877E+02  0.19553324123E+02  0.00000000000E+00 0.  1.
<mgrwt>
<rscale>  0 0.30201304E+04</rscale>
<asrwt>0</asrwt>
<pdfrwt beam="1">  1        2 0.23541737E+00 0.30201304E+04</pdfrwt>
<pdfrwt beam="2">  1       -1 0.22925888E+00 0.30201304E+04</pdfrwt>
<totfact> 0.11337846E+00</totfact>
</mgrwt>
</event>
<event>
12    7  0.2492439E-007  0.1723280E+04  0.7818608E-02  0.8748197E-01
          2   -1    0    0  501    0  0.00000000000E+00  0.00000000000E+00  0.89560088797E+03  0.89560088797E+03  0.00000000000E+00 0. -1.
         -1   -1    0    0    0  501 -0.00000000000E+00 -0.00000000000E+00 -0.82896732384E+03  0.82896732384E+03  0.00000000000E+00 0.  1.
         24    2    1    2    0    0  0.28155180174E+03  0.19356351230E+03 -0.49517937428E+03  0.60952080015E+03  0.97850614431E+02 0.  0.
        254    2    1    2    0    0 -0.28155180174E+03 -0.19356351230E+03  0.56181293842E+03  0.11150474117E+04  0.90053245479E+03 0.  0.
         23    2    4    4    0    0 -0.17984328183E+03  0.33155796682E+03  0.37665737176E+03  0.54155635333E+03  0.95594020480E+02 0.  0.
         23    2    4    4    0    0 -0.10170851991E+03 -0.52512147911E+03  0.18515556666E+03  0.57349105833E+03  0.92261689082E+02 0.  0.
          4    1    3    3  502    0  0.15740035712E+02  0.18647844466E+02 -0.46774182181E+01  0.24846912658E+02  0.00000000000E+00 0. -1.
         -3    1    3    3    0  502  0.26581176602E+03  0.17491566783E+03 -0.49050195607E+03  0.58467388749E+03  0.00000000000E+00 0.  1.
         13    1    5    5    0    0 -0.88602006058E+02  0.20315501599E+03  0.27861501545E+03  0.35601770017E+03  0.00000000000E+00 0. -1.
        -13    1    5    5    0    0 -0.91241275773E+02  0.12840295083E+03  0.98042356308E+02  0.18553865316E+03  0.00000000000E+00 0.  1.
          4    1    6    6  503    0  0.73940873518E+00 -0.27965204541E+01 -0.70134791236E+01  0.75865763915E+01  0.00000000000E+00 0. -1.
         -4    1    6    6    0  503 -0.10244792864E+03 -0.52232495866E+03  0.19216904578E+03  0.56590448194E+03  0.00000000000E+00 0.  1.
<mgrwt>
<rscale>  0 0.17232804E+04</rscale>
<asrwt>0</asrwt>
<pdfrwt beam="1">  1        2 0.13778475E+00 0.17232804E+04</pdfrwt>
<pdfrwt beam="2">  1       -1 0.12753343E+00 0.17232804E+04</pdfrwt>
<totfact> 0.17035686E+01</totfact>
</mgrwt>
</event>
<event>
12    7  0.2492439E-007  0.3176457E+04  0.7818608E-02  0.8195063E-01
         -1   -1    0    0    0  501 -0.00000000000E+00  0.00000000000E+00  0.86923239637E+03  0.86923239637E+03  0.00000000000E+00 0.  1.
          2   -1    0    0  501    0  0.00000000000E+00 -0.00000000000E+00 -0.29019516914E+04  0.29019516914E+04  0.00000000000E+00 0. -1.
         24    2    1    2    0    0 -0.49087077697E+03 -0.12784682997E+04 -0.15261464748E+04  0.20524579749E+04  0.89584392260E+02 0.  0.
        254    2    1    2    0    0  0.49087077697E+03  0.12784682997E+04 -0.50657282026E+03  0.17187261129E+04  0.90662457277E+03 0.  0.
         23    2    4    4    0    0  0.42086591299E+03  0.47716960853E+03  0.16796792317E+03  0.66475023042E+03  0.94131257375E+02 0.  0.
         23    2    4    4    0    0  0.70004863980E+02  0.80129869114E+03 -0.67454074343E+03  0.10539758825E+04  0.94232016073E+02 0.  0.
          2    1    3    3  502    0 -0.43202982912E+03 -0.11078095701E+04 -0.13671580522E+04  0.18119086502E+04  0.00000000000E+00 0. -1.
         -1    1    3    3    0  502 -0.58840947848E+02 -0.17065872952E+03 -0.15898842260E+03  0.24054932473E+03  0.00000000000E+00 0.  1.
         13    1    5    5    0    0  0.56764962025E+01  0.14477596854E+02  0.20683322156E+02  0.25877079341E+02  0.00000000000E+00 0. -1.
        -13    1    5    5    0    0  0.41518941679E+03  0.46269201167E+03  0.14728460101E+03  0.63887315108E+03  0.00000000000E+00 0.  1.
          1    1    6    6  503    0 -0.10262287403E+02  0.20130714038E+03 -0.13079686335E+03  0.24028670120E+03  0.00000000000E+00 0. -1.
         -1    1    6    6    0  503  0.80267151383E+02  0.59999155076E+03 -0.54374388009E+03  0.81368918126E+03  0.00000000000E+00 0.  1.
<mgrwt>
<rscale>  0 0.31764574E+04</rscale>
<asrwt>0</asrwt>
<pdfrwt beam="1">  1        2 0.44645411E+00 0.31764574E+04</pdfrwt>
<pdfrwt beam="2">  1       -1 0.13372806E+00 0.31764574E+04</pdfrwt>
<totfact> 0.90571497E-01</totfact>
</mgrwt>
</event>
<event>
12    7  0.2492439E-007  0.1654329E+04  0.7818608E-02  0.8787850E-01
          2   -1    0    0  501    0  0.00000000000E+00  0.00000000000E+00  0.16010444981E+04  0.16010444981E+04  0.00000000000E+00 0. -1.
         -1   -1    0    0    0  501 -0.00000000000E+00 -0.00000000000E+00 -0.42734646027E+03  0.42734646027E+03  0.00000000000E+00 0.  1.
         24    2    1    2    0    0 -0.11220792696E+03  0.49313124232E+03  0.69574707718E+02  0.51674591300E+03  0.80104042491E+02 0.  0.
        254    2    1    2    0    0  0.11220792696E+03 -0.49313124232E+03  0.11041233301E+04  0.15116450454E+04  0.90011853334E+03 0.  0.
         23    2    4    4    0    0 -0.59871019429E+02  0.11997538505E+03  0.77042843630E+03  0.78731129271E+03  0.91216578491E+02 0.  0.
         23    2    4    4    0    0  0.17207894639E+03 -0.61310662736E+03  0.33369489380E+03  0.72433375264E+03  0.88296108426E+02 0.  0.
          4    1    3    3  502    0 -0.97698434141E+02  0.34731957330E+03  0.80965873274E+02  0.36977201445E+03  0.00000000000E+00 0. -1.
         -3    1    3    3    0  502 -0.14509492823E+02  0.14581166901E+03 -0.11391165556E+02  0.14697389855E+03  0.00000000000E+00 0.  1.
         13    1    5    5    0    0 -0.85793420911E+01  0.14313930522E+02  0.13897184842E+02  0.21716939569E+02  0.00000000000E+00 0.  1.
        -13    1    5    5    0    0 -0.51291677338E+02  0.10566145452E+03  0.75653125145E+03  0.76559435314E+03  0.00000000000E+00 0. -1.
          1    1    6    6  503    0  0.14860587958E+03 -0.59023744097E+03  0.30512107441E+03  0.68085447360E+03  0.00000000000E+00 0. -1.
         -1    1    6    6    0  503  0.23473066817E+02 -0.22869186394E+02  0.28573819385E+02  0.43479279046E+02  0.00000000000E+00 0.  1.
<mgrwt>
<rscale>  0 0.16543285E+04</rscale>
<asrwt>0</asrwt>
<pdfrwt beam="1">  1        2 0.24631453E+00 0.16543285E+04</pdfrwt>
<pdfrwt beam="2">  1       -1 0.65745610E-01 0.16543285E+04</pdfrwt>
<totfact> 0.28412256E+01</totfact>
</mgrwt>
</event>
<event>
12    7  0.2492439E-007  0.3817764E+04  0.7818608E-02  0.8042353E-01
         -1   -1    0    0    0  501 -0.00000000000E+00  0.00000000000E+00  0.12395897520E+04  0.12395897520E+04  0.00000000000E+00 0.  1.
          2   -1    0    0  501    0  0.00000000000E+00 -0.00000000000E+00 -0.29395460384E+04  0.29395460384E+04  0.00000000000E+00 0. -1.
         24    2    1    2    0    0  0.90660981391E+03 -0.15545553056E+04 -0.70321732622E+03  0.19337441707E+04  0.79172956011E+02 0.  0.
        254    2    1    2    0    0 -0.90660981391E+03  0.15545553056E+04 -0.99673896022E+03  0.22453916198E+04  0.89983966268E+03 0.  0.
         23    2    4    4    0    0 -0.60728466429E+03  0.70185421280E+03 -0.51937843098E+02  0.93444284137E+03  0.95351375107E+02 0.  0.
         23    2    4    4    0    0 -0.29932514962E+03  0.85270109277E+03 -0.94480111712E+03  0.13109487784E+04  0.96139741292E+02 0.  0.
          4    1    3    3  502    0  0.42861386732E+03 -0.80997568383E+03 -0.37036804051E+03  0.98840423971E+03  0.00000000000E+00 0. -1.
         -3    1    3    3    0  502  0.47799594659E+03 -0.74457962174E+03 -0.33284928571E+03  0.94533993096E+03  0.00000000000E+00 0.  1.
         13    1    5    5    0    0 -0.37304030489E+03  0.38941075079E+03 -0.68491563972E+02  0.54359074334E+03  0.00000000000E+00 0. -1.
        -13    1    5    5    0    0 -0.23424435939E+03  0.31244346201E+03  0.16553720874E+02  0.39085209803E+03  0.00000000000E+00 0.  1.
          2    1    6    6  503    0 -0.25857413213E+02  0.86536028238E+02 -0.57017058829E+02  0.10680840322E+03  0.00000000000E+00 0. -1.
         -2    1    6    6    0  503 -0.27346773641E+03  0.76616506453E+03 -0.88778405829E+03  0.12041403752E+04  0.00000000000E+00 0.  1.
<mgrwt>
<rscale>  0 0.38177643E+04</rscale>
<asrwt>0</asrwt>
<pdfrwt beam="1">  1        2 0.45223785E+00 0.38177643E+04</pdfrwt>
<pdfrwt beam="2">  1       -1 0.19070612E+00 0.38177643E+04</pdfrwt>
<totfact> 0.30150227E-01</totfact>
</mgrwt>
</event>
<event>
12    7  0.2492439E-007  0.1781845E+04  0.7818608E-02  0.8716014E-01
          2   -1    0    0  501    0  0.00000000000E+00  0.00000000000E+00  0.94775185938E+03  0.94775185938E+03  0.00000000000E+00 0. -1.
         -1   -1    0    0    0  501 -0.00000000000E+00 -0.00000000000E+00 -0.83750038669E+03  0.83750038669E+03  0.00000000000E+00 0.  1.
         24    2    1    2    0    0  0.56021487877E+03 -0.27859733733E+03 -0.17055700550E+03  0.65322941012E+03  0.78497027757E+02 0.  0.
        254    2    1    2    0    0 -0.56021487877E+03  0.27859733733E+03  0.28080847819E+03  0.11320228360E+04  0.90064705237E+03 0.  0.
         23    2    4    4    0    0  0.28295555869E+02 -0.18629588857E+03 -0.15439919908E+03  0.26022724690E+03  0.91500332084E+02 0.  0.
         23    2    4    4    0    0 -0.58851043464E+03  0.46489322589E+03  0.43520767727E+03  0.87179558906E+03  0.90286120711E+02 0.  0.
          2    1    3    3  502    0  0.34764162987E+02 -0.40994204845E+02 -0.18496024066E+02  0.56843423237E+02  0.00000000000E+00 0. -1.
         -1    1    3    3    0  502  0.52545071578E+03 -0.23760313248E+03 -0.15206098143E+03  0.59638598688E+03  0.00000000000E+00 0.  1.
         13    1    5    5    0    0 -0.32241101140E+02 -0.87400741122E+02 -0.76427635763E+02  0.12049714378E+03  0.00000000000E+00 0. -1.
        -13    1    5    5    0    0  0.60536657009E+02 -0.98895147446E+02 -0.77971563317E+02  0.13973010311E+03  0.00000000000E+00 0.  1.
          2    1    6    6  503    0 -0.77431132628E+02  0.55834947741E+02  0.92350205720E+02  0.13282199436E+03  0.00000000000E+00 0. -1.
         -2    1    6    6    0  503 -0.51107930201E+03  0.40905827815E+03  0.34285747155E+03  0.73897359470E+03  0.00000000000E+00 0.  1.
<mgrwt>
<rscale>  0 0.17818446E+04</rscale>
<asrwt>0</asrwt>
<pdfrwt beam="1">  1        2 0.14580798E+00 0.17818446E+04</pdfrwt>
<pdfrwt beam="2">  1       -1 0.12884621E+00 0.17818446E+04</pdfrwt>
<totfact> 0.15245741E+01</totfact>
</mgrwt>
</event>
<event>
12    7  0.2492439E-007  0.2546546E+04  0.7818608E-02  0.8386588E-01
         -1   -1    0    0    0  501 -0.00000000000E+00  0.00000000000E+00  0.23045756491E+04  0.23045756491E+04  0.00000000000E+00 0.  1.
          2   -1    0    0  501    0  0.00000000000E+00 -0.00000000000E+00 -0.70348062834E+03  0.70348062834E+03  0.00000000000E+00 0. -1.
         24    2    1    2    0    0 -0.53235386627E+03  0.91823617810E+03  0.10913327375E+04  0.15244466465E+04  0.79825536885E+02 0.  0.
        254    2    1    2    0    0  0.53235386627E+03 -0.91823617810E+03  0.50976228325E+03  0.14836096309E+04  0.90259716035E+03 0.  0.
         23    2    4    4    0    0  0.90795997954E+02  0.16975791897E+03  0.11452111472E+03  0.24151039095E+03  0.90280224423E+02 0.  0.
         23    2    4    4    0    0  0.44155786832E+03 -0.10879940971E+04  0.39524116853E+03  0.12420992400E+04  0.88828116742E+02 0.  0.
          4    1    3    3  502    0 -0.89100752605E+02  0.11718669635E+03  0.12286025391E+03  0.19174542474E+03  0.00000000000E+00 0. -1.
         -3    1    3    3    0  502 -0.44325311367E+03  0.80104948175E+03  0.96847248358E+03  0.13327012217E+04  0.00000000000E+00 0.  1.
         13    1    5    5    0    0  0.31724612668E+02  0.90218246254E+01  0.47032036614E+02  0.57444380374E+02  0.00000000000E+00 0.  1.
        -13    1    5    5    0    0  0.59071385285E+02  0.16073609435E+03  0.67489078104E+02  0.18406601058E+03  0.00000000000E+00 0. -1.
          1    1    6    6  503    0  0.15573633965E+03 -0.37907703023E+03  0.93651050067E+02  0.42038520611E+03  0.00000000000E+00 0. -1.
         -1    1    6    6    0  503  0.28582152867E+03 -0.70891706685E+03  0.30159011847E+03  0.82171403388E+03  0.00000000000E+00 0.  1.
<mgrwt>
<rscale>  0 0.25465462E+04</rscale>
<asrwt>0</asrwt>
<pdfrwt beam="1">  1        2 0.10822779E+00 0.25465462E+04</pdfrwt>
<pdfrwt beam="2">  1       -1 0.35455010E+00 0.25465462E+04</pdfrwt>
<totfact> 0.59818896E-01</totfact>
</mgrwt>
</event>
<event>
12    7  0.2492439E-007  0.1306034E+04  0.7818608E-02  0.9024793E-01
          2   -1    0    0  501    0  0.00000000000E+00  0.00000000000E+00  0.14010301769E+04  0.14010301769E+04  0.00000000000E+00 0. -1.
         -1   -1    0    0    0  501 -0.00000000000E+00 -0.00000000000E+00 -0.30436992444E+03  0.30436992444E+03  0.00000000000E+00 0.  1.
         24    2    1    2    0    0  0.18761164300E+03  0.27823180098E+03  0.30849312025E+03  0.46279618179E+03  0.80007730714E+02 0.  0.
        254    2    1    2    0    0 -0.18761164300E+03 -0.27823180098E+03  0.78816713223E+03  0.12426039196E+04  0.90013666124E+03 0.  0.
         23    2    4    4    0    0  0.56054753353E+01 -0.39552248811E+03  0.88972115946E+03  0.97806778049E+03  0.92430415381E+02 0.  0.
         23    2    4    4    0    0 -0.19321711834E+03  0.11729068713E+03 -0.10155402722E+03  0.26453613907E+03  0.92607711995E+02 0.  0.
          2    1    3    3  502    0  0.10866957957E+03  0.13158981573E+03  0.20491175594E+03  0.26667167988E+03  0.00000000000E+00 0. -1.
         -1    1    3    3    0  502  0.78942063434E+02  0.14664198526E+03  0.10358136430E+03  0.19612450191E+03  0.00000000000E+00 0.  1.
         13    1    5    5    0    0 -0.38065520498E+02 -0.11468357222E+03  0.23252939576E+03  0.26205195188E+03  0.00000000000E+00 0.  1.
        -13    1    5    5    0    0  0.43670995834E+02 -0.28083891589E+03  0.65719176369E+03  0.71601582861E+03  0.00000000000E+00 0. -1.
          3    1    6    6  503    0 -0.20008530698E+03  0.10321168854E+03 -0.82285403801E+02  0.23970329660E+03  0.00000000000E+00 0. -1.
         -3    1    6    6    0  503  0.68681886422E+01  0.14078998592E+02 -0.19268623423E+02  0.24832842471E+02  0.00000000000E+00 0.  1.
<mgrwt>
<rscale>  0 0.13060344E+04</rscale>
<asrwt>0</asrwt>
<pdfrwt beam="1">  1        2 0.21554310E+00 0.13060344E+04</pdfrwt>
<pdfrwt beam="2">  1       -1 0.46826143E-01 0.13060344E+04</pdfrwt>
<totfact> 0.73317591E+01</totfact>
</mgrwt>
</event>
<event>
12    7  0.2492439E-007  0.2021618E+04  0.7818608E-02  0.8596580E-01
         -1   -1    0    0    0  501 -0.00000000000E+00  0.00000000000E+00  0.89453448157E+03  0.89453448157E+03  0.00000000000E+00 0.  1.
          2   -1    0    0  501    0  0.00000000000E+00 -0.00000000000E+00 -0.11421969238E+04  0.11421969238E+04  0.00000000000E+00 0. -1.
         24    2    1    2    0    0  0.36368890348E+03 -0.19153762503E+03  0.60101640757E+03  0.73392082392E+03  0.91993332916E+02 0.  0.
        254    2    1    2    0    0 -0.36368890348E+03  0.19153762503E+03 -0.84867884980E+03  0.13028105814E+04  0.89894568284E+03 0.  0.
         23    2    4    4    0    0  0.16250332317E+03  0.29492926995E+03 -0.62142692453E+03  0.71318416727E+03  0.95234602993E+02 0.  0.
         23    2    4    4    0    0 -0.52619222664E+03 -0.10339164491E+03 -0.22725192527E+03  0.58962641417E+03  0.91911800802E+02 0.  0.
          2    1    3    3  502    0  0.25898786392E+03 -0.86893597052E+02  0.39165166984E+03  0.47751046204E+03  0.00000000000E+00 0. -1.
         -1    1    3    3    0  502  0.10470103956E+03 -0.10464402798E+03  0.20936473773E+03  0.25641036188E+03  0.00000000000E+00 0.  1.
         13    1    5    5    0    0  0.16464799501E+03  0.25661077130E+03 -0.49791563973E+03  0.58384761240E+03  0.00000000000E+00 0.  1.
        -13    1    5    5    0    0 -0.21446718438E+01  0.38318498649E+02 -0.12351128479E+03  0.12933655488E+03  0.00000000000E+00 0. -1.
          3    1    6    6  503    0 -0.12313002608E+03 -0.48428403754E+02 -0.22500579230E+02  0.13421098941E+03  0.00000000000E+00 0. -1.
         -3    1    6    6    0  503 -0.40306220056E+03 -0.54963241158E+02 -0.20475134604E+03  0.45541542476E+03  0.00000000000E+00 0.  1.
<mgrwt>
<rscale>  0 0.20216177E+04</rscale>
<asrwt>0</asrwt>
<pdfrwt beam="1">  1        2 0.17572260E+00 0.20216177E+04</pdfrwt>
<pdfrwt beam="2">  1       -1 0.13762069E+00 0.20216177E+04</pdfrwt>
<totfact> 0.95156680E+00</totfact>
</mgrwt>
</event>
<event>
12    7  0.2492439E-007  0.1790634E+04  0.7818608E-02  0.8711296E-01
         -1   -1    0    0    0  501 -0.00000000000E+00  0.00000000000E+00  0.96708179139E+03  0.96708179139E+03  0.00000000000E+00 0.  1.
          2   -1    0    0  501    0  0.00000000000E+00 -0.00000000000E+00 -0.82887766605E+03  0.82887766605E+03  0.00000000000E+00 0. -1.
         24    2    1    2    0    0 -0.70412343937E+02  0.57584149523E+03  0.38200384665E+03  0.69897756135E+03  0.78047207527E+02 0.  0.
        254    2    1    2    0    0  0.70412343937E+02 -0.57584149523E+03 -0.24379972131E+03  0.10969818961E+04  0.89854307099E+03 0.  0.
         23    2    4    4    0    0  0.32749373816E+03 -0.13138381187E+03 -0.41090726303E+03  0.54946896248E+03  0.92506796363E+02 0.  0.
         23    2    4    4    0    0 -0.25708139422E+03 -0.44445768337E+03  0.16710754171E+03  0.54751293361E+03  0.90620121462E+02 0.  0.
          4    1    3    3  502    0 -0.29989686049E+02  0.40365119942E+03  0.22864695452E+03  0.46487966386E+03  0.00000000000E+00 0. -1.
         -3    1    3    3    0  502 -0.40422657888E+02  0.17219029581E+03  0.15335689213E+03  0.23409789748E+03  0.00000000000E+00 0.  1.
         13    1    5    5    0    0  0.15900264363E+03 -0.72158241232E+02 -0.27195540813E+03  0.32318477141E+03  0.00000000000E+00 0. -1.
        -13    1    5    5    0    0  0.16849109453E+03 -0.59225570634E+02 -0.13895185489E+03  0.22628419107E+03  0.00000000000E+00 0.  1.
          3    1    6    6  503    0 -0.21117425972E+03 -0.35486328000E+03  0.17056463241E+03  0.44678273164E+03  0.00000000000E+00 0. -1.
         -3    1    6    6    0  503 -0.45907134498E+02 -0.89594403370E+02 -0.34570907008E+01  0.10073020197E+03  0.00000000000E+00 0.  1.
<mgrwt>
<rscale>  0 0.17906340E+04</rscale>
<asrwt>0</asrwt>
<pdfrwt beam="1">  1        2 0.12751964E+00 0.17906340E+04</pdfrwt>
<pdfrwt beam="2">  1       -1 0.14878181E+00 0.17906340E+04</pdfrwt>
<totfact> 0.12632863E+01</totfact>
</mgrwt>
</event>
<event>
12    7  0.2492439E-007  0.3510727E+04  0.7818608E-02  0.8111252E-01
          2   -1    0    0  501    0  0.00000000000E+00  0.00000000000E+00  0.23194601789E+04  0.23194601789E+04  0.00000000000E+00 0. -1.
         -1   -1    0    0    0  501 -0.00000000000E+00 -0.00000000000E+00 -0.13284564741E+04  0.13284564741E+04  0.00000000000E+00 0.  1.
         24    2    1    2    0    0 -0.72465388799E+03 -0.90660261149E+03  0.16658884955E+04  0.20320663902E+04  0.84010607993E+02 0.  0.
        254    2    1    2    0    0  0.72465388799E+03  0.90660261149E+03 -0.67488479075E+03  0.16158502628E+04  0.89913905402E+03 0.  0.
         23    2    4    4    0    0  0.34369248042E+03 -0.11501790672E+03 -0.18020925238E+03  0.41495547291E+03  0.91427730427E+02 0.  0.
         23    2    4    4    0    0  0.38096140757E+03  0.10216205182E+04 -0.49467553838E+03  0.12008947899E+04  0.92759532332E+02 0.  0.
          2    1    3    3  502    0 -0.36766542681E+03 -0.39726434327E+03  0.74914867964E+03  0.92424053617E+03  0.00000000000E+00 0. -1.
         -1    1    3    3    0  502 -0.35698846118E+03 -0.50933826822E+03  0.91673981588E+03  0.11078258541E+04  0.00000000000E+00 0.  1.
         13    1    5    5    0    0  0.21884419555E+03 -0.26521635920E+02 -0.98106231988E+02  0.24129030617E+03  0.00000000000E+00 0.  1.
        -13    1    5    5    0    0  0.12484828487E+03 -0.88496270802E+02 -0.82103020387E+02  0.17366516674E+03  0.00000000000E+00 0. -1.
          2    1    6    6  503    0  0.14665896545E+03  0.45036710912E+03 -0.26039550296E+03  0.54050458193E+03  0.00000000000E+00 0.  1.
         -2    1    6    6    0  503  0.23430244212E+03  0.57125340909E+03 -0.23428003542E+03  0.66039020796E+03  0.00000000000E+00 0. -1.
<mgrwt>
<rscale>  0 0.35107275E+04</rscale>
<asrwt>0</asrwt>
<pdfrwt beam="1">  1        2 0.35684003E+00 0.35107275E+04</pdfrwt>
<pdfrwt beam="2">  1       -1 0.20437792E+00 0.35107275E+04</pdfrwt>
<totfact> 0.57919711E-01</totfact>
</mgrwt>
</event>
<event>
12    7  0.2492439E-007  0.1284854E+04  0.7818608E-02  0.9041663E-01
         -1   -1    0    0    0  501 -0.00000000000E+00  0.00000000000E+00  0.48502893381E+03  0.48502893381E+03  0.00000000000E+00 0.  1.
          2   -1    0    0  501    0  0.00000000000E+00 -0.00000000000E+00 -0.85090301388E+03  0.85090301388E+03  0.00000000000E+00 0. -1.
         24    2    1    2    0    0  0.21757879681E+03 -0.39554721321E+02 -0.33717094412E+03  0.41098950711E+03  0.79517423216E+02 0.  0.
        254    2    1    2    0    0 -0.21757879681E+03  0.39554721321E+02 -0.28703135947E+02  0.92494244058E+03  0.89765780761E+03 0.  0.
         23    2    4    4    0    0 -0.11653643490E+03 -0.25824616774E+03  0.32667907189E+03  0.44202638608E+03  0.91631251017E+02 0.  0.
         23    2    4    4    0    0 -0.10104236192E+03  0.29780088906E+03 -0.35538220784E+03  0.48291605450E+03  0.89534762076E+02 0.  0.
          4    1    3    3  502    0  0.16139501533E+03 -0.31769323972E+02 -0.30300176202E+03  0.34477196624E+03  0.00000000000E+00 0. -1.
         -3    1    3    3    0  502  0.56183781484E+02 -0.77853973493E+01 -0.34169182108E+02  0.66217540876E+02  0.00000000000E+00 0.  1.
         13    1    5    5    0    0 -0.35775810199E+02 -0.13601354461E+03  0.10172632433E+03  0.17357372489E+03  0.00000000000E+00 0. -1.
        -13    1    5    5    0    0 -0.80760624696E+02 -0.12223262313E+03  0.22495274756E+03  0.26845266118E+03  0.00000000000E+00 0.  1.
          3    1    6    6  503    0 -0.11244698471E+03  0.23271675661E+03 -0.25766562281E+03  0.36495614306E+03  0.00000000000E+00 0. -1.
         -3    1    6    6    0  503  0.11404622796E+02  0.65084132451E+02 -0.97716585030E+02  0.11795991144E+03  0.00000000000E+00 0.  1.
<mgrwt>
<rscale>  0 0.12848542E+04</rscale>
<asrwt>0</asrwt>
<pdfrwt beam="1">  1        2 0.13090816E+00 0.12848542E+04</pdfrwt>
<pdfrwt beam="2">  1       -1 0.74619836E-01 0.12848542E+04</pdfrwt>
<totfact> 0.64161370E+01</totfact>
</mgrwt>
</event>
<event>
12    7  0.2492439E-007  0.1264919E+04  0.7818608E-02  0.9057857E-01
         -1   -1    0    0    0  501 -0.00000000000E+00  0.00000000000E+00  0.30075166112E+03  0.30075166112E+03  0.00000000000E+00 0.  1.
          2   -1    0    0  501    0  0.00000000000E+00 -0.00000000000E+00 -0.13300171121E+04  0.13300171121E+04  0.00000000000E+00 0. -1.
         24    2    1    2    0    0  0.57064772383E+01  0.27404741870E+02  0.13458925611E+03  0.15883497746E+03  0.79565686358E+02 0.  0.
        254    2    1    2    0    0 -0.57064772383E+01 -0.27404741870E+02 -0.11638547071E+04  0.14719337957E+04  0.90069291998E+03 0.  0.
         23    2    4    4    0    0 -0.19977313600E+03 -0.37528164263E+03 -0.85724141110E+03  0.96123190049E+03  0.91423806750E+02 0.  0.
         23    2    4    4    0    0  0.19406665876E+03  0.34787690076E+03 -0.30661329598E+03  0.51070189526E+03  0.90136044006E+02 0.  0.
          4    1    3    3  502    0  0.11571836814E+02 -0.78488581823E+01 -0.49184703443E+01  0.14822392942E+02  0.00000000000E+00 0. -1.
         -3    1    3    3    0  502 -0.58653595753E+01  0.35253600053E+02  0.13950772645E+03  0.14401258452E+03  0.00000000000E+00 0.  1.
         13    1    5    5    0    0 -0.16068722540E+03 -0.21060471420E+03 -0.54941234550E+03  0.60994151805E+03  0.00000000000E+00 0. -1.
        -13    1    5    5    0    0 -0.39085910597E+02 -0.16467692842E+03 -0.30782906560E+03  0.35129038244E+03  0.00000000000E+00 0.  1.
          3    1    6    6  503    0  0.12998891947E+03  0.20838310815E+03 -0.13428091618E+03  0.27991427866E+03  0.00000000000E+00 0. -1.
         -3    1    6    6    0  503  0.64077739287E+02  0.13949379260E+03 -0.17233237980E+03  0.23078761660E+03  0.00000000000E+00 0.  1.
<mgrwt>
<rscale>  0 0.12649187E+04</rscale>
<asrwt>0</asrwt>
<pdfrwt beam="1">  1        2 0.20461801E+00 0.12649187E+04</pdfrwt>
<pdfrwt beam="2">  1       -1 0.46269488E-01 0.12649187E+04</pdfrwt>
<totfact> 0.82632066E+01</totfact>
</mgrwt>
</event>
<event>
12    7  0.2492439E-007  0.2075423E+04  0.7818608E-02  0.8572147E-01
          2   -1    0    0  501    0  0.00000000000E+00  0.00000000000E+00  0.57475359807E+03  0.57475359807E+03  0.00000000000E+00 0. -1.
         -1   -1    0    0    0  501 -0.00000000000E+00 -0.00000000000E+00 -0.18735778936E+04  0.18735778936E+04  0.00000000000E+00 0.  1.
         24    2    1    2    0    0 -0.54709971938E+03 -0.81059608660E+02 -0.12749080452E+04  0.13921577551E+04  0.82607071509E+02 0.  0.
        254    2    1    2    0    0  0.54709971938E+03  0.81059608660E+02 -0.23916250355E+02  0.10561737366E+04  0.89946773803E+03 0.  0.
         23    2    4    4    0    0  0.77343817890E+03  0.15954268085E+03  0.24259044696E+02  0.79492297150E+03  0.87484545937E+02 0.  0.
         23    2    4    4    0    0 -0.22633845952E+03 -0.78483072194E+02 -0.48175295051E+02  0.26125076510E+03  0.92425171541E+02 0.  0.
          4    1    3    3  502    0 -0.12545603179E+03 -0.53387322193E+02 -0.33139942563E+03  0.35835038913E+03  0.00000000000E+00 0. -1.
         -3    1    3    3    0  502 -0.42164368759E+03 -0.27672286467E+02 -0.94350861958E+03  0.10338073660E+04  0.00000000000E+00 0.  1.
         13    1    5    5    0    0  0.50230496412E+03  0.87688434342E+02 -0.23267815979E+02  0.51043210103E+03  0.00000000000E+00 0.  1.
        -13    1    5    5    0    0  0.27113321478E+03  0.71854246512E+02  0.47526860675E+02  0.28449087047E+03  0.00000000000E+00 0. -1.
          2    1    6    6  503    0 -0.12357173030E+02 -0.83617144921E+01  0.20933559723E+02  0.25706651226E+02  0.00000000000E+00 0. -1.
         -2    1    6    6    0  503 -0.21398128649E+03 -0.70121357702E+02 -0.69108854775E+02  0.23554411388E+03  0.00000000000E+00 0.  1.
<mgrwt>
<rscale>  0 0.20754235E+04</rscale>
<asrwt>0</asrwt>
<pdfrwt beam="1">  1        2 0.88423630E-01 0.20754235E+04</pdfrwt>
<pdfrwt beam="2">  1       -1 0.28824276E+00 0.20754235E+04</pdfrwt>
<totfact> 0.21686382E+00</totfact>
</mgrwt>
</event>
<event>
12    7  0.2492439E-007  0.1797763E+04  0.7818608E-02  0.8707490E-01
         -1   -1    0    0    0  501 -0.00000000000E+00  0.00000000000E+00  0.20076804257E+04  0.20076804257E+04  0.00000000000E+00 0.  1.
          2   -1    0    0  501    0  0.00000000000E+00 -0.00000000000E+00 -0.40244855784E+03  0.40244855784E+03  0.00000000000E+00 0. -1.
         24    2    1    2    0    0  0.61874340881E+03  0.39865449585E+02  0.26558011266E+03  0.67930437842E+03  0.80554219448E+02 0.  0.
        254    2    1    2    0    0 -0.61874340881E+03 -0.39865449585E+02  0.13396517552E+04  0.17308246051E+04  0.90368928756E+03 0.  0.
         23    2    4    4    0    0 -0.81406962531E+03 -0.12234664301E+03  0.12109438799E+04  0.14666968388E+04  0.84477694200E+02 0.  0.
         23    2    4    4    0    0  0.19532621649E+03  0.82481193429E+02  0.12870787524E+03  0.26412776625E+03  0.90787012492E+02 0.  0.
          4    1    3    3  502    0  0.23352995593E+03  0.48549918246E+02  0.79581489998E+02  0.25144889824E+03  0.00000000000E+00 0. -1.
         -3    1    3    3    0  502  0.38521345289E+03 -0.86844686609E+01  0.18599862266E+03  0.42785548017E+03  0.00000000000E+00 0.  1.
         13    1    5    5    0    0 -0.99598164723E+02 -0.43142433581E+02  0.16833003184E+03  0.20028994885E+03  0.00000000000E+00 0. -1.
        -13    1    5    5    0    0 -0.71447146059E+03 -0.79204209433E+02  0.10426138481E+04  0.12664068900E+04  0.00000000000E+00 0.  1.
          2    1    6    6  503    0  0.16061938487E+03  0.37839480736E+02  0.12581360564E+03  0.20750777446E+03  0.00000000000E+00 0.  1.
         -2    1    6    6    0  503  0.34706831628E+02  0.44641712693E+02  0.28942695959E+01  0.56619991790E+02  0.00000000000E+00 0. -1.
<mgrwt>
<rscale>  0 0.17977632E+04</rscale>
<asrwt>0</asrwt>
<pdfrwt beam="1">  1        2 0.61915163E-01 0.17977632E+04</pdfrwt>
<pdfrwt beam="2">  1       -1 0.30887391E+00 0.17977632E+04</pdfrwt>
<totfact> 0.24692033E+00</totfact>
</mgrwt>
</event>
<event>
12    7  0.2492439E-007  0.1750409E+04  0.7818608E-02  0.8733125E-01
         -1   -1    0    0    0  501 -0.00000000000E+00  0.00000000000E+00  0.12395900990E+04  0.12395900990E+04  0.00000000000E+00 0.  1.
          2   -1    0    0  501    0  0.00000000000E+00 -0.00000000000E+00 -0.61793216396E+03  0.61793216396E+03  0.00000000000E+00 0. -1.
         24    2    1    2    0    0  0.19450416695E+03 -0.39026341840E+03  0.72756897944E+03  0.85202689774E+03  0.80348042489E+02 0.  0.
        254    2    1    2    0    0 -0.19450416695E+03  0.39026341840E+03 -0.10591104443E+03  0.10054953652E+04  0.89981463278E+03 0.  0.
         23    2    4    4    0    0  0.22996999828E+03 -0.44367656532E+02 -0.27051700188E+03  0.36953618875E+03  0.92319323214E+02 0.  0.
         23    2    4    4    0    0 -0.42447416523E+03  0.43463107493E+03  0.16460595744E+03  0.63595917643E+03  0.90920100199E+02 0.  0.
          4    1    3    3  502    0  0.32397234832E+02 -0.80797804137E+02  0.91241599104E+02  0.12610668256E+03  0.00000000000E+00 0. -1.
         -3    1    3    3    0  502  0.16210693212E+03 -0.30946561426E+03  0.63632738034E+03  0.72592021519E+03  0.00000000000E+00 0.  1.
         13    1    5    5    0    0  0.10821579703E+03 -0.67811367927E+02 -0.14098867680E+03  0.19022840832E+03  0.00000000000E+00 0.  1.
        -13    1    5    5    0    0  0.12175420125E+03  0.23443711394E+02 -0.12952832508E+03  0.17930778043E+03  0.00000000000E+00 0. -1.
          2    1    6    6  503    0 -0.54447814325E+02  0.22610419094E+02  0.29522242838E+02  0.65934500518E+02  0.00000000000E+00 0. -1.
         -2    1    6    6    0  503 -0.37002635090E+03  0.41202065584E+03  0.13508371460E+03  0.57002467591E+03  0.00000000000E+00 0.  1.
<mgrwt>
<rscale>  0 0.17504086E+04</rscale>
<asrwt>0</asrwt>
<pdfrwt beam="1">  1        2 0.95066487E-01 0.17504086E+04</pdfrwt>
<pdfrwt beam="2">  1       -1 0.19070617E+00 0.17504086E+04</pdfrwt>
<totfact> 0.90483710E+00</totfact>
</mgrwt>
</event>
<event>
12    7  0.2492439E-007  0.2734752E+04  0.7818608E-02  0.8323816E-01
          2   -1    0    0  501    0  0.00000000000E+00  0.00000000000E+00  0.22688569248E+04  0.22688569248E+04  0.00000000000E+00 0. -1.
         -1   -1    0    0    0  501 -0.00000000000E+00 -0.00000000000E+00 -0.82407890810E+03  0.82407890810E+03  0.00000000000E+00 0.  1.
         24    2    1    2    0    0 -0.23483591465E+03  0.87153909208E+03  0.15698286437E+04  0.18125726205E+04  0.79556508765E+02 0.  0.
        254    2    1    2    0    0  0.23483591465E+03 -0.87153909208E+03 -0.12505062702E+03  0.12803632124E+04  0.89942426058E+03 0.  0.
         23    2    4    4    0    0  0.16792800677E+03  0.42492767633E+02 -0.28495137858E+03  0.34601896444E+03  0.92338425592E+02 0.  0.
         23    2    4    4    0    0  0.66907907886E+02 -0.91403185971E+03  0.15990075156E+03  0.93434424796E+03  0.86602624870E+02 0.  0.
          4    1    3    3  502    0 -0.15463682642E+03  0.69137877675E+03  0.12038087080E+04  0.13968079920E+04  0.00000000000E+00 0. -1.
         -3    1    3    3    0  502 -0.80199088227E+02  0.18016031533E+03  0.36601993569E+03  0.41576462848E+03  0.00000000000E+00 0.  1.
         13    1    5    5    0    0  0.17832345033E+02  0.19620282112E+02 -0.11547543819E+03  0.11848006088E+03  0.00000000000E+00 0.  1.
        -13    1    5    5    0    0  0.15009566173E+03  0.22872485521E+02 -0.16947594039E+03  0.22753890356E+03  0.00000000000E+00 0. -1.
          1    1    6    6  503    0  0.30331019146E+02 -0.57230612548E+03  0.14071576008E+03  0.59013150833E+03  0.00000000000E+00 0. -1.
         -1    1    6    6    0  503  0.36576888740E+02 -0.34172573423E+03  0.19184991481E+02  0.34421273963E+03  0.00000000000E+00 0.  1.
<mgrwt>
<rscale>  0 0.27347520E+04</rscale>
<asrwt>0</asrwt>
<pdfrwt beam="1">  1        2 0.34905491E+00 0.27347520E+04</pdfrwt>
<pdfrwt beam="2">  1       -1 0.12678137E+00 0.27347520E+04</pdfrwt>
<totfact> 0.25370837E+00</totfact>
</mgrwt>
</event>
<event>
12    7  0.2492439E-007  0.2783593E+04  0.7818608E-02  0.8308380E-01
         -1   -1    0    0    0  501 -0.00000000000E+00  0.00000000000E+00  0.81228748342E+03  0.81228748342E+03  0.00000000000E+00 0.  1.
          2   -1    0    0  501    0  0.00000000000E+00 -0.00000000000E+00 -0.23847442771E+04  0.23847442771E+04  0.00000000000E+00 0. -1.
         24    2    1    2    0    0 -0.64990267262E+03  0.10298374412E+04 -0.41074834870E+03  0.12877884715E+04  0.82135877582E+02 0.  0.
        254    2    1    2    0    0  0.64990267262E+03 -0.10298374412E+04 -0.11617084449E+04  0.19092432889E+04  0.90150140669E+03 0.  0.
         23    2    4    4    0    0  0.51750739497E+03 -0.73319157124E+02 -0.28731353383E+03  0.60339091149E+03  0.91334126709E+02 0.  0.
         23    2    4    4    0    0  0.13239527765E+03 -0.95651828403E+03 -0.87439491112E+03  0.13058523775E+04  0.90709613023E+02 0.  0.
          4    1    3    3  502    0 -0.33617858377E+03  0.60889629322E+03 -0.23352869268E+03  0.73369365977E+03  0.00000000000E+00 0. -1.
         -3    1    3    3    0  502 -0.31372408885E+03  0.42094114794E+03 -0.17721965601E+03  0.55409481177E+03  0.00000000000E+00 0.  1.
         13    1    5    5    0    0  0.11969700076E+03  0.29189095583E+01 -0.10480352839E+03  0.15912156229E+03  0.00000000000E+00 0. -1.
        -13    1    5    5    0    0  0.39781039421E+03 -0.76238066683E+02 -0.18251000544E+03  0.44426934920E+03  0.00000000000E+00 0.  1.
          3    1    6    6  503    0  0.14033590275E+02 -0.32411304397E+03 -0.25330873591E+03  0.41159631026E+03  0.00000000000E+00 0. -1.
         -3    1    6    6    0  503  0.11836168738E+03 -0.63240524006E+03 -0.62108617520E+03  0.89425606720E+03  0.00000000000E+00 0.  1.
<mgrwt>
<rscale>  0 0.27835933E+04</rscale>
<asrwt>0</asrwt>
<pdfrwt beam="1">  1        2 0.36688373E+00 0.27835933E+04</pdfrwt>
<pdfrwt beam="2">  1       -1 0.12496731E+00 0.27835933E+04</pdfrwt>
<totfact> 0.22499658E+00</totfact>
</mgrwt>
</event>
<event>
12    7  0.2492439E-007  0.2739830E+04  0.7818608E-02  0.8322196E-01
          2   -1    0    0  501    0  0.00000000000E+00  0.00000000000E+00  0.27261891027E+04  0.27261891027E+04  0.00000000000E+00 0. -1.
         -1   -1    0    0    0  501 -0.00000000000E+00 -0.00000000000E+00 -0.68838460321E+03  0.68838460321E+03  0.00000000000E+00 0.  1.
         24    2    1    2    0    0 -0.11487786589E+04  0.39976122825E+03  0.79704507640E+03  0.14563815659E+04  0.79151531832E+02 0.  0.
        254    2    1    2    0    0  0.11487786589E+04 -0.39976122825E+03  0.12407594231E+04  0.19581921400E+04  0.90306758572E+03 0.  0.
         23    2    4    4    0    0  0.38184961551E+03 -0.59830791144E+03  0.64114556430E+03  0.96078276293E+03  0.90853713066E+02 0.  0.
         23    2    4    4    0    0  0.76692904339E+03  0.19854668318E+03  0.59961385878E+03  0.99740937705E+03  0.87679774104E+02 0.  0.
          2    1    3    3  502    0 -0.18557486690E+03  0.82344182727E+02  0.10467701816E+03  0.22842038829E+03  0.00000000000E+00 0. -1.
         -1    1    3    3    0  502 -0.96320379200E+03  0.31741704552E+03  0.69236805824E+03  0.12279611776E+04  0.00000000000E+00 0.  1.
         13    1    5    5    0    0  0.17652031637E+02 -0.33280517470E+01  0.16779144238E+02  0.24580680029E+02  0.00000000000E+00 0. -1.
        -13    1    5    5    0    0  0.36419758387E+03 -0.59497985969E+03  0.62436642006E+03  0.93620208290E+03  0.00000000000E+00 0.  1.
          2    1    6    6  503    0  0.40627629835E+03  0.60336714728E+02  0.31648646921E+03  0.51852158580E+03  0.00000000000E+00 0. -1.
         -2    1    6    6    0  503  0.36065274504E+03  0.13820996846E+03  0.28312738957E+03  0.47888779125E+03  0.00000000000E+00 0.  1.
<mgrwt>
<rscale>  0 0.27398296E+04</rscale>
<asrwt>0</asrwt>
<pdfrwt beam="1">  1        2 0.41941370E+00 0.27398296E+04</pdfrwt>
<pdfrwt beam="2">  1       -1 0.10590533E+00 0.27398296E+04</pdfrwt>
<totfact> 0.21240963E+00</totfact>
</mgrwt>
</event>
<event>
12    7  0.2492439E-007  0.2330491E+04  0.7818608E-02  0.8465995E-01
         -1   -1    0    0    0  501 -0.00000000000E+00  0.00000000000E+00  0.40428452304E+03  0.40428452304E+03  0.00000000000E+00 0.  1.
          2   -1    0    0  501    0  0.00000000000E+00 -0.00000000000E+00 -0.33585180391E+04  0.33585180391E+04  0.00000000000E+00 0. -1.
         24    2    1    2    0    0 -0.63476563101E+03 -0.43731256607E+03 -0.22608973422E+04  0.23898136373E+04  0.73367174710E+02 0.  0.
        254    2    1    2    0    0  0.63476563101E+03  0.43731256607E+03 -0.69333617382E+03  0.13729889248E+04  0.90011879824E+03 0.  0.
         23    2    4    4    0    0  0.69764760042E+03  0.30455729237E+03 -0.12154562952E+03  0.77608238344E+03  0.89795362493E+02 0.  0.
         23    2    4    4    0    0 -0.62881969405E+02  0.13275527370E+03 -0.57179054430E+03  0.59690654136E+03  0.88175324189E+02 0.  0.
          4    1    3    3  502    0 -0.90472958987E+02 -0.45724688094E+02 -0.23814392392E+03  0.25882162179E+03  0.00000000000E+00 0. -1.
         -3    1    3    3    0  502 -0.54429267202E+03 -0.39158787798E+03 -0.20227534183E+04  0.21309920155E+04  0.00000000000E+00 0.  1.
         13    1    5    5    0    0  0.13778377275E+03  0.87404431154E+02 -0.53609829632E+02  0.17174957483E+03  0.00000000000E+00 0. -1.
        -13    1    5    5    0    0  0.55986382766E+03  0.21715286122E+03 -0.67935799887E+02  0.60433280861E+03  0.00000000000E+00 0.  1.
          3    1    6    6  503    0  0.18852601793E+02  0.82805762223E+01 -0.45259129524E+02  0.49723006166E+02  0.00000000000E+00 0. -1.
         -3    1    6    6    0  503 -0.81734571198E+02  0.12447469748E+03 -0.52653141478E+03  0.54718353520E+03  0.00000000000E+00 0.  1.
<mgrwt>
<rscale>  0 0.23304908E+04</rscale>
<asrwt>0</asrwt>
<pdfrwt beam="1">  1        2 0.51669508E+00 0.23304908E+04</pdfrwt>
<pdfrwt beam="2">  1       -1 0.62197619E-01 0.23304908E+04</pdfrwt>
<totfact> 0.27493846E+00</totfact>
</mgrwt>
</event>
<event>
12    7  0.2492439E-007  0.2246986E+04  0.7818608E-02  0.8499122E-01
          2   -1    0    0  501    0  0.00000000000E+00  0.00000000000E+00  0.11730232190E+04  0.11730232190E+04  0.00000000000E+00 0. -1.
         -1   -1    0    0    0  501 -0.00000000000E+00 -0.00000000000E+00 -0.10760543324E+04  0.10760543324E+04  0.00000000000E+00 0.  1.
         24    2    1    2    0    0 -0.58749482361E+03  0.57049895508E+03  0.50450453603E+03  0.96514747546E+03  0.79784691487E+02 0.  0.
        254    2    1    2    0    0  0.58749482361E+03 -0.57049895508E+03 -0.40753564938E+03  0.12839300759E+04  0.90098385607E+03 0.  0.
         23    2    4    4    0    0  0.65122760154E+03 -0.50345357003E+03  0.28820069134E+02  0.82855712736E+03  0.90074584302E+02 0.  0.
         23    2    4    4    0    0 -0.63732777924E+02 -0.67045385048E+02 -0.43635571851E+03  0.45537294859E+03  0.91658379801E+02 0.  0.
          2    1    3    3  502    0 -0.38015044058E+03  0.38870696793E+03  0.37513155182E+03  0.66055366592E+03  0.00000000000E+00 0. -1.
         -1    1    3    3    0  502 -0.20734438303E+03  0.18179198715E+03  0.12937298421E+03  0.30459380954E+03  0.00000000000E+00 0.  1.
         13    1    5    5    0    0  0.39385472698E+03 -0.24875757475E+03  0.89653201665E+01  0.46592086659E+03  0.00000000000E+00 0. -1.
        -13    1    5    5    0    0  0.25737287456E+03 -0.25469599527E+03  0.19854748967E+02  0.36263626077E+03  0.00000000000E+00 0.  1.
          1    1    6    6  503    0 -0.70026825054E+02 -0.85481669240E+02 -0.36051810752E+03  0.37707317307E+03  0.00000000000E+00 0. -1.
         -1    1    6    6    0  503  0.62940471302E+01  0.18436284192E+02 -0.75837611000E+02  0.78299775518E+02  0.00000000000E+00 0.  1.
<mgrwt>
<rscale>  0 0.22469862E+04</rscale>
<asrwt>0</asrwt>
<pdfrwt beam="1">  1        2 0.18046511E+00 0.22469862E+04</pdfrwt>
<pdfrwt beam="2">  1       -1 0.16554682E+00 0.22469862E+04</pdfrwt>
<totfact> 0.54183165E+00</totfact>
</mgrwt>
</event>
<event>
12    7  0.2492439E-007  0.2635213E+04  0.7818608E-02  0.8356337E-01
          2   -1    0    0  501    0  0.00000000000E+00  0.00000000000E+00  0.98112662110E+03  0.98112662110E+03  0.00000000000E+00 0. -1.
         -1   -1    0    0    0  501 -0.00000000000E+00 -0.00000000000E+00 -0.17694836187E+04  0.17694836187E+04  0.00000000000E+00 0.  1.
         24    2    1    2    0    0  0.79398443731E+03  0.59114023192E+03 -0.98511861461E+03  0.13988163093E+04  0.79814296147E+02 0.  0.
        254    2    1    2    0    0 -0.79398443731E+03 -0.59114023192E+03  0.19676161699E+03  0.13517939305E+04  0.89931842866E+03 0.  0.
         23    2    4    4    0    0  0.19000012259E+03 -0.80411980577E+02  0.51679719261E+02  0.22998041365E+03  0.87487508103E+02 0.  0.
         23    2    4    4    0    0 -0.98398455990E+03 -0.51072825135E+03  0.14508189773E+03  0.11218135169E+04  0.91366562265E+02 0.  0.
          2    1    3    3  502    0  0.73235824649E+02  0.84616285617E+02 -0.12111952713E+03  0.16490403771E+03  0.00000000000E+00 0. -1.
         -1    1    3    3    0  502  0.72074861266E+03  0.50652394631E+03 -0.86399908748E+03  0.12339122716E+04  0.00000000000E+00 0.  1.
         13    1    5    5    0    0  0.24240619407E+02 -0.29200086894E+02 -0.19246424612E+02  0.42552057109E+02  0.00000000000E+00 0. -1.
        -13    1    5    5    0    0  0.16575950318E+03 -0.51211893682E+02  0.70926143873E+02  0.18742835654E+03  0.00000000000E+00 0.  1.
          2    1    6    6  503    0 -0.23187668903E+03 -0.11187167573E+03  0.72145953571E+02  0.26737073393E+03  0.00000000000E+00 0. -1.
         -2    1    6    6    0  503 -0.75210787086E+03 -0.39885657561E+03  0.72935944157E+02  0.85444278292E+03  0.00000000000E+00 0.  1.
<mgrwt>
<rscale>  0 0.26352135E+04</rscale>
<asrwt>0</asrwt>
<pdfrwt beam="1">  1        2 0.15094256E+00 0.26352135E+04</pdfrwt>
<pdfrwt beam="2">  1       -1 0.27222825E+00 0.26352135E+04</pdfrwt>
<totfact> 0.13017618E+00</totfact>
</mgrwt>
</event>
<event>
12    7  0.2492439E-007  0.2062248E+04  0.7818608E-02  0.8578058E-01
         -1   -1    0    0    0  501 -0.00000000000E+00  0.00000000000E+00  0.36776835064E+03  0.36776835064E+03  0.00000000000E+00 0.  1.
          2   -1    0    0  501    0  0.00000000000E+00 -0.00000000000E+00 -0.28909952267E+04  0.28909952267E+04  0.00000000000E+00 0. -1.
         24    2    1    2    0    0  0.39298451173E+03 -0.71591439893E+03 -0.12638439433E+04  0.15080144305E+04  0.99175381958E+02 0.  0.
        254    2    1    2    0    0 -0.39298451173E+03  0.71591439893E+03 -0.12593829327E+04  0.17507491469E+04  0.90116976811E+03 0.  0.
         23    2    4    4    0    0 -0.62886822949E+03  0.33138477845E+03 -0.54298527628E+03  0.89933643758E+03  0.93176693629E+02 0.  0.
         23    2    4    4    0    0  0.23588371776E+03  0.38452962049E+03 -0.71639765646E+03  0.85141270930E+03  0.90409302878E+02 0.  0.
          4    1    3    3  502    0  0.21862123349E+03 -0.33049710242E+03 -0.67985932887E+03  0.78691313720E+03  0.00000000000E+00 0. -1.
         -3    1    3    3    0  502  0.17436327824E+03 -0.38541729651E+03 -0.58398461445E+03  0.72110129328E+03  0.00000000000E+00 0.  1.
         13    1    5    5    0    0 -0.29225840674E+03  0.11387020565E+03 -0.27577241466E+03  0.41765036183E+03  0.00000000000E+00 0. -1.
        -13    1    5    5    0    0 -0.33660982275E+03  0.21751457280E+03 -0.26721286162E+03  0.48168607575E+03  0.00000000000E+00 0.  1.
          3    1    6    6  503    0  0.12686102188E+03  0.26231741957E+03 -0.39678205567E+03  0.49228055739E+03  0.00000000000E+00 0. -1.
         -3    1    6    6    0  503  0.10902269588E+03  0.12221220091E+03 -0.31961560079E+03  0.35913215191E+03  0.00000000000E+00 0.  1.
<mgrwt>
<rscale>  0 0.20622478E+04</rscale>
<asrwt>0</asrwt>
<pdfrwt beam="1">  1        2 0.44476851E+00 0.20622478E+04</pdfrwt>
<pdfrwt beam="2">  1       -1 0.56579745E-01 0.20622478E+04</pdfrwt>
<totfact> 0.67790668E+00</totfact>
</mgrwt>
</event>
<event>
12    7  0.2492439E-007  0.2813975E+04  0.7818608E-02  0.8298943E-01
         -3   -1    0    0    0  501 -0.00000000000E+00  0.00000000000E+00  0.93044851038E+03  0.93044851038E+03  0.00000000000E+00 0.  1.
          2   -1    0    0  501    0  0.00000000000E+00 -0.00000000000E+00 -0.21275913709E+04  0.21275913709E+04  0.00000000000E+00 0. -1.
         24    2    1    2    0    0  0.94160085896E+03 -0.66819438138E+03 -0.10902790139E+04  0.15900650280E+04  0.80638430178E+02 0.  0.
        254    2    1    2    0    0 -0.94160085896E+03  0.66819438138E+03 -0.10686384668E+03  0.14679748533E+04  0.90024128944E+03 0.  0.
         23    2    4    4    0    0  0.80778399034E+02  0.35367516578E+03  0.68314814298E+02  0.38034664603E+03  0.91571745931E+02 0.  0.
         23    2    4    4    0    0 -0.10223792580E+04  0.31451921560E+03 -0.17517866097E+03  0.10876282072E+04  0.89810187471E+02 0.  0.
          4    1    3    3  502    0  0.47962081658E+03 -0.33995421342E+03 -0.49970433849E+03  0.77156297269E+03  0.00000000000E+00 0. -1.
         -3    1    3    3    0  502  0.46198004238E+03 -0.32824016796E+03 -0.59057467539E+03  0.81850205536E+03  0.00000000000E+00 0.  1.
         13    1    5    5    0    0  0.17499577491E+02  0.25513148524E+03  0.31948592406E+02  0.25771888276E+03  0.00000000000E+00 0.  1.
        -13    1    5    5    0    0  0.63278821543E+02  0.98543680540E+02  0.36366221892E+02  0.12262776327E+03  0.00000000000E+00 0. -1.
          3    1    6    6  503    0 -0.41489555259E+02  0.28372194945E+02  0.33461773697E+01  0.50374215076E+02  0.00000000000E+00 0. -1.
         -3    1    6    6    0  503 -0.98088970273E+03  0.28614702066E+03 -0.17852483834E+03  0.10372539922E+04  0.00000000000E+00 0.  1.
<mgrwt>
<rscale>  0 0.28139753E+04</rscale>
<asrwt>0</asrwt>
<pdfrwt beam="1">  1        2 0.32732175E+00 0.28139753E+04</pdfrwt>
<pdfrwt beam="2">  1       -3 0.14314592E+00 0.28139753E+04</pdfrwt>
<totfact> 0.11398951E+00</totfact>
</mgrwt>
</event>
<event>
12    7  0.2492439E-007  0.1278167E+04  0.7818608E-02  0.9047060E-01
         -1   -1    0    0    0  501 -0.00000000000E+00  0.00000000000E+00  0.19534616466E+03  0.19534616466E+03  0.00000000000E+00 0.  1.
          2   -1    0    0  501    0  0.00000000000E+00 -0.00000000000E+00 -0.20907893826E+04  0.20907893826E+04  0.00000000000E+00 0. -1.
         24    2    1    2    0    0 -0.28095025737E+03 -0.86734411141E+02 -0.68352714500E+03  0.74867586697E+03  0.82766482593E+02 0.  0.
        254    2    1    2    0    0  0.28095025737E+03  0.86734411141E+02 -0.12119160729E+04  0.15374596803E+04  0.89921398757E+03 0.  0.
         23    2    4    4    0    0  0.27719063029E+03  0.22110210922E+03 -0.56638576989E+02  0.37076847066E+03  0.92415054032E+02 0.  0.
         23    2    4    4    0    0  0.37596270759E+01 -0.13436769808E+03 -0.11552774959E+04  0.11666912096E+04  0.91833941823E+02 0.  0.
          4    1    3    3  502    0 -0.22757514007E+03 -0.62549729954E+02 -0.61370098072E+03  0.65751943457E+03  0.00000000000E+00 0. -1.
         -3    1    3    3    0  502 -0.53375117298E+02 -0.24184681187E+02 -0.69826164283E+02  0.91156432407E+02  0.00000000000E+00 0.  1.
         13    1    5    5    0    0  0.14813622608E+02  0.52414653269E+02 -0.69069518906E+01  0.54903964124E+02  0.00000000000E+00 0.  1.
        -13    1    5    5    0    0  0.26237700769E+03  0.16868745595E+03 -0.49731625099E+02  0.31586450654E+03  0.00000000000E+00 0. -1.
          2    1    6    6  503    0 -0.35341241451E+02 -0.27733949341E+02 -0.46115948451E+03  0.46334247102E+03  0.00000000000E+00 0. -1.
         -2    1    6    6    0  503  0.39100868526E+02 -0.10663374874E+03 -0.69411801142E+03  0.70334873858E+03  0.00000000000E+00 0.  1.
<mgrwt>
<rscale>  0 0.12781669E+04</rscale>
<asrwt>0</asrwt>
<pdfrwt beam="1">  1        2 0.32165992E+00 0.12781669E+04</pdfrwt>
<pdfrwt beam="2">  1       -1 0.30053255E-01 0.12781669E+04</pdfrwt>
<totfact> 0.67731508E+01</totfact>
</mgrwt>
</event>
<event>
12    7  0.2492439E-007  0.1369829E+04  0.7818608E-02  0.8975952E-01
          2   -1    0    0  501    0  0.00000000000E+00  0.00000000000E+00  0.79246512606E+03  0.79246512606E+03  0.00000000000E+00 0. -1.
         -1   -1    0    0    0  501 -0.00000000000E+00 -0.00000000000E+00 -0.59196008777E+03  0.59196008777E+03  0.00000000000E+00 0.  1.
         24    2    1    2    0    0 -0.18726843601E+03 -0.16764897673E+03 -0.23549197669E+03  0.35359591809E+03  0.79987221956E+02 0.  0.
        254    2    1    2    0    0  0.18726843601E+03  0.16764897673E+03  0.43599701498E+03  0.10308292957E+04  0.89963325491E+03 0.  0.
         23    2    4    4    0    0 -0.28266853089E+03 -0.16703644616E+03  0.86985507369E+02  0.35069431736E+03  0.87277448613E+02 0.  0.
         23    2    4    4    0    0  0.46993696691E+03  0.33468542289E+03  0.34901150761E+03  0.68013497837E+03  0.88991410812E+02 0.  0.
          4    1    3    3  502    0 -0.69202741678E+02 -0.11041342570E+03 -0.94291060074E+02  0.16084448402E+03  0.00000000000E+00 0. -1.
         -3    1    3    3    0  502 -0.11806569434E+03 -0.57235551032E+02 -0.14120091662E+03  0.19275143407E+03  0.00000000000E+00 0.  1.
         13    1    5    5    0    0 -0.22294129781E+03 -0.11772078376E+03  0.28665232712E+02  0.25373746425E+03  0.00000000000E+00 0.  1.
        -13    1    5    5    0    0 -0.59727233086E+02 -0.49315662394E+02  0.58320274657E+02  0.96956853113E+02  0.00000000000E+00 0. -1.
          3    1    6    6  503    0  0.88245181760E+02  0.73459822137E+02  0.31318135633E+02  0.11901421424E+03  0.00000000000E+00 0. -1.
         -3    1    6    6    0  503  0.38169178515E+03  0.26122560075E+03  0.31769337198E+03  0.56112076413E+03  0.00000000000E+00 0.  1.
<mgrwt>
<rscale>  0 0.13698288E+04</rscale>
<asrwt>0</asrwt>
<pdfrwt beam="1">  1        2 0.12191771E+00 0.13698288E+04</pdfrwt>
<pdfrwt beam="2">  1       -1 0.91070782E-01 0.13698288E+04</pdfrwt>
<totfact> 0.45732652E+01</totfact>
</mgrwt>
</event>
<event>
12    7  0.2492439E-007  0.4880098E+04  0.7818608E-02  0.7847274E-01
          2   -1    0    0  501    0  0.00000000000E+00  0.00000000000E+00  0.25853896043E+04  0.25853896043E+04  0.00000000000E+00 0. -1.
         -1   -1    0    0    0  501 -0.00000000000E+00 -0.00000000000E+00 -0.23028790451E+04  0.23028790451E+04  0.00000000000E+00 0.  1.
         24    2    1    2    0    0  0.19110440629E+04  0.80246563217E+03  0.12592813333E+04  0.24266065719E+04  0.81175597072E+02 0.  0.
        254    2    1    2    0    0 -0.19110440629E+04 -0.80246563217E+03 -0.97677077413E+03  0.24616620775E+04  0.89981027859E+03 0.  0.
         23    2    4    4    0    0 -0.15398804770E+04 -0.70648002511E+03 -0.36601107052E+03  0.17354412406E+04  0.86291868028E+02 0.  0.
         23    2    4    4    0    0 -0.37116358585E+03 -0.95985607063E+02 -0.61075970361E+03  0.72622083687E+03  0.85986301965E+02 0.  0.
          4    1    3    3  502    0  0.71866986929E+03  0.32590524988E+03  0.51753544108E+03  0.94368614788E+03  0.00000000000E+00 0. -1.
         -3    1    3    3    0  502  0.11923741936E+04  0.47656038229E+03  0.74174589220E+03  0.14829204240E+04  0.00000000000E+00 0.  1.
         13    1    5    5    0    0 -0.45862911803E+03 -0.24166777390E+03 -0.14046647947E+03  0.53709851303E+03  0.00000000000E+00 0. -1.
        -13    1    5    5    0    0 -0.10812513590E+04 -0.46481225121E+03 -0.22554459105E+03  0.11983427276E+04  0.00000000000E+00 0.  1.
          3    1    6    6  503    0  0.36796571053E+01 -0.50439921429E+01 -0.46403294266E+01  0.77790995840E+01  0.00000000000E+00 0. -1.
         -3    1    6    6    0  503 -0.37484324296E+03 -0.90941614921E+02 -0.60611937418E+03  0.71844173729E+03  0.00000000000E+00 0.  1.
<mgrwt>
<rscale>  0 0.48800982E+04</rscale>
<asrwt>0</asrwt>
<pdfrwt beam="1">  1        2 0.39775225E+00 0.48800982E+04</pdfrwt>
<pdfrwt beam="2">  1       -1 0.35428908E+00 0.48800982E+04</pdfrwt>
<totfact> 0.37758524E-02</totfact>
</mgrwt>
</event>
<event>
12    7  0.2492439E-007  0.1829159E+04  0.7818608E-02  0.8690945E-01
          2   -1    0    0  501    0  0.00000000000E+00  0.00000000000E+00  0.12181005382E+04  0.12181005382E+04  0.00000000000E+00 0. -1.
         -1   -1    0    0    0  501 -0.00000000000E+00 -0.00000000000E+00 -0.68668857865E+03  0.68668857865E+03  0.00000000000E+00 0.  1.
         24    2    1    2    0    0  0.56379285411E+03  0.35444343929E+03  0.12550234233E+02  0.67100415970E+03  0.81219086220E+02 0.  0.
        254    2    1    2    0    0 -0.56379285411E+03 -0.35444343929E+03  0.51886172532E+03  0.12337849572E+04  0.89973067998E+03 0.  0.
         23    2    4    4    0    0 -0.35393414960E+03  0.26910348937E+03  0.17799918635E+03  0.48718463376E+03  0.89325734163E+02 0.  0.
         23    2    4    4    0    0 -0.20985870451E+03 -0.62354692866E+03  0.34086253897E+03  0.74660032339E+03  0.91505870424E+02 0.  0.
          4    1    3    3  502    0  0.39728986023E+03  0.20465817340E+03  0.59244018699E+01  0.44694440316E+03  0.00000000000E+00 0. -1.
         -3    1    3    3    0  502  0.16650299388E+03  0.14978526589E+03  0.66258323628E+01  0.22405975654E+03  0.00000000000E+00 0.  1.
         13    1    5    5    0    0 -0.17944453781E+03  0.14858028339E+03  0.46235741639E+02  0.23751670797E+03  0.00000000000E+00 0. -1.
        -13    1    5    5    0    0 -0.17448961179E+03  0.12052320598E+03  0.13176344471E+03  0.24966792578E+03  0.00000000000E+00 0.  1.
          3    1    6    6  503    0 -0.10435781152E+02 -0.72100593455E+02  0.68647251740E+02  0.10009918220E+03  0.00000000000E+00 0. -1.
         -3    1    6    6    0  503 -0.19942292335E+03 -0.55144633520E+03  0.27221528723E+03  0.64650114120E+03  0.00000000000E+00 0.  1.
<mgrwt>
<rscale>  0 0.18291591E+04</rscale>
<asrwt>0</asrwt>
<pdfrwt beam="1">  1        2 0.18740008E+00 0.18291591E+04</pdfrwt>
<pdfrwt beam="2">  1       -1 0.10564440E+00 0.18291591E+04</pdfrwt>
<totfact> 0.16653822E+01</totfact>
</mgrwt>
</event>
<event>
12    7  0.2492439E-007  0.1280079E+04  0.7818608E-02  0.9045514E-01
          2   -1    0    0  501    0  0.00000000000E+00  0.00000000000E+00  0.73801161087E+03  0.73801161087E+03  0.00000000000E+00 0. -1.
         -1   -1    0    0    0  501 -0.00000000000E+00 -0.00000000000E+00 -0.55507339252E+03  0.55507339252E+03  0.00000000000E+00 0.  1.
         24    2    1    2    0    0  0.13277460639E+03  0.28506288144E+03  0.14306427235E+02  0.32482759474E+03  0.80114605209E+02 0.  0.
        254    2    1    2    0    0 -0.13277460639E+03 -0.28506288144E+03  0.16863179111E+03  0.96825740864E+03  0.90010876339E+03 0.  0.
         23    2    4    4    0    0 -0.15494813146E+03  0.26116676466E+03  0.25579389213E+03  0.40703140795E+03  0.89593802282E+02 0.  0.
         23    2    4    4    0    0  0.22173525065E+02 -0.54622964610E+03 -0.87162101015E+02  0.56122600069E+03  0.92297890021E+02 0.  0.
          4    1    3    3  502    0  0.11970995836E+03  0.27599566688E+03  0.30191524667E+02  0.30235014541E+03  0.00000000000E+00 0. -1.
         -3    1    3    3    0  502  0.13064648032E+02  0.90672145605E+01 -0.15885097432E+02  0.22477449333E+02  0.00000000000E+00 0.  1.
         13    1    5    5    0    0 -0.13697983900E+03  0.16663715096E+03  0.14316758459E+03  0.25889838479E+03  0.00000000000E+00 0.  1.
        -13    1    5    5    0    0 -0.17968292453E+02  0.94529613698E+02  0.11262630754E+03  0.14813302316E+03  0.00000000000E+00 0. -1.
          1    1    6    6  503    0 -0.10833386504E+02 -0.74873979455E+01 -0.87420798088E+01  0.15806560363E+02  0.00000000000E+00 0. -1.
         -1    1    6    6    0  503  0.33006911569E+02 -0.53874224815E+03 -0.78420021206E+02  0.54541944032E+03  0.00000000000E+00 0.  1.
<mgrwt>
<rscale>  0 0.12800791E+04</rscale>
<asrwt>0</asrwt>
<pdfrwt beam="1">  1        2 0.11354025E+00 0.12800791E+04</pdfrwt>
<pdfrwt beam="2">  1       -1 0.85395907E-01 0.12800791E+04</pdfrwt>
<totfact> 0.58199005E+01</totfact>
</mgrwt>
</event>
<event>
12    7  0.2492439E-007  0.1448796E+04  0.7818608E-02  0.8919235E-01
         -1   -1    0    0    0  501 -0.00000000000E+00  0.00000000000E+00  0.52020231686E+03  0.52020231686E+03  0.00000000000E+00 0.  1.
          2   -1    0    0  501    0  0.00000000000E+00 -0.00000000000E+00 -0.10087472270E+04  0.10087472270E+04  0.00000000000E+00 0. -1.
         24    2    1    2    0    0  0.30972884290E+03 -0.24149701686E+03  0.60811947489E+02  0.40524427146E+03  0.79196346594E+02 0.  0.
        254    2    1    2    0    0 -0.30972884290E+03  0.24149701686E+03 -0.54935685762E+03  0.11237052724E+04  0.89814687935E+03 0.  0.
         23    2    4    4    0    0  0.10473346410E+03 -0.27744437141E+03 -0.17048033744E+03  0.35365039519E+03  0.89780726421E+02 0.  0.
         23    2    4    4    0    0 -0.41446230700E+03  0.51894138828E+03 -0.37887652018E+03  0.77005487719E+03  0.91421703942E+02 0.  0.
          4    1    3    3  502    0  0.21129528388E+03 -0.13189290083E+03  0.95525336705E+01  0.24926428781E+03  0.00000000000E+00 0. -1.
         -3    1    3    3    0  502  0.98433559021E+02 -0.10960411603E+03  0.51259413819E+02  0.15597998365E+03  0.00000000000E+00 0.  1.
         13    1    5    5    0    0  0.79089603629E+02 -0.88566115062E+02 -0.55771527765E+02  0.13118530958E+03  0.00000000000E+00 0.  1.
        -13    1    5    5    0    0  0.25643860468E+02 -0.18887825635E+03 -0.11470880968E+03  0.22246508562E+03  0.00000000000E+00 0. -1.
          2    1    6    6  503    0 -0.12081678581E+03  0.21621610584E+03 -0.12030247280E+03  0.27535211115E+03  0.00000000000E+00 0. -1.
         -2    1    6    6    0  503 -0.29364552119E+03  0.30272528244E+03 -0.25857404738E+03  0.49470276604E+03  0.00000000000E+00 0.  1.
<mgrwt>
<rscale>  0 0.14487963E+04</rscale>
<asrwt>0</asrwt>
<pdfrwt beam="1">  1        2 0.15519188E+00 0.14487963E+04</pdfrwt>
<pdfrwt beam="2">  1       -1 0.80031126E-01 0.14487963E+04</pdfrwt>
<totfact> 0.42891205E+01</totfact>
</mgrwt>
</event>
<event>
12    7  0.2492439E-007  0.1265746E+04  0.7818608E-02  0.9057179E-01
         -1   -1    0    0    0  501 -0.00000000000E+00  0.00000000000E+00  0.24426957242E+03  0.24426957242E+03  0.00000000000E+00 0.  1.
          2   -1    0    0  501    0  0.00000000000E+00 -0.00000000000E+00 -0.16396968527E+04  0.16396968527E+04  0.00000000000E+00 0. -1.
         24    2    1    2    0    0 -0.76315350519E+02 -0.98299295341E+01 -0.76975502604E+03  0.77768534278E+03  0.79693362415E+02 0.  0.
        254    2    1    2    0    0  0.76315350519E+02  0.98299295341E+01 -0.62567225424E+03  0.11062810824E+04  0.90910472621E+03 0.  0.
         23    2    4    4    0    0 -0.90014974893E+02  0.42918921718E+03 -0.36373841447E+03  0.57674164153E+03  0.89550025500E+02 0.  0.
         23    2    4    4    0    0  0.16633032541E+03 -0.41935928764E+03 -0.26193383977E+03  0.52953944083E+03  0.90965343343E+02 0.  0.
          2    1    3    3  502    0 -0.25634182243E+02  0.23676694729E+02 -0.49802247314E+03  0.49924350865E+03  0.00000000000E+00 0. -1.
         -1    1    3    3    0  502 -0.50681168276E+02 -0.33506624263E+02 -0.27173255290E+03  0.27844183413E+03  0.00000000000E+00 0.  1.
         13    1    5    5    0    0 -0.10587524101E+03  0.40132264265E+03 -0.34409560083E+03  0.53913932585E+03  0.00000000000E+00 0. -1.
        -13    1    5    5    0    0  0.15860266116E+02  0.27866574526E+02 -0.19642813644E+02  0.37602315686E+02  0.00000000000E+00 0.  1.
          4    1    6    6  503    0  0.17096966036E+03 -0.35131292383E+03 -0.23672129779E+03  0.45682422007E+03  0.00000000000E+00 0. -1.
         -4    1    6    6    0  503 -0.46393349447E+01 -0.68046363814E+02 -0.25212541980E+02  0.72715220759E+02  0.00000000000E+00 0.  1.
<mgrwt>
<rscale>  0 0.12657457E+04</rscale>
<asrwt>0</asrwt>
<pdfrwt beam="1">  1        2 0.25226105E+00 0.12657457E+04</pdfrwt>
<pdfrwt beam="2">  1       -1 0.37579935E-01 0.12657457E+04</pdfrwt>
<totfact> 0.80931415E+01</totfact>
</mgrwt>
</event>
<event>
12    7  0.2492439E-007  0.1560829E+04  0.7818608E-02  0.8844980E-01
          2   -1    0    0  501    0  0.00000000000E+00  0.00000000000E+00  0.91081891803E+03  0.91081891803E+03  0.00000000000E+00 0. -1.
         -1   -1    0    0    0  501 -0.00000000000E+00 -0.00000000000E+00 -0.66868081846E+03  0.66868081846E+03  0.00000000000E+00 0.  1.
         24    2    1    2    0    0 -0.23802488834E+03  0.41495348230E+03 -0.11670902693E+03  0.49880393305E+03  0.79637470585E+02 0.  0.
        254    2    1    2    0    0  0.23802488834E+03 -0.41495348230E+03  0.35884712650E+03  0.10806958034E+04  0.90016105195E+03 0.  0.
         23    2    4    4    0    0  0.56668652762E+03 -0.34708264881E+03  0.26922617552E+03  0.72264392305E+03  0.90174942395E+02 0.  0.
         23    2    4    4    0    0 -0.32866163929E+03 -0.67870833490E+02  0.89620950984E+02  0.35805188040E+03  0.86857993443E+02 0.  0.
          2    1    3    3  502    0 -0.84474220681E+02  0.17234441740E+03 -0.89901767278E+01  0.19214399665E+03  0.00000000000E+00 0. -1.
         -1    1    3    3    0  502 -0.15355066766E+03  0.24260906490E+03 -0.10771885020E+03  0.30665993641E+03  0.00000000000E+00 0.  1.
         13    1    5    5    0    0  0.44030452348E+03 -0.27522222733E+03  0.16897874086E+03  0.54604868160E+03  0.00000000000E+00 0.  1.
        -13    1    5    5    0    0  0.12638200415E+03 -0.71860421484E+02  0.10024743465E+03  0.17659524145E+03  0.00000000000E+00 0. -1.
          2    1    6    6  503    0 -0.17914460981E+03 -0.14770561607E+02  0.87519071786E+01  0.17996543167E+03  0.00000000000E+00 0. -1.
         -2    1    6    6    0  503 -0.14951702947E+03 -0.53100271884E+02  0.80869043805E+02  0.17808644873E+03  0.00000000000E+00 0.  1.
<mgrwt>
<rscale>  0 0.15608294E+04</rscale>
<asrwt>0</asrwt>
<pdfrwt beam="1">  1        2 0.14012599E+00 0.15608294E+04</pdfrwt>
<pdfrwt beam="2">  1       -1 0.10287397E+00 0.15608294E+04</pdfrwt>
<totfact> 0.28263670E+01</totfact>
</mgrwt>
</event>
<event>
12    7  0.2492439E-007  0.1755782E+04  0.7818608E-02  0.8730174E-01
          2   -1    0    0  501    0  0.00000000000E+00  0.00000000000E+00  0.17250525673E+04  0.17250525673E+04  0.00000000000E+00 0. -1.
         -1   -1    0    0    0  501 -0.00000000000E+00 -0.00000000000E+00 -0.44676452599E+03  0.44676452599E+03  0.00000000000E+00 0.  1.
         24    2    1    2    0    0 -0.31762179614E+03 -0.31242677447E+03 -0.10066354573E+03  0.46365610016E+03  0.79685224399E+02 0.  0.
        254    2    1    2    0    0  0.31762179614E+03  0.31242677447E+03  0.13789515871E+04  0.17081609932E+04  0.90432980945E+03 0.  0.
         23    2    4    4    0    0 -0.14471262950E+02  0.25417932300E+03  0.13289146482E+04  0.13561740600E+04  0.91528099824E+02 0.  0.
         23    2    4    4    0    0  0.33209305909E+03  0.58247451475E+02  0.50036938870E+02  0.35198693318E+03  0.87821070229E+02 0.  0.
          4    1    3    3  502    0 -0.17708119025E+03 -0.15008662810E+03 -0.15449743231E+02  0.23264229719E+03  0.00000000000E+00 0. -1.
         -3    1    3    3    0  502 -0.14054060589E+03 -0.16234014638E+03 -0.85213802497E+02  0.23101380298E+03  0.00000000000E+00 0.  1.
         13    1    5    5    0    0 -0.33397664671E+02  0.24045092005E+03  0.12657863765E+04  0.12888549957E+04  0.00000000000E+00 0. -1.
        -13    1    5    5    0    0  0.18926401721E+02  0.13728402951E+02  0.63128271701E+02  0.67319064296E+02  0.00000000000E+00 0.  1.
          3    1    6    6  503    0  0.29787839010E+03  0.73592181601E+02  0.61167350804E+02  0.31287184163E+03  0.00000000000E+00 0. -1.
         -3    1    6    6    0  503  0.34214668992E+02 -0.15344730127E+02 -0.11130411934E+02  0.39115091547E+02  0.00000000000E+00 0.  1.
<mgrwt>
<rscale>  0 0.17557816E+04</rscale>
<asrwt>0</asrwt>
<pdfrwt beam="1">  1        2 0.26539270E+00 0.17557816E+04</pdfrwt>
<pdfrwt beam="2">  1       -1 0.68733005E-01 0.17557816E+04</pdfrwt>
<totfact> 0.21952933E+01</totfact>
</mgrwt>
</event>
<event>
12    7  0.2492439E-007  0.6125150E+04  0.7818608E-02  0.7675076E-01
          2   -1    0    0  501    0  0.00000000000E+00  0.00000000000E+00  0.40861401322E+04  0.40861401322E+04  0.00000000000E+00 0. -1.
         -1   -1    0    0    0  501 -0.00000000000E+00 -0.00000000000E+00 -0.22954098077E+04  0.22954098077E+04  0.00000000000E+00 0.  1.
         24    2    1    2    0    0  0.86857854761E+03 -0.25525182574E+04 -0.48413974979E+03  0.27405420371E+04  0.80007577189E+02 0.  0.
        254    2    1    2    0    0 -0.86857854761E+03  0.25525182574E+04  0.22748700743E+04  0.36410079028E+04  0.90118063997E+03 0.  0.
         23    2    4    4    0    0 -0.41223423626E+03  0.31428131484E+03  0.23284971429E+03  0.57581664697E+03  0.92930140867E+02 0.  0.
         23    2    4    4    0    0 -0.45634431136E+03  0.22382369425E+04  0.20420203600E+04  0.30651912558E+04  0.87152411551E+02 0.  0.
          2    1    3    3  502    0  0.65937693460E+03 -0.19371443474E+04 -0.40209550095E+03  0.20854224887E+04  0.00000000000E+00 0. -1.
         -1    1    3    3    0  502  0.20920161301E+03 -0.61537391001E+03 -0.82044248841E+02  0.65511954846E+03  0.00000000000E+00 0.  1.
         13    1    5    5    0    0 -0.25686288981E+03  0.21924690717E+03  0.10633083587E+03  0.35405366418E+03  0.00000000000E+00 0.  1.
        -13    1    5    5    0    0 -0.15537134645E+03  0.95034407672E+02  0.12651887841E+03  0.22176298279E+03  0.00000000000E+00 0. -1.
          3    1    6    6  503    0 -0.14950039417E+03  0.94788518162E+03  0.85267412443E+03  0.12837016195E+04  0.00000000000E+00 0. -1.
         -3    1    6    6    0  503 -0.30684391719E+03  0.12903517609E+04  0.11893462355E+04  0.17814896363E+04  0.00000000000E+00 0.  1.
<mgrwt>
<rscale>  0 0.61251502E+04</rscale>
<asrwt>0</asrwt>
<pdfrwt beam="1">  1        2 0.62863694E+00 0.61251502E+04</pdfrwt>
<pdfrwt beam="2">  1       -1 0.35313997E+00 0.61251502E+04</pdfrwt>
<totfact> 0.32405972E-03</totfact>
</mgrwt>
</event>
<event>
12    7  0.2492439E-007  0.4666296E+04  0.7818608E-02  0.7882153E-01
         -1   -1    0    0    0  501 -0.00000000000E+00  0.00000000000E+00  0.14109994983E+04  0.14109994983E+04  0.00000000000E+00 0.  1.
          2   -1    0    0  501    0  0.00000000000E+00 -0.00000000000E+00 -0.38579606898E+04  0.38579606898E+04  0.00000000000E+00 0. -1.
         24    2    1    2    0    0  0.82374421833E+03 -0.19967345120E+04 -0.18717296707E+04  0.28592393434E+04  0.79839929411E+02 0.  0.
        254    2    1    2    0    0 -0.82374421833E+03  0.19967345120E+04 -0.57523152083E+03  0.24097208446E+04  0.90019997649E+03 0.  0.
         23    2    4    4    0    0 -0.81291153948E+03  0.17488113737E+04 -0.18687648756E+03  0.19397200509E+04  0.91785959686E+02 0.  0.
         23    2    4    4    0    0 -0.10832678852E+02  0.24792313826E+03 -0.38835503327E+03  0.47000079367E+03  0.92183972432E+02 0.  0.
          4    1    3    3  502    0  0.43709269434E+03 -0.10037160988E+04 -0.90378935277E+03  0.14196236207E+04  0.00000000000E+00 0. -1.
         -3    1    3    3    0  502  0.38665152399E+03 -0.99301841324E+03 -0.96794031790E+03  0.14396157227E+04  0.00000000000E+00 0.  1.
         13    1    5    5    0    0 -0.35783846359E+03  0.76853801219E+03 -0.12794238049E+03  0.85736123946E+03  0.00000000000E+00 0. -1.
        -13    1    5    5    0    0 -0.45507307589E+03  0.98027336155E+03 -0.58934107066E+02  0.10823588115E+04  0.00000000000E+00 0.  1.
          1    1    6    6  503    0  0.30653871091E+02  0.18844906862E+03 -0.30132007800E+03  0.35671627477E+03  0.00000000000E+00 0. -1.
         -1    1    6    6    0  503 -0.41486549942E+02  0.59474069633E+02 -0.87034955265E+02  0.11328451890E+03  0.00000000000E+00 0.  1.
<mgrwt>
<rscale>  0 0.46662964E+04</rscale>
<asrwt>0</asrwt>
<pdfrwt beam="1">  1        2 0.59353241E+00 0.46662964E+04</pdfrwt>
<pdfrwt beam="2">  1       -1 0.21707685E+00 0.46662964E+04</pdfrwt>
<totfact> 0.43145063E-02</totfact>
</mgrwt>
</event>
<event>
12    7  0.2492439E-007  0.2851721E+04  0.7818608E-02  0.8287389E-01
          2   -1    0    0  501    0  0.00000000000E+00  0.00000000000E+00  0.47809190216E+04  0.47809190216E+04  0.00000000000E+00 0. -1.
         -1   -1    0    0    0  501 -0.00000000000E+00 -0.00000000000E+00 -0.42524841017E+03  0.42524841017E+03  0.00000000000E+00 0.  1.
         24    2    1    2    0    0  0.22583536029E+02  0.61586057142E+03 -0.90643411545E+02  0.62811823293E+03  0.80759067292E+02 0.  0.
        254    2    1    2    0    0 -0.22583536029E+02 -0.61586057142E+03  0.44463140229E+04  0.45780491988E+04  0.89946195953E+03 0.  0.
         23    2    4    4    0    0  0.16188661836E+02 -0.24613163485E+03  0.39114061788E+04  0.39202363355E+04  0.91168940534E+02 0.  0.
         23    2    4    4    0    0 -0.38772197865E+02 -0.36972893657E+03  0.53490784413E+03  0.65781286336E+03  0.91589254969E+02 0.  0.
          2    1    3    3  502    0 -0.21051322594E+02  0.20807636300E+03 -0.52181160185E+01  0.20920363228E+03  0.00000000000E+00 0. -1.
         -1    1    3    3    0  502  0.43634858623E+02  0.40778420842E+03 -0.85425295526E+02  0.41891460065E+03  0.00000000000E+00 0.  1.
         13    1    5    5    0    0  0.11748925545E+02 -0.25203966019E+03  0.38667086153E+04  0.38749319405E+04  0.00000000000E+00 0. -1.
        -13    1    5    5    0    0  0.44397362907E+01  0.59080253444E+01  0.44697563469E+02  0.45304394951E+02  0.00000000000E+00 0.  1.
          1    1    6    6  503    0 -0.21613022812E+01 -0.29375954323E+03  0.36858588260E+03  0.47133310229E+03  0.00000000000E+00 0. -1.
         -1    1    6    6    0  503 -0.36610895584E+02 -0.75969393341E+02  0.16632196153E+03  0.18647976107E+03  0.00000000000E+00 0.  1.
<mgrwt>
<rscale>  0 0.28517210E+04</rscale>
<asrwt>0</asrwt>
<pdfrwt beam="1">  1        2 0.73552597E+00 0.28517210E+04</pdfrwt>
<pdfrwt beam="2">  1       -1 0.65422836E-01 0.28517210E+04</pdfrwt>
<totfact> 0.14609472E-01</totfact>
</mgrwt>
</event>
<event>
12    7  0.2492439E-007  0.2001934E+04  0.7818608E-02  0.8605717E-01
         -1   -1    0    0    0  501 -0.00000000000E+00  0.00000000000E+00  0.41878812005E+03  0.41878812005E+03  0.00000000000E+00 0.  1.
          2   -1    0    0  501    0  0.00000000000E+00 -0.00000000000E+00 -0.23924628114E+04  0.23924628114E+04  0.00000000000E+00 0. -1.
         24    2    1    2    0    0 -0.33981072530E+03  0.51121646891E+03 -0.15090155349E+04  0.16310285758E+04  0.79452649608E+02 0.  0.
        254    2    1    2    0    0  0.33981072530E+03 -0.51121646891E+03 -0.46465915649E+03  0.11802223556E+04  0.89454070333E+03 0.  0.
         23    2    4    4    0    0  0.34089875241E+03 -0.74922576294E+03 -0.38404764779E+03  0.91321399738E+03  0.94424604833E+02 0.  0.
         23    2    4    4    0    0 -0.10880271105E+01  0.23800929402E+03 -0.80611508700E+02  0.26700835826E+03  0.90253200492E+02 0.  0.
          2    1    3    3  502    0 -0.30478960411E+03  0.47563357918E+03 -0.14302738456E+04  0.15377929893E+04  0.00000000000E+00 0. -1.
         -1    1    3    3    0  502 -0.35021121191E+02  0.35582889731E+02 -0.78741689298E+02  0.93235586578E+02  0.00000000000E+00 0.  1.
         13    1    5    5    0    0  0.10348511847E+03 -0.15774768515E+03 -0.58415288907E+02  0.19749898200E+03  0.00000000000E+00 0. -1.
        -13    1    5    5    0    0  0.23741363393E+03 -0.59147807779E+03 -0.32563235888E+03  0.71571501538E+03  0.00000000000E+00 0.  1.
          3    1    6    6  503    0  0.11866966433E+02  0.25163621213E+02  0.16877426059E+02  0.32540439998E+02  0.00000000000E+00 0. -1.
         -3    1    6    6    0  503 -0.12954993544E+02  0.21284567281E+03 -0.97488934759E+02  0.23446791826E+03  0.00000000000E+00 0.  1.
<mgrwt>
<rscale>  0 0.20019341E+04</rscale>
<asrwt>0</asrwt>
<pdfrwt beam="1">  1        2 0.36807120E+00 0.20019341E+04</pdfrwt>
<pdfrwt beam="2">  1       -1 0.64428943E-01 0.20019341E+04</pdfrwt>
<totfact> 0.10375070E+01</totfact>
</mgrwt>
</event>
<event>
12    7  0.2492439E-007  0.1474295E+04  0.7818608E-02  0.8901729E-01
         -1   -1    0    0    0  501 -0.00000000000E+00  0.00000000000E+00  0.73347785241E+03  0.73347785241E+03  0.00000000000E+00 0.  1.
          2   -1    0    0  501    0  0.00000000000E+00 -0.00000000000E+00 -0.74083516440E+03  0.74083516440E+03  0.00000000000E+00 0. -1.
         24    2    1    2    0    0  0.37478883210E+03 -0.10316052467E+03 -0.24568959427E+03  0.46664664666E+03  0.79290312079E+02 0.  0.
        254    2    1    2    0    0 -0.37478883210E+03  0.10316052467E+03  0.23833228228E+03  0.10076663702E+04  0.89859917329E+03 0.  0.
         23    2    4    4    0    0 -0.55779933370E+03 -0.13806308942E+02 -0.12203053106E+03  0.57794607577E+03  0.88314807054E+02 0.  0.
         23    2    4    4    0    0  0.18301050160E+03  0.11696683361E+03  0.36036281335E+03  0.42972029438E+03  0.87316036897E+02 0.  0.
          4    1    3    3  502    0  0.25268790588E+03 -0.10472820506E+03 -0.15363134202E+03  0.31372243140E+03  0.00000000000E+00 0. -1.
         -3    1    3    3    0  502  0.12210092622E+03  0.15676803892E+01 -0.92058252246E+02  0.15292421526E+03  0.00000000000E+00 0.  1.
         13    1    5    5    0    0 -0.51601111698E+03 -0.69792940945E+01 -0.13543226606E+03  0.53353358103E+03  0.00000000000E+00 0. -1.
        -13    1    5    5    0    0 -0.41788216717E+02 -0.68270148477E+01  0.13401734999E+02  0.44412494741E+02  0.00000000000E+00 0.  1.
          1    1    6    6  503    0 -0.18631846982E+01 -0.15396405877E+01  0.47065204474E+02  0.47127225916E+02  0.00000000000E+00 0. -1.
         -1    1    6    6    0  503  0.18487368630E+03  0.11850647420E+03  0.31329760888E+03  0.38259306847E+03  0.00000000000E+00 0.  1.
<mgrwt>
<rscale>  0 0.14742947E+04</rscale>
<asrwt>0</asrwt>
<pdfrwt beam="1">  1        2 0.11397464E+00 0.14742947E+04</pdfrwt>
<pdfrwt beam="2">  1       -1 0.11284275E+00 0.14742947E+04</pdfrwt>
<totfact> 0.30265079E+01</totfact>
</mgrwt>
</event>
<event>
12    7  0.2492439E-007  0.1693026E+04  0.7818608E-02  0.8765352E-01
         -1   -1    0    0    0  501 -0.00000000000E+00  0.00000000000E+00  0.69544390878E+03  0.69544390878E+03  0.00000000000E+00 0.  1.
          2   -1    0    0  501    0  0.00000000000E+00 -0.00000000000E+00 -0.10303987151E+04  0.10303987151E+04  0.00000000000E+00 0. -1.
         24    2    1    2    0    0 -0.45294338726E+03  0.23465120833E+03  0.20803695583E+03  0.55617978831E+03  0.76404713852E+02 0.  0.
        254    2    1    2    0    0  0.45294338726E+03 -0.23465120833E+03 -0.54299176220E+03  0.11696628356E+04  0.90169406874E+03 0.  0.
         23    2    4    4    0    0 -0.61257878715E+02  0.24326485549E+03 -0.34016282544E+03  0.43334195593E+03  0.95625233767E+02 0.  0.
         23    2    4    4    0    0  0.51420126597E+03 -0.47791606382E+03 -0.20282893675E+03  0.73632087969E+03  0.90676095541E+02 0.  0.
          2    1    3    3  502    0 -0.30577511717E+03  0.12883485159E+03  0.10685202086E+03  0.34858886332E+03  0.00000000000E+00 0. -1.
         -1    1    3    3    0  502 -0.14716827008E+03  0.10581635674E+03  0.10118493497E+03  0.20759092499E+03  0.00000000000E+00 0.  1.
         13    1    5    5    0    0  0.13726651309E+02  0.91544958362E+02 -0.76748343515E+02  0.12024644939E+03  0.00000000000E+00 0. -1.
        -13    1    5    5    0    0 -0.74984530024E+02  0.15171989713E+03 -0.26341448193E+03  0.31309550654E+03  0.00000000000E+00 0.  1.
          2    1    6    6  503    0  0.30994888727E+03 -0.34524970353E+03 -0.12261230952E+03  0.47989524790E+03  0.00000000000E+00 0. -1.
         -2    1    6    6    0  503  0.20425237870E+03 -0.13266636029E+03 -0.80216627231E+02  0.25642563180E+03  0.00000000000E+00 0.  1.
<mgrwt>
<rscale>  0 0.16930263E+04</rscale>
<asrwt>0</asrwt>
<pdfrwt beam="1">  1        2 0.15852288E+00 0.16930263E+04</pdfrwt>
<pdfrwt beam="2">  1       -1 0.10699137E+00 0.16930263E+04</pdfrwt>
<totfact> 0.21318124E+01</totfact>
</mgrwt>
</event>
<event>
12    7  0.2492439E-007  0.1423348E+04  0.7818608E-02  0.8937089E-01
         -1   -1    0    0    0  501 -0.00000000000E+00  0.00000000000E+00  0.85130404900E+03  0.85130404900E+03  0.00000000000E+00 0.  1.
          2   -1    0    0  501    0  0.00000000000E+00 -0.00000000000E+00 -0.59494580089E+03  0.59494580089E+03  0.00000000000E+00 0. -1.
         24    2    1    2    0    0 -0.32212232817E+03 -0.20444995193E+03  0.26143678803E+03  0.46932355621E+03  0.79704636791E+02 0.  0.
        254    2    1    2    0    0  0.32212232817E+03  0.20444995193E+03 -0.50785399162E+01  0.97692629368E+03  0.89933120404E+03 0.  0.
         23    2    4    4    0    0  0.22753810875E+03  0.55237476621E+03 -0.14665839075E+02  0.60476567180E+03  0.92924472952E+02 0.  0.
         23    2    4    4    0    0  0.94584219424E+02 -0.34792481428E+03  0.95872991588E+01  0.37216062188E+03  0.91726556770E+02 0.  0.
          2    1    3    3  502    0 -0.30266214137E+03 -0.18768231109E+03  0.21428471638E+03  0.41562839339E+03  0.00000000000E+00 0. -1.
         -1    1    3    3    0  502 -0.19460186804E+02 -0.16767640845E+02  0.47152071653E+02  0.53695162828E+02  0.00000000000E+00 0.  1.
         13    1    5    5    0    0  0.92806925521E+02  0.21642266833E+03 -0.51138385801E+02  0.24097101754E+03  0.00000000000E+00 0.  1.
        -13    1    5    5    0    0  0.13473118323E+03  0.33595209788E+03  0.36472546726E+02  0.36379465426E+03  0.00000000000E+00 0. -1.
          1    1    6    6  503    0  0.24881067708E+02 -0.19525197534E+03 -0.31593621189E+02  0.19935034062E+03  0.00000000000E+00 0. -1.
         -1    1    6    6    0  503  0.69703151716E+02 -0.15267283894E+03  0.41180920348E+02  0.17281028126E+03  0.00000000000E+00 0.  1.
<mgrwt>
<rscale>  0 0.14233478E+04</rscale>
<asrwt>0</asrwt>
<pdfrwt beam="1">  1        2 0.91530123E-01 0.14233478E+04</pdfrwt>
<pdfrwt beam="2">  1       -1 0.13096985E+00 0.14233478E+04</pdfrwt>
<totfact> 0.27697749E+01</totfact>
</mgrwt>
</event>
<event>
12    7  0.2492439E-007  0.2101829E+04  0.7818608E-02  0.8560438E-01
         -1   -1    0    0    0  501 -0.00000000000E+00  0.00000000000E+00  0.26949762162E+04  0.26949762162E+04  0.00000000000E+00 0.  1.
          2   -1    0    0  501    0  0.00000000000E+00 -0.00000000000E+00 -0.40980730096E+03  0.40980730096E+03  0.00000000000E+00 0. -1.
         24    2    1    2    0    0  0.48652097013E+03 -0.61780276674E+03  0.14313995110E+04  0.16351552743E+04  0.80282613367E+02 0.  0.
        254    2    1    2    0    0 -0.48652097013E+03  0.61780276674E+03  0.85376940418E+03  0.14696282428E+04  0.90138896353E+03 0.  0.
         23    2    4    4    0    0  0.14352964428E+03 -0.78448108602E+02  0.36482098001E+03  0.40748879546E+03  0.78726783496E+02 0.  0.
         23    2    4    4    0    0 -0.63005061441E+03  0.69625087534E+03  0.48894842417E+03  0.10621394473E+04  0.85677219695E+02 0.  0.
          4    1    3    3  502    0  0.12659559435E+03 -0.19406785160E+03  0.36058884686E+03  0.42861765247E+03  0.00000000000E+00 0. -1.
         -3    1    3    3    0  502  0.35992537578E+03 -0.42373491514E+03  0.10708106642E+04  0.12065376219E+04  0.00000000000E+00 0.  1.
         13    1    5    5    0    0  0.99673885597E+02 -0.31958406916E+02  0.14681466860E+03  0.18030743234E+03  0.00000000000E+00 0. -1.
        -13    1    5    5    0    0  0.43855758686E+02 -0.46489701686E+02  0.21800631141E+03  0.22718136312E+03  0.00000000000E+00 0.  1.
          4    1    6    6  503    0 -0.53220779927E+03  0.60894211889E+03  0.44919897994E+03  0.92511370617E+03  0.00000000000E+00 0. -1.
         -4    1    6    6    0  503 -0.97842815148E+02  0.87308756453E+02  0.39749444225E+02  0.13702574118E+03  0.00000000000E+00 0.  1.
<mgrwt>
<rscale>  0 0.21018287E+04</rscale>
<asrwt>0</asrwt>
<pdfrwt beam="1">  1        2 0.63047279E-01 0.21018287E+04</pdfrwt>
<pdfrwt beam="2">  1       -1 0.41461171E+00 0.21018287E+04</pdfrwt>
<totfact> 0.46313938E-01</totfact>
</mgrwt>
</event>
<event>
12    7  0.2492439E-007  0.2708416E+04  0.7818608E-02  0.8332279E-01
          2   -1    0    0  501    0  0.00000000000E+00  0.00000000000E+00  0.17776773751E+04  0.17776773751E+04  0.00000000000E+00 0. -1.
         -1   -1    0    0    0  501 -0.00000000000E+00 -0.00000000000E+00 -0.10316153368E+04  0.10316153368E+04  0.00000000000E+00 0.  1.
         24    2    1    2    0    0 -0.11599329599E+04 -0.80881458570E+01  0.66317638460E+03  0.13384399345E+04  0.78157862061E+02 0.  0.
        254    2    1    2    0    0  0.11599329599E+04  0.80881458570E+01  0.82885653746E+02  0.14708527774E+04  0.90057091424E+03 0.  0.
         23    2    4    4    0    0  0.59470256451E+03 -0.35939763938E+03  0.29253354449E+03  0.75957561961E+03  0.92419931969E+02 0.  0.
         23    2    4    4    0    0  0.56523039542E+03  0.36748578524E+03 -0.20964789075E+03  0.71127715780E+03  0.86207626427E+02 0.  0.
          2    1    3    3  502    0 -0.68245503814E+03 -0.28642770841E+02  0.42472672909E+03  0.80433704490E+03  0.00000000000E+00 0. -1.
         -3    1    3    3    0  502 -0.47747792180E+03  0.20554624984E+02  0.23844965551E+03  0.53410288955E+03  0.00000000000E+00 0.  1.
         13    1    5    5    0    0  0.22064493724E+03 -0.10649075077E+03  0.14429200466E+03  0.28433193795E+03  0.00000000000E+00 0.  1.
        -13    1    5    5    0    0  0.37405762727E+03 -0.25290688861E+03  0.14824153983E+03  0.47524368166E+03  0.00000000000E+00 0. -1.
          4    1    6    6  503    0  0.17468290899E+03  0.74525344876E+02 -0.37367274788E+02  0.19355737895E+03  0.00000000000E+00 0. -1.
         -4    1    6    6    0  503  0.39054748643E+03  0.29296044036E+03 -0.17228061596E+03  0.51771977885E+03  0.00000000000E+00 0.  1.
<mgrwt>
<rscale>  0 0.27084160E+04</rscale>
<asrwt>0</asrwt>
<pdfrwt beam="1">  1        2 0.27348883E+00 0.27084160E+04</pdfrwt>
<pdfrwt beam="2">  1       -1 0.15871005E+00 0.27084160E+04</pdfrwt>
<totfact> 0.26482665E+00</totfact>
</mgrwt>
</event>
<event>
12    7  0.2492439E-007  0.1069917E+04  0.7818608E-02  0.9235019E-01
         -3   -1    0    0    0  501 -0.00000000000E+00  0.00000000000E+00  0.20727178732E+03  0.20727178732E+03  0.00000000000E+00 0.  1.
          2   -1    0    0  501    0  0.00000000000E+00 -0.00000000000E+00 -0.13807019135E+04  0.13807019135E+04  0.00000000000E+00 0. -1.
         24    2    1    2    0    0 -0.12896260730E+03  0.21905353269E+02 -0.23868256637E+03  0.28367741548E+03  0.79951922931E+02 0.  0.
        254    2    1    2    0    0  0.12896260730E+03 -0.21905353269E+02 -0.93474755978E+03  0.13042962853E+04  0.90018031570E+03 0.  0.
         23    2    4    4    0    0  0.48712464088E+03 -0.14340745522E+03 -0.58112185031E+03  0.77724024956E+03  0.92432065113E+02 0.  0.
         23    2    4    4    0    0 -0.35816203358E+03  0.12150210195E+03 -0.35362570947E+03  0.52705603575E+03  0.98458719004E+02 0.  0.
          2    1    3    3  502    0 -0.11325077260E+03  0.14393372107E+02 -0.24044773944E+03  0.26617291758E+03  0.00000000000E+00 0. -1.
         -1    1    3    3    0  502 -0.15711834699E+02  0.75119811619E+01  0.17651730664E+01  0.17504497895E+02  0.00000000000E+00 0.  1.
         13    1    5    5    0    0  0.12311037838E+03  0.17840596039E+01 -0.11778982080E+03  0.17039304568E+03  0.00000000000E+00 0. -1.
        -13    1    5    5    0    0  0.36401426250E+03 -0.14519151482E+03 -0.46333202951E+03  0.60684720388E+03  0.00000000000E+00 0.  1.
          2    1    6    6  503    0 -0.33631356324E+03  0.90933883128E+02 -0.34078162685E+03  0.48734782355E+03  0.00000000000E+00 0.  1.
         -2    1    6    6    0  503 -0.21848470342E+02  0.30568218818E+02 -0.12844082620E+02  0.39708212203E+02  0.00000000000E+00 0. -1.
<mgrwt>
<rscale>  0 0.10699169E+04</rscale>
<asrwt>0</asrwt>
<pdfrwt beam="1">  1        2 0.21241568E+00 0.10699169E+04</pdfrwt>
<pdfrwt beam="2">  1       -3 0.31887967E-01 0.10699169E+04</pdfrwt>
<totfact> 0.91611685E+01</totfact>
</mgrwt>
</event>
<event>
12    7  0.2492439E-007  0.4810406E+04  0.7818608E-02  0.7858438E-01
          2   -1    0    0  501    0  0.00000000000E+00  0.00000000000E+00  0.39504418770E+04  0.39504418770E+04  0.00000000000E+00 0. -1.
         -1   -1    0    0    0  501 -0.00000000000E+00 -0.00000000000E+00 -0.14643937068E+04  0.14643937068E+04  0.00000000000E+00 0.  1.
         24    2    1    2    0    0 -0.82846231188E+03  0.20435593593E+04  0.20123968873E+04  0.29864201554E+04  0.80495064457E+02 0.  0.
        254    2    1    2    0    0  0.82846231188E+03 -0.20435593593E+04  0.47365128292E+03  0.24284154284E+04  0.90020625296E+03 0.  0.
         23    2    4    4    0    0  0.27363617646E+03 -0.40396795197E+03  0.48610363201E+03  0.69515397949E+03  0.94209611286E+02 0.  0.
         23    2    4    4    0    0  0.55482613542E+03 -0.16395914073E+04 -0.12452349085E+02  0.17332614489E+04  0.89152485930E+02 0.  0.
          4    1    3    3  502    0 -0.26253098298E+03  0.63985276537E+03  0.58126984400E+03  0.90344269875E+03  0.00000000000E+00 0. -1.
         -3    1    3    3    0  502 -0.56593132890E+03  0.14037065939E+04  0.14311270433E+04  0.20829774567E+04  0.00000000000E+00 0.  1.
         13    1    5    5    0    0  0.28526560216E+02 -0.11052438292E+03  0.12432001028E+03  0.16877460950E+03  0.00000000000E+00 0.  1.
        -13    1    5    5    0    0  0.24510961624E+03 -0.29344356905E+03  0.36178362173E+03  0.52637936998E+03  0.00000000000E+00 0. -1.
          3    1    6    6  503    0  0.28806721091E+03 -0.95420102506E+03 -0.36379351234E+02  0.99739950443E+03  0.00000000000E+00 0. -1.
         -3    1    6    6    0  503  0.26675892451E+03 -0.68539038226E+03  0.23927002149E+02  0.73586194448E+03  0.00000000000E+00 0.  1.
<mgrwt>
<rscale>  0 0.48104063E+04</rscale>
<asrwt>0</asrwt>
<pdfrwt beam="1">  1        2 0.60776028E+00 0.48104063E+04</pdfrwt>
<pdfrwt beam="2">  1       -1 0.22529134E+00 0.48104063E+04</pdfrwt>
<totfact> 0.31767871E-02</totfact>
</mgrwt>
</event>
<event>
12    7  0.2492439E-007  0.1821129E+04  0.7818608E-02  0.8695143E-01
         -1   -1    0    0    0  501 -0.00000000000E+00  0.00000000000E+00  0.29356896089E+03  0.29356896089E+03  0.00000000000E+00 0.  1.
          2   -1    0    0  501    0  0.00000000000E+00 -0.00000000000E+00 -0.28243038151E+04  0.28243038151E+04  0.00000000000E+00 0. -1.
         24    2    1    2    0    0  0.46268713760E+03  0.17550694839E+03 -0.15141092624E+03  0.52353420420E+03  0.79250982011E+02 0.  0.
        254    2    1    2    0    0 -0.46268713760E+03 -0.17550694839E+03 -0.23793239280E+04  0.25943385718E+04  0.90803534882E+03 0.  0.
         23    2    4    4    0    0 -0.46055132321E+03  0.72511431936E+02 -0.22502596676E+04  0.22998852799E+04  0.91860219507E+02 0.  0.
         23    2    4    4    0    0 -0.21358143886E+01 -0.24801838032E+03 -0.12906426040E+03  0.29445329195E+03  0.92344350913E+02 0.  0.
          4    1    3    3  502    0  0.39576051978E+03  0.16877426481E+03 -0.10838943767E+03  0.44368841734E+03  0.00000000000E+00 0. -1.
         -3    1    3    3    0  502  0.66926617813E+02  0.67326835709E+01 -0.43021488570E+02  0.79845786856E+02  0.00000000000E+00 0.  1.
         13    1    5    5    0    0 -0.44174540832E+03  0.77929113118E+02 -0.20409352383E+04  0.20896479607E+04  0.00000000000E+00 0.  1.
        -13    1    5    5    0    0 -0.18805914887E+02 -0.54176811814E+01 -0.20932442926E+03  0.21023731921E+03  0.00000000000E+00 0. -1.
          3    1    6    6  503    0  0.22737838424E+02 -0.94270304833E+01 -0.90837993460E+01  0.26237256154E+02  0.00000000000E+00 0. -1.
         -3    1    6    6    0  503 -0.24873652813E+02 -0.23859134984E+03 -0.11998046105E+03  0.26821603579E+03  0.00000000000E+00 0.  1.
<mgrwt>
<rscale>  0 0.18211292E+04</rscale>
<asrwt>0</asrwt>
<pdfrwt beam="1">  1        2 0.43450831E+00 0.18211292E+04</pdfrwt>
<pdfrwt beam="2">  1       -1 0.45164453E-01 0.18211292E+04</pdfrwt>
<totfact> 0.11696225E+01</totfact>
</mgrwt>
</event>
<event>
12    7  0.2492439E-007  0.3522922E+04  0.7818608E-02  0.8108379E-01
         -1   -1    0    0    0  501 -0.00000000000E+00  0.00000000000E+00  0.75698353588E+03  0.75698353588E+03  0.00000000000E+00 0.  1.
          2   -1    0    0  501    0  0.00000000000E+00 -0.00000000000E+00 -0.40988265784E+04  0.40988265784E+04  0.00000000000E+00 0. -1.
         24    2    1    2    0    0  0.10034408697E+04  0.11311631727E+04 -0.66515293409E+03  0.16538406169E+04  0.79603127519E+02 0.  0.
        254    2    1    2    0    0 -0.10034408697E+04 -0.11311631727E+04 -0.26766901084E+04  0.32019694974E+04  0.89527371428E+03 0.  0.
         23    2    4    4    0    0 -0.21610204775E+03 -0.86128083311E+02 -0.34250609170E+02  0.25185240468E+03  0.90213013133E+02 0.  0.
         23    2    4    4    0    0 -0.78733882195E+03 -0.10450350894E+04 -0.26424394993E+04  0.29501170927E+04  0.93293059268E+02 0.  0.
          2    1    3    3  502    0  0.13512604909E+03  0.19369362494E+03 -0.94112952978E+02  0.25423122822E+03  0.00000000000E+00 0. -1.
         -1    1    3    3    0  502  0.86831482062E+03  0.93746954780E+03 -0.57103998111E+03  0.13996093886E+04  0.00000000000E+00 0.  1.
         13    1    5    5    0    0 -0.73637267041E+02  0.58389514306E+01 -0.36220050235E+02  0.82270483711E+02  0.00000000000E+00 0. -1.
        -13    1    5    5    0    0 -0.14246478071E+03 -0.91967034742E+02  0.19694410653E+01  0.16958192097E+03  0.00000000000E+00 0.  1.
          1    1    6    6  503    0 -0.41065253705E+03 -0.53175456269E+03 -0.12532656043E+04  0.14219961660E+04  0.00000000000E+00 0. -1.
         -1    1    6    6    0  503 -0.37668628491E+03 -0.51328052673E+03 -0.13891738950E+04  0.15281209268E+04  0.00000000000E+00 0.  1.
<mgrwt>
<rscale>  0 0.35229216E+04</rscale>
<asrwt>0</asrwt>
<pdfrwt beam="1">  1        2 0.63058871E+00 0.35229216E+04</pdfrwt>
<pdfrwt beam="2">  1       -1 0.11645901E+00 0.35229216E+04</pdfrwt>
<totfact> 0.17526291E-01</totfact>
</mgrwt>
</event>
<event>
12    7  0.2492439E-007  0.2810482E+04  0.7818608E-02  0.8300021E-01
          2   -1    0    0  501    0  0.00000000000E+00  0.00000000000E+00  0.12615197676E+04  0.12615197676E+04  0.00000000000E+00 0. -1.
         -1   -1    0    0    0  501 -0.00000000000E+00 -0.00000000000E+00 -0.15653362398E+04  0.15653362398E+04  0.00000000000E+00 0.  1.
         24    2    1    2    0    0 -0.48077611574E+03  0.99604826529E+03 -0.73642534208E+03  0.13310991769E+04  0.79024768530E+02 0.  0.
        254    2    1    2    0    0  0.48077611574E+03 -0.99604826529E+03  0.43260886984E+03  0.14957568306E+04  0.90932955612E+03 0.  0.
         23    2    4    4    0    0 -0.23072553088E+03 -0.31602638562E+03 -0.30668461266E+02  0.40413466044E+03  0.96318857166E+02 0.  0.
         23    2    4    4    0    0  0.71150164662E+03 -0.68002187967E+03  0.46327733111E+03  0.10916221701E+04  0.91371367473E+02 0.  0.
          2    1    3    3  502    0 -0.22230795141E+03  0.46450116183E+03 -0.29573015105E+03  0.59383371144E+03  0.00000000000E+00 0. -1.
         -1    1    3    3    0  502 -0.25846816433E+03  0.53154710346E+03 -0.44069519103E+03  0.73726546546E+03  0.00000000000E+00 0.  1.
         13    1    5    5    0    0 -0.17412248953E+03 -0.17756504645E+03  0.10741365835E+02  0.24892441427E+03  0.00000000000E+00 0. -1.
        -13    1    5    5    0    0 -0.56603041347E+02 -0.13846133917E+03 -0.41409827102E+02  0.15521024617E+03  0.00000000000E+00 0.  1.
          4    1    6    6  503    0  0.40082962264E+03 -0.40768612919E+03  0.22290223021E+03  0.61364303186E+03  0.00000000000E+00 0. -1.
         -4    1    6    6    0  503  0.31067202399E+03 -0.27233575048E+03  0.24037510089E+03  0.47797913825E+03  0.00000000000E+00 0.  1.
<mgrwt>
<rscale>  0 0.28104822E+04</rscale>
<asrwt>0</asrwt>
<pdfrwt beam="1">  1        2 0.19407997E+00 0.28104822E+04</pdfrwt>
<pdfrwt beam="2">  1       -1 0.24082096E+00 0.28104822E+04</pdfrwt>
<totfact> 0.13810413E+00</totfact>
</mgrwt>
</event>
<event>
12    7  0.2492439E-007  0.2495278E+04  0.7818608E-02  0.8404670E-01
         -1   -1    0    0    0  501 -0.00000000000E+00  0.00000000000E+00  0.26293476380E+04  0.26293476380E+04  0.00000000000E+00 0.  1.
          2   -1    0    0  501    0  0.00000000000E+00 -0.00000000000E+00 -0.59201135152E+03  0.59201135152E+03  0.00000000000E+00 0. -1.
         24    2    1    2    0    0 -0.69939295671E+03 -0.44388923448E+03  0.17887078928E+04  0.19728269155E+04  0.79887121654E+02 0.  0.
        254    2    1    2    0    0  0.69939295671E+03  0.44388923448E+03  0.24862839369E+03  0.12485320741E+04  0.90045993885E+03 0.  0.
         23    2    4    4    0    0  0.53743366894E+03 -0.11635689866E+03 -0.95622884754E+02  0.56500120085E+03  0.87799456157E+02 0.  0.
         23    2    4    4    0    0  0.16195928777E+03  0.56024613314E+03  0.34425127844E+03  0.68353087323E+03  0.92730638690E+02 0.  0.
          2    1    3    3  502    0 -0.33622765688E+03 -0.16636517233E+03  0.81048538915E+03  0.89309180595E+03  0.00000000000E+00 0. -1.
         -1    1    3    3    0  502 -0.36316529983E+03 -0.27752406215E+03  0.97822250365E+03  0.10797351095E+04  0.00000000000E+00 0.  1.
         13    1    5    5    0    0  0.12981859840E+03 -0.48056458977E+02  0.88277667981E+01  0.13870912445E+03  0.00000000000E+00 0.  1.
        -13    1    5    5    0    0  0.40761507054E+03 -0.68300439685E+02 -0.10445065155E+03  0.42629207640E+03  0.00000000000E+00 0. -1.
          4    1    6    6  503    0  0.14161248518E+03  0.41452586482E+03  0.29603170524E+03  0.52869703902E+03  0.00000000000E+00 0. -1.
         -4    1    6    6    0  503  0.20346802594E+02  0.14572026832E+03  0.48219573202E+02  0.15483383420E+03  0.00000000000E+00 0.  1.
<mgrwt>
<rscale>  0 0.24952785E+04</rscale>
<asrwt>0</asrwt>
<pdfrwt beam="1">  1        2 0.91078671E-01 0.24952785E+04</pdfrwt>
<pdfrwt beam="2">  1       -1 0.40451502E+00 0.24952785E+04</pdfrwt>
<totfact> 0.34190909E-01</totfact>
</mgrwt>
</event>
<event>
12    7  0.2882501E-007  0.3552275E+04  0.7818608E-02  0.8101512E-01
          2   -1    0    0  501    0  0.00000000000E+00  0.00000000000E+00  0.18903240448E+04  0.18903240448E+04  0.00000000000E+00 0. -1.
         -1   -1    0    0    0  501 -0.00000000000E+00 -0.00000000000E+00 -0.16688486472E+04  0.16688486472E+04  0.00000000000E+00 0.  1.
         24    2    1    2    0    0  0.15183377705E+04 -0.35186231211E+03 -0.47314110176E+03  0.16308788195E+04  0.82137382554E+02 0.  0.
        254    2    1    2    0    0 -0.15183377705E+04  0.35186231211E+03  0.69461649927E+03  0.19282938725E+04  0.89814726293E+03 0.  0.
         23    2    4    4    0    0 -0.57599347945E+02  0.31636476382E+03  0.10769366075E+03  0.35094466691E+03  0.90332087290E+02 0.  0.
         23    2    4    4    0    0 -0.14607384225E+04  0.35497548289E+02  0.58692283851E+03  0.15773492056E+04  0.92386596232E+02 0.  0.
          2    1    3    3  502    0  0.43550980063E+03 -0.78987263601E+02 -0.10288470788E+03  0.45441504968E+03  0.00000000000E+00 0. -1.
         -1    1    3    3    0  502  0.10828279698E+04 -0.27287504851E+03 -0.37025639388E+03  0.11764637698E+04  0.00000000000E+00 0.  1.
         13    1    5    5    0    0 -0.14865864484E+02  0.18422586584E+03  0.18174808957E+02  0.18571614699E+03  0.00000000000E+00 0.  1.
        -13    1    5    5    0    0 -0.42733483461E+02  0.13213889798E+03  0.89518851796E+02  0.16522851992E+03  0.00000000000E+00 0. -1.
          4    1    6    6  503    0 -0.31418872387E+03 -0.14911822170E+02  0.93764299683E+02  0.32822044504E+03  0.00000000000E+00 0. -1.
         -4    1    6    6    0  503 -0.11465496987E+04  0.50409370458E+02  0.49315853883E+03  0.12491287606E+04  0.00000000000E+00 0.  1.
<mgrwt>
<rscale>  0 0.35522752E+04</rscale>
<asrwt>0</asrwt>
<pdfrwt beam="1">  1        2 0.29081908E+00 0.35522752E+04</pdfrwt>
<pdfrwt beam="2">  1       -1 0.25674595E+00 0.35522752E+04</pdfrwt>
<totfact> 0.45087731E-01</totfact>
</mgrwt>
</event>
<event>
12    7  0.2492439E-007  0.1446170E+04  0.7818608E-02  0.8921060E-01
         -1   -1    0    0    0  501 -0.00000000000E+00  0.00000000000E+00  0.82913320191E+03  0.82913320191E+03  0.00000000000E+00 0.  1.
          2   -1    0    0  501    0  0.00000000000E+00 -0.00000000000E+00 -0.63060072917E+03  0.63060072917E+03  0.00000000000E+00 0. -1.
         24    2    1    2    0    0 -0.42369043481E+03  0.50919456330E+02 -0.43900309983E+02  0.43598452384E+03  0.77774624563E+02 0.  0.
        254    2    1    2    0    0  0.42369043481E+03 -0.50919456330E+02  0.24243278272E+03  0.10237494072E+04  0.89843353627E+03 0.  0.
         23    2    4    4    0    0  0.23288767479E+03 -0.33700614018E+03  0.44675801933E+03  0.61336658924E+03  0.93893755800E+02 0.  0.
         23    2    4    4    0    0  0.19080276003E+03  0.28608668385E+03 -0.20432523661E+03  0.41038281799E+03  0.91727700722E+02 0.  0.
          2    1    3    3  502    0 -0.29647381878E+03  0.48185266641E+01 -0.10934031604E+02  0.29671450330E+03  0.00000000000E+00 0. -1.
         -1    1    3    3    0  502 -0.12721661603E+03  0.46100929666E+02 -0.32966278378E+02  0.13927002054E+03  0.00000000000E+00 0.  1.
         13    1    5    5    0    0  0.13604120513E+03 -0.26720130344E+03  0.29951103661E+03  0.42380491633E+03  0.00000000000E+00 0.  1.
        -13    1    5    5    0    0  0.96846469656E+02 -0.69804836731E+02  0.14724698273E+03  0.18956167291E+03  0.00000000000E+00 0. -1.
          1    1    6    6  503    0  0.49384519234E+02  0.15086562816E+03 -0.11029708262E+03  0.19329954717E+03  0.00000000000E+00 0. -1.
         -1    1    6    6    0  503  0.14141824079E+03  0.13522105569E+03 -0.94028153987E+02  0.21708327083E+03  0.00000000000E+00 0.  1.
<mgrwt>
<rscale>  0 0.14461701E+04</rscale>
<asrwt>0</asrwt>
<pdfrwt beam="1">  1        2 0.97015497E-01 0.14461701E+04</pdfrwt>
<pdfrwt beam="2">  1       -1 0.12755895E+00 0.14461701E+04</pdfrwt>
<totfact> 0.27527309E+01</totfact>
</mgrwt>
</event>
<event>
12    7  0.2492439E-007  0.1615121E+04  0.7818608E-02  0.8811312E-01
         -1   -1    0    0    0  501 -0.00000000000E+00  0.00000000000E+00  0.80342419445E+03  0.80342419445E+03  0.00000000000E+00 0.  1.
          2   -1    0    0  501    0  0.00000000000E+00 -0.00000000000E+00 -0.81171788681E+03  0.81171788681E+03  0.00000000000E+00 0. -1.
         24    2    1    2    0    0  0.50761646159E+03 -0.21307039699E+03 -0.60922473603E+02  0.55958787967E+03  0.79709354108E+02 0.  0.
        254    2    1    2    0    0 -0.50761646159E+03  0.21307039699E+03  0.52628781242E+02  0.10555542016E+04  0.89908365445E+03 0.  0.
         23    2    4    4    0    0 -0.52485026877E+03  0.92278144697E+02 -0.33709860933E+03  0.63730817336E+03  0.92429296260E+02 0.  0.
         23    2    4    4    0    0  0.17233807173E+02  0.12079225229E+03  0.38972739057E+03  0.41824602822E+03  0.90302429873E+02 0.  0.
          4    1    3    3  502    0  0.88596942964E+02 -0.47875459985E+02  0.18049787283E+02  0.10230969061E+03  0.00000000000E+00 0. -1.
         -3    1    3    3    0  502  0.41901951863E+03 -0.16519493700E+03 -0.78972260886E+02  0.45727818906E+03  0.00000000000E+00 0.  1.
         13    1    5    5    0    0 -0.39166248664E+02 -0.16249853005E+02 -0.36187960048E+02  0.55746042097E+02  0.00000000000E+00 0. -1.
        -13    1    5    5    0    0 -0.48568402010E+03  0.10852799770E+03 -0.30091064928E+03  0.58156213126E+03  0.00000000000E+00 0.  1.
          4    1    6    6  503    0  0.99446907837E+01  0.11666915337E+03  0.39236651208E+03  0.40946558832E+03  0.00000000000E+00 0.  1.
         -4    1    6    6    0  503  0.72891163893E+01  0.41230989198E+01 -0.26391215088E+01  0.87804398966E+01  0.00000000000E+00 0. -1.
<mgrwt>
<rscale>  0 0.16151208E+04</rscale>
<asrwt>0</asrwt>
<pdfrwt beam="1">  1        2 0.12487967E+00 0.16151208E+04</pdfrwt>
<pdfrwt beam="2">  1       -1 0.12360372E+00 0.16151208E+04</pdfrwt>
<totfact> 0.21263347E+01</totfact>
</mgrwt>
</event>
<event>
12    7  0.2492439E-007  0.2833842E+04  0.7818608E-02  0.8292838E-01
          2   -1    0    0  501    0  0.00000000000E+00  0.00000000000E+00  0.34271781001E+04  0.34271781001E+04  0.00000000000E+00 0. -1.
         -1   -1    0    0    0  501 -0.00000000000E+00 -0.00000000000E+00 -0.58580710208E+03  0.58580710208E+03  0.00000000000E+00 0.  1.
         24    2    1    2    0    0  0.12298364926E+04 -0.20944499279E+03  0.16323380209E+04  0.20562459987E+04  0.85177400908E+02 0.  0.
        254    2    1    2    0    0 -0.12298364926E+04  0.20944499279E+03  0.12090329772E+04  0.19567392035E+04  0.90039023038E+03 0.  0.
         23    2    4    4    0    0 -0.15655456647E+03  0.27891154957E+03 -0.48052398710E+01  0.33254452805E+03  0.90894378472E+02 0.  0.
         23    2    4    4    0    0 -0.10732819261E+04 -0.69466556779E+02  0.12138382171E+04  0.16241946754E+04  0.88574437816E+02 0.  0.
          4    1    3    3  502    0  0.69830375315E+03 -0.15051896820E+03  0.88655032693E+03  0.11385322014E+04  0.00000000000E+00 0. -1.
         -3    1    3    3    0  502  0.53153273940E+03 -0.58926024596E+02  0.74578769392E+03  0.91771379735E+03  0.00000000000E+00 0.  1.
         13    1    5    5    0    0 -0.48755892436E+01  0.12575210108E+02  0.21003401057E+02  0.24960972250E+02  0.00000000000E+00 0.  1.
        -13    1    5    5    0    0 -0.15167897722E+03  0.26633633946E+03 -0.25808640927E+02  0.30758355580E+03  0.00000000000E+00 0. -1.
          4    1    6    6  503    0 -0.99378142451E+03 -0.60474464399E+02  0.11549595332E+04  0.15248574372E+04  0.00000000000E+00 0. -1.
         -4    1    6    6    0  503 -0.79500501582E+02 -0.89920923801E+01  0.58878683916E+02  0.99337238218E+02  0.00000000000E+00 0.  1.
<mgrwt>
<rscale>  0 0.28338421E+04</rscale>
<asrwt>0</asrwt>
<pdfrwt beam="1">  1        2 0.52725815E+00 0.28338421E+04</pdfrwt>
<pdfrwt beam="2">  1       -1 0.90124172E-01 0.28338421E+04</pdfrwt>
<totfact> 0.10842960E+00</totfact>
</mgrwt>
</event>
<event>
12    7  0.2492439E-007  0.2249953E+04  0.7818608E-02  0.8497919E-01
          2   -1    0    0  501    0  0.00000000000E+00  0.00000000000E+00  0.10150976437E+04  0.10150976437E+04  0.00000000000E+00 0. -1.
         -1   -1    0    0    0  501 -0.00000000000E+00 -0.00000000000E+00 -0.12467494073E+04  0.12467494073E+04  0.00000000000E+00 0.  1.
         24    2    1    2    0    0 -0.42907375756E+03 -0.78289339267E+03 -0.41285443736E+03  0.98709790143E+03  0.82988715131E+02 0.  0.
        254    2    1    2    0    0  0.42907375756E+03  0.78289339267E+03  0.18120267378E+03  0.12747491495E+04  0.89169761214E+03 0.  0.
         23    2    4    4    0    0 -0.18343468691E+03 -0.58065610692E+02 -0.10979296783E+02  0.21290420413E+03  0.90486218132E+02 0.  0.
         23    2    4    4    0    0  0.61250844447E+03  0.84095900336E+03  0.19218197056E+03  0.10618449454E+04  0.90565657736E+02 0.  0.
          4    1    3    3  502    0 -0.57200904767E+02 -0.15960123205E+03 -0.57927875564E+02  0.17916510695E+03  0.00000000000E+00 0. -1.
         -3    1    3    3    0  502 -0.37187285279E+03 -0.62329216062E+03 -0.35492656179E+03  0.80793279448E+03  0.00000000000E+00 0.  1.
         13    1    5    5    0    0 -0.27359285424E+02 -0.47872719224E+02 -0.12283804969E+02  0.56490880763E+02  0.00000000000E+00 0.  1.
        -13    1    5    5    0    0 -0.15607540148E+03 -0.10192891468E+02  0.13045081867E+01  0.15641332337E+03  0.00000000000E+00 0. -1.
          2    1    6    6  503    0  0.57176983963E+03  0.74683024880E+03  0.15811942397E+03  0.95377037188E+03  0.00000000000E+00 0. -1.
         -2    1    6    6    0  503  0.40738604834E+02  0.94128754568E+02  0.34062546590E+02  0.10807457352E+03  0.00000000000E+00 0.  1.
<mgrwt>
<rscale>  0 0.22499532E+04</rscale>
<asrwt>0</asrwt>
<pdfrwt beam="1">  1        2 0.15616887E+00 0.22499532E+04</pdfrwt>
<pdfrwt beam="2">  1       -1 0.19180760E+00 0.22499532E+04</pdfrwt>
<totfact> 0.43883757E+00</totfact>
</mgrwt>
</event>
<event>
12    7  0.2492439E-007  0.1753108E+04  0.7818608E-02  0.8731641E-01
          2   -1    0    0  501    0  0.00000000000E+00  0.00000000000E+00  0.32458188123E+04  0.32458188123E+04  0.00000000000E+00 0. -1.
         -1   -1    0    0    0  501 -0.00000000000E+00 -0.00000000000E+00 -0.23671904136E+03  0.23671904136E+03  0.00000000000E+00 0.  1.
         24    2    1    2    0    0  0.22834878570E+03 -0.31083196787E+03  0.21314152159E+04  0.21674306910E+04  0.77880019047E+02 0.  0.
        254    2    1    2    0    0 -0.22834878570E+03  0.31083196787E+03  0.87768455506E+03  0.13151071627E+04  0.90023163190E+03 0.  0.
         23    2    4    4    0    0 -0.72574558283E+02  0.61332480759E+03  0.60914748330E+03  0.87216945766E+03  0.90468338885E+02 0.  0.
         23    2    4    4    0    0 -0.15577422741E+03 -0.30249283972E+03  0.26853707176E+03  0.44293770506E+03  0.91181816410E+02 0.  0.
          4    1    3    3  502    0  0.19770725261E+03 -0.22200305645E+03  0.17120061424E+04  0.17376243974E+04  0.00000000000E+00 0. -1.
         -3    1    3    3    0  502  0.30641533087E+02 -0.88828911423E+02  0.41940907353E+03  0.42980629360E+03  0.00000000000E+00 0.  1.
         13    1    5    5    0    0 -0.10526356957E+02  0.26408475198E+03  0.20529135484E+03  0.33465818501E+03  0.00000000000E+00 0.  1.
        -13    1    5    5    0    0 -0.62048201326E+02  0.34924005561E+03  0.40385612846E+03  0.53751127265E+03  0.00000000000E+00 0. -1.
          2    1    6    6  503    0 -0.10526775108E+03 -0.20052243224E+03  0.12148887674E+03  0.25700212532E+03  0.00000000000E+00 0. -1.
         -2    1    6    6    0  503 -0.50506476331E+02 -0.10197040749E+03  0.14704819501E+03  0.18593557974E+03  0.00000000000E+00 0.  1.
<mgrwt>
<rscale>  0 0.17531082E+04</rscale>
<asrwt>0</asrwt>
<pdfrwt beam="1">  1        2 0.49935671E+00 0.17531082E+04</pdfrwt>
<pdfrwt beam="2">  1       -1 0.36418316E-01 0.17531082E+04</pdfrwt>
<totfact> 0.94908318E+00</totfact>
</mgrwt>
</event>
<event>
12    7  0.2492439E-007  0.1962669E+04  0.7818608E-02  0.8624276E-01
          2   -1    0    0  501    0  0.00000000000E+00  0.00000000000E+00  0.77945676705E+03  0.77945676705E+03  0.00000000000E+00 0. -1.
         -1   -1    0    0    0  501 -0.00000000000E+00 -0.00000000000E+00 -0.12354983011E+04  0.12354983011E+04  0.00000000000E+00 0.  1.
         24    2    1    2    0    0  0.71641034556E+03  0.22766012239E+03 -0.35700593303E+03  0.83601140662E+03  0.79930727701E+02 0.  0.
        254    2    1    2    0    0 -0.71641034556E+03 -0.22766012239E+03 -0.99035601059E+02  0.11789436616E+04  0.90278856458E+03 0.  0.
         23    2    4    4    0    0 -0.72547529531E+03 -0.15759364547E+03  0.26630432555E+03  0.79408884743E+03  0.92243929987E+02 0.  0.
         23    2    4    4    0    0  0.90649497519E+01 -0.70066476919E+02 -0.36533992661E+03  0.38485481414E+03  0.98226684203E+02 0.  0.
          4    1    3    3  502    0  0.11083907836E+03  0.14733921530E+02 -0.30863653762E+02  0.11599549499E+03  0.00000000000E+00 0. -1.
         -3    1    3    3    0  502  0.60557126720E+03  0.21292620086E+03 -0.32614227927E+03  0.72001591163E+03  0.00000000000E+00 0.  1.
         13    1    5    5    0    0 -0.56492059243E+03 -0.90715197733E+02  0.17916278779E+03  0.59955302300E+03  0.00000000000E+00 0. -1.
        -13    1    5    5    0    0 -0.16055470287E+03 -0.66878447736E+02  0.87141537762E+02  0.19453582444E+03  0.00000000000E+00 0.  1.
          2    1    6    6  503    0  0.11405010108E+02 -0.85342627667E+02 -0.35711511687E+03  0.36734812515E+03  0.00000000000E+00 0. -1.
         -2    1    6    6    0  503 -0.23400603557E+01  0.15276150749E+02 -0.82248097377E+01  0.17506688990E+02  0.00000000000E+00 0.  1.
<mgrwt>
<rscale>  0 0.19626691E+04</rscale>
<asrwt>0</asrwt>
<pdfrwt beam="1">  1        2 0.11991643E+00 0.19626691E+04</pdfrwt>
<pdfrwt beam="2">  1       -1 0.19007666E+00 0.19626691E+04</pdfrwt>
<totfact> 0.66920421E+00</totfact>
</mgrwt>
</event>
<event>
12    7  0.2492439E-007  0.2443682E+04  0.7818608E-02  0.8423328E-01
         -3   -1    0    0    0  501 -0.00000000000E+00  0.00000000000E+00  0.45934823727E+03  0.45934823727E+03  0.00000000000E+00 0.  1.
          2   -1    0    0  501    0  0.00000000000E+00 -0.00000000000E+00 -0.32500305623E+04  0.32500305623E+04  0.00000000000E+00 0. -1.
         24    2    1    2    0    0  0.66141083047E+01 -0.78784798175E+03 -0.22673231878E+04  0.24016230357E+04  0.79313169066E+02 0.  0.
        254    2    1    2    0    0 -0.66141083047E+01  0.78784798175E+03 -0.52335913717E+03  0.13077557638E+04  0.90309034023E+03 0.  0.
         23    2    4    4    0    0 -0.31845896389E+03  0.58601451591E+03 -0.17492208998E+02  0.67324267838E+03  0.90114383275E+02 0.  0.
         23    2    4    4    0    0  0.31184485559E+03  0.20183346584E+03 -0.50586692818E+03  0.63451308546E+03  0.93389210869E+02 0.  0.
          4    1    3    3  502    0  0.32789021176E+02 -0.40758431141E+03 -0.10925633591E+04  0.11665739515E+04  0.00000000000E+00 0. -1.
         -3    1    3    3    0  502 -0.26174912871E+02 -0.38026367034E+03 -0.11747598288E+04  0.12350490842E+04  0.00000000000E+00 0.  1.
         13    1    5    5    0    0 -0.17878851681E+03  0.36617574790E+03  0.29593608608E+02  0.40856553179E+03  0.00000000000E+00 0. -1.
        -13    1    5    5    0    0 -0.13967044708E+03  0.21983876801E+03 -0.47085817606E+02  0.26467714659E+03  0.00000000000E+00 0.  1.
          3    1    6    6  503    0  0.14443454761E+03  0.10646557401E+03 -0.31961176219E+03  0.36653503996E+03  0.00000000000E+00 0. -1.
         -3    1    6    6    0  503  0.16741030798E+03  0.95367891831E+02 -0.18625516599E+03  0.26797804550E+03  0.00000000000E+00 0.  1.
<mgrwt>
<rscale>  0 0.24436823E+04</rscale>
<asrwt>0</asrwt>
<pdfrwt beam="1">  1        2 0.50000472E+00 0.24436823E+04</pdfrwt>
<pdfrwt beam="2">  1       -3 0.70668957E-01 0.24436823E+04</pdfrwt>
<totfact> 0.13254998E+00</totfact>
</mgrwt>
</event>
<event>
12    7  0.2492439E-007  0.1481128E+04  0.7818608E-02  0.8897101E-01
         -1   -1    0    0    0  501 -0.00000000000E+00  0.00000000000E+00  0.47636287981E+03  0.47636287981E+03  0.00000000000E+00 0.  1.
          2   -1    0    0  501    0  0.00000000000E+00 -0.00000000000E+00 -0.11512962091E+04  0.11512962091E+04  0.00000000000E+00 0. -1.
         24    2    1    2    0    0 -0.25137636927E+03  0.62925093485E+01  0.21243830061E+03  0.33942169601E+03  0.82748906045E+02 0.  0.
        254    2    1    2    0    0  0.25137636927E+03 -0.62925093485E+01 -0.88737162995E+03  0.12882373929E+04  0.89938728934E+03 0.  0.
         23    2    4    4    0    0 -0.97268616798E+02  0.34946586051E+03 -0.59806786233E+03  0.70539915542E+03  0.91187877664E+02 0.  0.
         23    2    4    4    0    0  0.34864498607E+03 -0.35575836986E+03 -0.28930376761E+03  0.58283823752E+03  0.88805389049E+02 0.  0.
          2    1    3    3  502    0 -0.90556744697E+02  0.40414352499E+02  0.64808557570E+02  0.11846515535E+03  0.00000000000E+00 0. -1.
         -1    1    3    3    0  502 -0.16081962458E+03 -0.34121843150E+02  0.14762974304E+03  0.22095654066E+03  0.00000000000E+00 0.  1.
         13    1    5    5    0    0  0.36485917509E+01  0.11362653267E+03 -0.13949592987E+03  0.17995392633E+03  0.00000000000E+00 0. -1.
        -13    1    5    5    0    0 -0.10091720855E+03  0.23583932784E+03 -0.45857193246E+03  0.52544522909E+03  0.00000000000E+00 0.  1.
          3    1    6    6  503    0  0.43146750400E+02 -0.50760042302E+02 -0.68816255349E+01  0.66974478233E+02  0.00000000000E+00 0. -1.
         -3    1    6    6    0  503  0.30549823567E+03 -0.30499832756E+03 -0.28242214208E+03  0.51586375929E+03  0.00000000000E+00 0.  1.
<mgrwt>
<rscale>  0 0.14811276E+04</rscale>
<asrwt>0</asrwt>
<pdfrwt beam="1">  1        2 0.17712249E+00 0.14811276E+04</pdfrwt>
<pdfrwt beam="2">  1       -1 0.73286598E-01 0.14811276E+04</pdfrwt>
<totfact> 0.41961144E+01</totfact>
</mgrwt>
</event>
<event>
12    7  0.2492439E-007  0.2205030E+04  0.7818608E-02  0.8516337E-01
         -1   -1    0    0    0  501 -0.00000000000E+00  0.00000000000E+00  0.78041389003E+03  0.78041389003E+03  0.00000000000E+00 0.  1.
          2   -1    0    0  501    0  0.00000000000E+00 -0.00000000000E+00 -0.15575577472E+04  0.15575577472E+04  0.00000000000E+00 0. -1.
         24    2    1    2    0    0  0.20008410556E+03  0.81666230417E+03 -0.71165952315E+03  0.11044950445E+04  0.80492597117E+02 0.  0.
        254    2    1    2    0    0 -0.20008410556E+03 -0.81666230417E+03 -0.65484334019E+02  0.12334765927E+04  0.90011406962E+03 0.  0.
         23    2    4    4    0    0 -0.31718805506E+03  0.74925286561E+01  0.15926200714E+03  0.36605829512E+03  0.89274230595E+02 0.  0.
         23    2    4    4    0    0  0.11710394950E+03 -0.82415483282E+03 -0.22474634116E+03  0.86741829755E+03  0.94652319645E+02 0.  0.
          4    1    3    3  502    0  0.19172088329E+03  0.68004426351E+03 -0.61749082284E+03  0.93835601650E+03  0.00000000000E+00 0. -1.
         -3    1    3    3    0  502  0.83632222708E+01  0.13661804066E+03 -0.94168700310E+02  0.16613902804E+03  0.00000000000E+00 0.  1.
         13    1    5    5    0    0 -0.60248515227E+02  0.30801007148E+02  0.11168584786E+02  0.68580776567E+02  0.00000000000E+00 0. -1.
        -13    1    5    5    0    0 -0.25693953984E+03 -0.23308478492E+02  0.14809342235E+03  0.29747751855E+03  0.00000000000E+00 0.  1.
          1    1    6    6  503    0  0.15124923152E+02 -0.35430220798E+03 -0.63205017707E+02  0.36021339806E+03  0.00000000000E+00 0. -1.
         -1    1    6    6    0  503  0.10197902635E+03 -0.46985262484E+03 -0.16154132345E+03  0.50720489949E+03  0.00000000000E+00 0.  1.
<mgrwt>
<rscale>  0 0.22050303E+04</rscale>
<asrwt>0</asrwt>
<pdfrwt beam="1">  1        2 0.23962427E+00 0.22050303E+04</pdfrwt>
<pdfrwt beam="2">  1       -1 0.12006368E+00 0.22050303E+04</pdfrwt>
<totfact> 0.75803420E+00</totfact>
</mgrwt>
</event>
<event>
12    7  0.2492439E-007  0.3553570E+04  0.7818608E-02  0.8101211E-01
         -1   -1    0    0    0  501 -0.00000000000E+00  0.00000000000E+00  0.99220468820E+03  0.99220468820E+03  0.00000000000E+00 0.  1.
          2   -1    0    0  501    0  0.00000000000E+00 -0.00000000000E+00 -0.31817683566E+04  0.31817683566E+04  0.00000000000E+00 0. -1.
         24    2    1    2    0    0 -0.10724326926E+04 -0.11438382198E+04 -0.37847135331E+03  0.16148251122E+04  0.77083229960E+02 0.  0.
        254    2    1    2    0    0  0.10724326926E+04  0.11438382198E+04 -0.18110923151E+04  0.25591479326E+04  0.90039158929E+03 0.  0.
         23    2    4    4    0    0  0.16206855595E+03  0.32168054356E+03 -0.18566639990E+01  0.37176135072E+03  0.91969917690E+02 0.  0.
         23    2    4    4    0    0  0.91036413665E+03  0.82215767625E+03 -0.18092356511E+04  0.21873865819E+04  0.81365297370E+02 0.  0.
          4    1    3    3  502    0 -0.29618880538E+03 -0.33221657910E+03 -0.14146271217E+03  0.46701965997E+03  0.00000000000E+00 0. -1.
         -3    1    3    3    0  502 -0.77624388722E+03 -0.81162164071E+03 -0.23700864113E+03  0.11478054522E+04  0.00000000000E+00 0.  1.
         13    1    5    5    0    0 -0.11975309794E+02  0.22963239643E+02  0.24430068552E+01  0.26013202457E+02  0.00000000000E+00 0. -1.
        -13    1    5    5    0    0  0.17404386574E+03  0.29871730391E+03 -0.42996708542E+01  0.34574814826E+03  0.00000000000E+00 0.  1.
          3    1    6    6  503    0  0.22836651934E+03  0.25334390112E+03 -0.52033229406E+03  0.62215761318E+03  0.00000000000E+00 0. -1.
         -3    1    6    6    0  503  0.68199761731E+03  0.56881377513E+03 -0.12889033570E+04  0.15652289687E+04  0.00000000000E+00 0.  1.
<mgrwt>
<rscale>  0 0.35535703E+04</rscale>
<asrwt>0</asrwt>
<pdfrwt beam="1">  1        2 0.48950283E+00 0.35535703E+04</pdfrwt>
<pdfrwt beam="2">  1       -1 0.15264687E+00 0.35535703E+04</pdfrwt>
<totfact> 0.41151182E-01</totfact>
</mgrwt>
</event>
<event>
12    7  0.2492439E-007  0.2651296E+04  0.7818608E-02  0.8350983E-01
         -1   -1    0    0    0  501 -0.00000000000E+00  0.00000000000E+00  0.10966125055E+04  0.10966125055E+04  0.00000000000E+00 0.  1.
          2   -1    0    0  501    0  0.00000000000E+00 -0.00000000000E+00 -0.16025194069E+04  0.16025194069E+04  0.00000000000E+00 0. -1.
         24    2    1    2    0    0  0.20989146808E+03 -0.10728081976E+04  0.20342620512E+03  0.11162742025E+04  0.98559712905E+02 0.  0.
        254    2    1    2    0    0 -0.20989146808E+03  0.10728081976E+04 -0.70933310655E+03  0.15828577099E+04  0.89850610261E+03 0.  0.
         23    2    4    4    0    0  0.33602440484E+03  0.56252997020E+03 -0.30990381292E+03  0.73055847084E+03  0.91230137738E+02 0.  0.
         23    2    4    4    0    0 -0.54591587292E+03  0.51027822742E+03 -0.39942929363E+03  0.85229923905E+03  0.91990339593E+02 0.  0.
          4    1    3    3  502    0  0.20027436767E+03 -0.85462255362E+03  0.14013783327E+03  0.88889152534E+03  0.00000000000E+00 0. -1.
         -3    1    3    3    0  502  0.96171004158E+01 -0.21818564400E+03  0.63288371848E+02  0.22738267718E+03  0.00000000000E+00 0.  1.
         13    1    5    5    0    0  0.14718654861E+03  0.16556203484E+03 -0.11659873856E+03  0.25033963591E+03  0.00000000000E+00 0. -1.
        -13    1    5    5    0    0  0.18883785623E+03  0.39696793537E+03 -0.19330507436E+03  0.48021883494E+03  0.00000000000E+00 0.  1.
          1    1    6    6  503    0 -0.50364773283E+03  0.48342120728E+03 -0.34627905565E+03  0.77927292191E+03  0.00000000000E+00 0. -1.
         -1    1    6    6    0  503 -0.42268140093E+02  0.26857020139E+02 -0.53150237977E+02  0.73026317138E+02  0.00000000000E+00 0.  1.
<mgrwt>
<rscale>  0 0.26512962E+04</rscale>
<asrwt>0</asrwt>
<pdfrwt beam="1">  1        2 0.24654144E+00 0.26512962E+04</pdfrwt>
<pdfrwt beam="2">  1       -1 0.16870962E+00 0.26512962E+04</pdfrwt>
<totfact> 0.28040796E+00</totfact>
</mgrwt>
</event>
<event>
12    7  0.2492439E-007  0.3858719E+04  0.7818608E-02  0.8033670E-01
         -1   -1    0    0    0  501 -0.00000000000E+00  0.00000000000E+00  0.14342759012E+04  0.14342759012E+04  0.00000000000E+00 0.  1.
          2   -1    0    0  501    0  0.00000000000E+00 -0.00000000000E+00 -0.25953358831E+04  0.25953358831E+04  0.00000000000E+00 0. -1.
         24    2    1    2    0    0 -0.77887821602E+03  0.16417946547E+04 -0.70374810101E+03  0.19505633507E+04  0.85410958563E+02 0.  0.
        254    2    1    2    0    0  0.77887821602E+03 -0.16417946547E+04 -0.45731188087E+03  0.20790484336E+04  0.90064824934E+03 0.  0.
         23    2    4    4    0    0  0.23008910386E+03  0.43709727779E+02 -0.63788024983E+02  0.26104602514E+03  0.96044672385E+02 0.  0.
         23    2    4    4    0    0  0.54878911217E+03 -0.16855043825E+04 -0.39352385589E+03  0.18180024084E+04  0.90427975758E+02 0.  0.
          4    1    3    3  502    0 -0.20266965984E+03  0.42114360437E+03 -0.14143092813E+03  0.48830280969E+03  0.00000000000E+00 0. -1.
         -3    1    3    3    0  502 -0.57620855618E+03  0.12206510504E+04 -0.56231717288E+03  0.14622605410E+04  0.00000000000E+00 0.  1.
         13    1    5    5    0    0  0.21288526573E+03  0.30493174777E+02 -0.24872060424E+02  0.21649154593E+03  0.00000000000E+00 0.  1.
        -13    1    5    5    0    0  0.17203838131E+02  0.13216553002E+02 -0.38915964559E+02  0.44554479205E+02  0.00000000000E+00 0. -1.
          3    1    6    6  503    0  0.26439195121E+03 -0.85109860179E+03 -0.15321011849E+03  0.90429269279E+03  0.00000000000E+00 0. -1.
         -3    1    6    6    0  503  0.28439716095E+03 -0.83440578073E+03 -0.24031373740E+03  0.91370971564E+03  0.00000000000E+00 0.  1.
<mgrwt>
<rscale>  0 0.38587188E+04</rscale>
<asrwt>0</asrwt>
<pdfrwt beam="1">  1        2 0.39928244E+00 0.38587188E+04</pdfrwt>
<pdfrwt beam="2">  1       -1 0.22065783E+00 0.38587188E+04</pdfrwt>
<totfact> 0.30248699E-01</totfact>
</mgrwt>
</event>
<event>
12    7  0.2492439E-007  0.2814797E+04  0.7818608E-02  0.8298689E-01
          2   -1    0    0  501    0  0.00000000000E+00  0.00000000000E+00  0.20831268279E+04  0.20831268279E+04  0.00000000000E+00 0. -1.
         -1   -1    0    0    0  501 -0.00000000000E+00 -0.00000000000E+00 -0.95086434307E+03  0.95086434307E+03  0.00000000000E+00 0.  1.
         24    2    1    2    0    0  0.71060427887E+03  0.82766221521E+03  0.11912896205E+04  0.16172848566E+04  0.80350256545E+02 0.  0.
        254    2    1    2    0    0 -0.71060427887E+03 -0.82766221521E+03 -0.59027135681E+02  0.14167063144E+04  0.90199190398E+03 0.  0.
         23    2    4    4    0    0 -0.52358020371E+00 -0.67669619169E+03 -0.22439558718E+01  0.68261488641E+03  0.89666257995E+02 0.  0.
         23    2    4    4    0    0 -0.71008069867E+03 -0.15096602352E+03 -0.56783179809E+02  0.73409142798E+03  0.93062109636E+02 0.  0.
          4    1    3    3  502    0  0.42022052268E+03  0.51149572281E+03  0.77607791789E+03  0.10200539676E+04  0.00000000000E+00 0. -1.
         -3    1    3    3    0  502  0.29038375619E+03  0.31616649240E+03  0.41521170260E+03  0.59723088898E+03  0.00000000000E+00 0.  1.
         13    1    5    5    0    0 -0.22932656440E+02 -0.76148253341E+02  0.17073559222E+02  0.81338611020E+02  0.00000000000E+00 0. -1.
        -13    1    5    5    0    0  0.22409076237E+02 -0.60054793835E+03 -0.19317515094E+02  0.60127627539E+03  0.00000000000E+00 0.  1.
          1    1    6    6  503    0 -0.13682950722E+03 -0.40495979497E+02 -0.46911404422E+02  0.15020958114E+03  0.00000000000E+00 0. -1.
         -1    1    6    6    0  503 -0.57325119144E+03 -0.11047004402E+03 -0.98717753872E+01  0.58388184684E+03  0.00000000000E+00 0.  1.
<mgrwt>
<rscale>  0 0.28147973E+04</rscale>
<asrwt>0</asrwt>
<pdfrwt beam="1">  1        2 0.32048105E+00 0.28147973E+04</pdfrwt>
<pdfrwt beam="2">  1       -1 0.14628682E+00 0.28147973E+04</pdfrwt>
<totfact> 0.22152301E+00</totfact>
</mgrwt>
</event>
<event>
12    7  0.3173136E-007  0.2328375E+04  0.7818608E-02  0.8466816E-01
          2   -1    0    0  501    0  0.00000000000E+00  0.00000000000E+00  0.17833378419E+04  0.17833378419E+04  0.00000000000E+00 0. -1.
         -1   -1    0    0    0  501 -0.00000000000E+00 -0.00000000000E+00 -0.75999786514E+03  0.75999786514E+03  0.00000000000E+00 0.  1.
         24    2    1    2    0    0 -0.73759457374E+03  0.65794582703E+03  0.40435168874E+03  0.10701574593E+04  0.69269278518E+02 0.  0.
        254    2    1    2    0    0  0.73759457374E+03 -0.65794582703E+03  0.61898828803E+03  0.14731782478E+04  0.90009398535E+03 0.  0.
         23    2    4    4    0    0  0.50707074484E+03 -0.24940245038E+03  0.78101100057E+03  0.96858352489E+03  0.94093247068E+02 0.  0.
         23    2    4    4    0    0  0.23052382890E+03 -0.40854337664E+03 -0.16202271255E+03  0.50459472287E+03  0.91189630336E+02 0.  0.
          2    1    3    3  502    0 -0.54005773743E+03  0.49857159083E+03  0.32991216632E+03  0.80565378943E+03  0.00000000000E+00 0. -1.
         -1    1    3    3    0  502 -0.19753683632E+03  0.15937423620E+03  0.74439522417E+02  0.26450366985E+03  0.00000000000E+00 0.  1.
         13    1    5    5    0    0  0.31728741655E+03 -0.11380856835E+03  0.41617505730E+03  0.53556080257E+03  0.00000000000E+00 0.  1.
        -13    1    5    5    0    0  0.18978332829E+03 -0.13559388204E+03  0.36483594327E+03  0.43302272232E+03  0.00000000000E+00 0. -1.
          1    1    6    6  503    0  0.13171426923E+03 -0.19035974241E+03 -0.12230462946E+03  0.26180890481E+03  0.00000000000E+00 0. -1.
         -1    1    6    6    0  503  0.98809559671E+02 -0.21818363423E+03 -0.39718083083E+02  0.24278581806E+03  0.00000000000E+00 0.  1.
<mgrwt>
<rscale>  0 0.23283754E+04</rscale>
<asrwt>0</asrwt>
<pdfrwt beam="1">  1        2 0.27435967E+00 0.23283754E+04</pdfrwt>
<pdfrwt beam="2">  1       -1 0.11692275E+00 0.23283754E+04</pdfrwt>
<totfact> 0.59863148E+00</totfact>
</mgrwt>
</event>
<event>
12    7  0.2492439E-007  0.4768780E+04  0.7818608E-02  0.7865200E-01
          2   -1    0    0  501    0  0.00000000000E+00  0.00000000000E+00  0.16196788874E+04  0.16196788874E+04  0.00000000000E+00 0. -1.
         -1   -1    0    0    0  501 -0.00000000000E+00 -0.00000000000E+00 -0.35101505997E+04  0.35101505997E+04  0.00000000000E+00 0.  1.
         24    2    1    2    0    0  0.20499944965E+04  0.10224455253E+04 -0.11177401798E+04  0.25502643205E+04  0.81441432551E+02 0.  0.
        254    2    1    2    0    0 -0.20499944965E+04 -0.10224455253E+04 -0.77273153261E+03  0.25795651667E+04  0.89953884844E+03 0.  0.
         23    2    4    4    0    0 -0.67630162369E+03 -0.69709762649E+02 -0.57382013362E+03  0.89367216770E+03  0.84481124291E+02 0.  0.
         23    2    4    4    0    0 -0.13736928728E+04 -0.95273576263E+03 -0.19891139899E+03  0.16858929990E+04  0.89061311351E+02 0.  0.
          2    1    3    3  502    0  0.13236155951E+04  0.67587486714E+03 -0.76522847655E+03  0.16716278596E+04  0.00000000000E+00 0. -1.
         -1    1    3    3    0  502  0.72637890139E+03  0.34657065814E+03 -0.35251170320E+03  0.87863646086E+03  0.00000000000E+00 0.  1.
         13    1    5    5    0    0  0.80490725505E+00 -0.10672319137E+01 -0.94239341583E+01  0.95182663688E+01  0.00000000000E+00 0. -1.
        -13    1    5    5    0    0 -0.67710653094E+03 -0.68642530735E+02 -0.56439619946E+03  0.88415390133E+03  0.00000000000E+00 0.  1.
          3    1    6    6  503    0 -0.98897044077E+03 -0.66092623346E+03 -0.17639165551E+03  0.12024974158E+04  0.00000000000E+00 0. -1.
         -3    1    6    6    0  503 -0.38472243204E+03 -0.29180952917E+03 -0.22519743475E+02  0.48339558322E+03  0.00000000000E+00 0.  1.
<mgrwt>
<rscale>  0 0.47687805E+04</rscale>
<asrwt>0</asrwt>
<pdfrwt beam="1">  1        2 0.24918137E+00 0.47687805E+04</pdfrwt>
<pdfrwt beam="2">  1       -1 0.54002317E+00 0.47687805E+04</pdfrwt>
<totfact> 0.78823840E-03</totfact>
</mgrwt>
</event>
<event>
12    7  0.2492439E-007  0.2711553E+04  0.7818608E-02  0.8331266E-01
          2   -1    0    0  501    0  0.00000000000E+00  0.00000000000E+00  0.17557203394E+04  0.17557203394E+04  0.00000000000E+00 0. -1.
         -1   -1    0    0    0  501 -0.00000000000E+00 -0.00000000000E+00 -0.10469378717E+04  0.10469378717E+04  0.00000000000E+00 0.  1.
         24    2    1    2    0    0 -0.20593692647E+03  0.11868795739E+04  0.34959942238E+03  0.12567602817E+04  0.78316721884E+02 0.  0.
        254    2    1    2    0    0  0.20593692647E+03 -0.11868795739E+04  0.35918304533E+03  0.15458979293E+04  0.89983043236E+03 0.  0.
         23    2    4    4    0    0 -0.35239539063E+02  0.11313185356E+03 -0.55382900071E+02  0.15722591368E+03  0.87247240110E+02 0.  0.
         23    2    4    4    0    0  0.24117646553E+03 -0.13000114275E+04  0.41456594540E+03  0.13886720156E+04  0.91374201425E+02 0.  0.
          4    1    3    3  502    0 -0.41430688101E+02  0.15042743809E+03  0.23184934555E+02  0.15774174221E+03  0.00000000000E+00 0. -1.
         -3    1    3    3    0  502 -0.16450623837E+03  0.10364521359E+04  0.32641448782E+03  0.10990185395E+04  0.00000000000E+00 0.  1.
         13    1    5    5    0    0 -0.29978854938E+01  0.11367602218E+03 -0.34601418636E+02  0.11886329756E+03  0.00000000000E+00 0. -1.
        -13    1    5    5    0    0 -0.32241653569E+02 -0.54416861602E+00 -0.20781481434E+02  0.38362616112E+02  0.00000000000E+00 0.  1.
          2    1    6    6  503    0  0.11130307870E+03 -0.84017872568E+03  0.26298287974E+03  0.88738304100E+03  0.00000000000E+00 0. -1.
         -2    1    6    6    0  503  0.12987338683E+03 -0.45983270183E+03  0.15158306566E+03  0.50128897462E+03  0.00000000000E+00 0.  1.
<mgrwt>
<rscale>  0 0.27115531E+04</rscale>
<asrwt>0</asrwt>
<pdfrwt beam="1">  1        2 0.27011082E+00 0.27115531E+04</pdfrwt>
<pdfrwt beam="2">  1       -1 0.16106737E+00 0.27115531E+04</pdfrwt>
<totfact> 0.26132642E+00</totfact>
</mgrwt>
</event>
<event>
12    7  0.2492439E-007  0.1991426E+04  0.7818608E-02  0.8610640E-01
          2   -1    0    0  501    0  0.00000000000E+00  0.00000000000E+00  0.16288191821E+04  0.16288191821E+04  0.00000000000E+00 0. -1.
         -1   -1    0    0    0  501 -0.00000000000E+00 -0.00000000000E+00 -0.60868918155E+03  0.60868918155E+03  0.00000000000E+00 0.  1.
         24    2    1    2    0    0  0.60841720018E+02  0.40250949561E+03 -0.35412049613E+03  0.54549177693E+03  0.80276671375E+02 0.  0.
        254    2    1    2    0    0 -0.60841720018E+02 -0.40250949561E+03  0.13742504967E+04  0.16920165867E+04  0.89924417883E+03 0.  0.
         23    2    4    4    0    0  0.31130956157E+03 -0.99468975338E+02  0.10554005415E+04  0.11085938479E+04  0.91116939097E+02 0.  0.
         23    2    4    4    0    0 -0.37215128158E+03 -0.30304052027E+03  0.31884995520E+03  0.58342273876E+03  0.91578735889E+02 0.  0.
          4    1    3    3  502    0  0.34677526394E+02  0.63849180998E+02 -0.40524126180E+02  0.83195273625E+02  0.00000000000E+00 0. -1.
         -3    1    3    3    0  502  0.26164193623E+02  0.33866031461E+03 -0.31359636995E+03  0.46229650330E+03  0.00000000000E+00 0.  1.
         13    1    5    5    0    0  0.22801562944E+03 -0.30509034578E+02  0.67517557412E+03  0.71329095350E+03  0.00000000000E+00 0.  1.
        -13    1    5    5    0    0  0.83293932122E+02 -0.68959940760E+02  0.38022496735E+03  0.39530289444E+03  0.00000000000E+00 0. -1.
          4    1    6    6  503    0 -0.57361830484E+02 -0.64032187305E+02  0.99121828472E+02  0.13120837430E+03  0.00000000000E+00 0.  1.
         -4    1    6    6    0  503 -0.31478945110E+03 -0.23900833296E+03  0.21972812673E+03  0.45221436446E+03  0.00000000000E+00 0. -1.
<mgrwt>
<rscale>  0 0.19914262E+04</rscale>
<asrwt>0</asrwt>
<pdfrwt beam="1">  1        2 0.25058757E+00 0.19914262E+04</pdfrwt>
<pdfrwt beam="2">  1       -1 0.93644490E-01 0.19914262E+04</pdfrwt>
<totfact> 0.12584133E+01</totfact>
</mgrwt>
</event>
<event>
12    7  0.2492439E-007  0.1340175E+04  0.7818608E-02  0.8998299E-01
          2   -1    0    0  501    0  0.00000000000E+00  0.00000000000E+00  0.29665904434E+03  0.29665904434E+03  0.00000000000E+00 0. -1.
         -1   -1    0    0    0  501 -0.00000000000E+00 -0.00000000000E+00 -0.15135810397E+04  0.15135810397E+04  0.00000000000E+00 0.  1.
         24    2    1    2    0    0  0.36187326932E+02 -0.30021197306E+03 -0.60387959163E+03  0.68003184843E+03  0.79599009363E+02 0.  0.
        254    2    1    2    0    0 -0.36187326932E+02  0.30021197306E+03 -0.61304240375E+03  0.11302082356E+04  0.90006272875E+03 0.  0.
         23    2    4    4    0    0  0.23864383089E+02  0.50337898444E+03 -0.71303442484E+03  0.87785767279E+03  0.90863039285E+02 0.  0.
         23    2    4    4    0    0 -0.60051710021E+02 -0.20316701138E+03  0.99992021097E+02  0.25235056284E+03  0.93804903351E+02 0.  0.
          2    1    3    3  502    0  0.32189963380E+02 -0.54151201734E+02 -0.85484213155E+02  0.10618896878E+03  0.00000000000E+00 0. -1.
         -1    1    3    3    0  502  0.39973635525E+01 -0.24606077133E+03 -0.51839537847E+03  0.57384287965E+03  0.00000000000E+00 0.  1.
         13    1    5    5    0    0 -0.19253476392E+02  0.39410312687E+03 -0.54599400798E+03  0.67364488250E+03  0.00000000000E+00 0. -1.
        -13    1    5    5    0    0  0.43117859482E+02  0.10927585757E+03 -0.16704041687E+03  0.20421279029E+03  0.00000000000E+00 0.  1.
          3    1    6    6  503    0  0.41363290128E+01 -0.82814607248E+02 -0.51715819868E+00  0.82919453953E+02  0.00000000000E+00 0. -1.
         -3    1    6    6    0  503 -0.64188039034E+02 -0.12035240413E+03  0.10050917930E+03  0.16943110888E+03  0.00000000000E+00 0.  1.
<mgrwt>
<rscale>  0 0.13401754E+04</rscale>
<asrwt>0</asrwt>
<pdfrwt beam="1">  1        2 0.45639853E-01 0.13401754E+04</pdfrwt>
<pdfrwt beam="2">  1       -1 0.23285862E+00 0.13401754E+04</pdfrwt>
<totfact> 0.11255936E+01</totfact>
</mgrwt>
</event>
<event>
12    7  0.2492439E-007  0.1711620E+04  0.7818608E-02  0.8754765E-01
          2   -1    0    0  501    0  0.00000000000E+00  0.00000000000E+00  0.63163477853E+03  0.63163477853E+03  0.00000000000E+00 0. -1.
         -1   -1    0    0    0  501 -0.00000000000E+00 -0.00000000000E+00 -0.11595475259E+04  0.11595475259E+04  0.00000000000E+00 0.  1.
         24    2    1    2    0    0 -0.22645137794E+03 -0.49649610247E+03  0.10445370593E+03  0.56267227184E+03  0.88887020849E+02 0.  0.
        254    2    1    2    0    0  0.22645137794E+03  0.49649610247E+03 -0.63236645333E+03  0.12285100326E+04  0.90086678405E+03 0.  0.
         23    2    4    4    0    0  0.75429507360E+02  0.10696061027E+03 -0.76351451230E+03  0.77974473653E+03  0.88978991458E+02 0.  0.
         23    2    4    4    0    0  0.15102187058E+03  0.38953549220E+03  0.13114805897E+03  0.44876529608E+03  0.98208820992E+02 0.  0.
          2    1    3    3  502    0 -0.61642192734E+02 -0.92761796026E+02  0.53718369661E+02  0.12365344300E+03  0.00000000000E+00 0. -1.
         -3    1    3    3    0  502 -0.16480918520E+03 -0.40373430644E+03  0.50735336272E+02  0.43901882884E+03  0.00000000000E+00 0.  1.
         13    1    5    5    0    0  0.28783239925E+02  0.10361233063E+03 -0.44463393304E+03  0.45745308434E+03  0.00000000000E+00 0.  1.
        -13    1    5    5    0    0  0.46646267435E+02  0.33482796359E+01 -0.31888057926E+03  0.32229165219E+03  0.00000000000E+00 0. -1.
          4    1    6    6  503    0  0.65062945662E+02  0.20775279624E+03  0.19015382628E+02  0.21853145316E+03  0.00000000000E+00 0. -1.
         -4    1    6    6    0  503  0.85958924915E+02  0.18178269596E+03  0.11213267635E+03  0.23023384292E+03  0.00000000000E+00 0.  1.
<mgrwt>
<rscale>  0 0.17116198E+04</rscale>
<asrwt>0</asrwt>
<pdfrwt beam="1">  1        2 0.97174582E-01 0.17116198E+04</pdfrwt>
<pdfrwt beam="2">  1       -1 0.17839193E+00 0.17116198E+04</pdfrwt>
<totfact> 0.10810469E+01</totfact>
</mgrwt>
</event>
<event>
12    7  0.2492439E-007  0.1978356E+04  0.7818608E-02  0.8616807E-01
          2   -1    0    0  501    0  0.00000000000E+00  0.00000000000E+00  0.89412683519E+03  0.89412683519E+03  0.00000000000E+00 0. -1.
         -1   -1    0    0    0  501 -0.00000000000E+00 -0.00000000000E+00 -0.10943338451E+04  0.10943338451E+04  0.00000000000E+00 0.  1.
         24    2    1    2    0    0  0.50765333190E+03  0.57806142079E+03 -0.21879277906E+03  0.80399745311E+03  0.81698915738E+02 0.  0.
        254    2    1    2    0    0 -0.50765333190E+03 -0.57806142079E+03  0.18585769134E+02  0.11844632272E+04  0.90041145826E+03 0.  0.
         23    2    4    4    0    0 -0.48551133246E+03 -0.79249237591E+03  0.92283055053E+02  0.93825989986E+03  0.89722113269E+02 0.  0.
         23    2    4    4    0    0 -0.22141999437E+02  0.21443095512E+03 -0.73697285918E+02  0.24620332734E+03  0.93348196493E+02 0.  0.
          4    1    3    3  502    0  0.43497387358E+03  0.44885879329E+03 -0.16697136525E+03  0.64695898156E+03  0.00000000000E+00 0. -1.
         -3    1    3    3    0  502  0.72679458321E+02  0.12920262750E+03 -0.51821413816E+02  0.15703847154E+03  0.00000000000E+00 0.  1.
         13    1    5    5    0    0 -0.80961107340E+02 -0.79442423196E+02  0.20935563655E+02  0.11534338876E+03  0.00000000000E+00 0. -1.
        -13    1    5    5    0    0 -0.40455022512E+03 -0.71304995272E+03  0.71347491398E+02  0.82291651110E+03  0.00000000000E+00 0.  1.
          4    1    6    6  503    0  0.55495413747E+01  0.31821045705E+02 -0.50650063593E+02  0.60073332696E+02  0.00000000000E+00 0. -1.
         -4    1    6    6    0  503 -0.27691540812E+02  0.18260990941E+03 -0.23047222325E+02  0.18612999464E+03  0.00000000000E+00 0.  1.
<mgrwt>
<rscale>  0 0.19783561E+04</rscale>
<asrwt>0</asrwt>
<pdfrwt beam="1">  1        2 0.13755797E+00 0.19783561E+04</pdfrwt>
<pdfrwt beam="2">  1       -1 0.16835905E+00 0.19783561E+04</pdfrwt>
<totfact> 0.79509615E+00</totfact>
</mgrwt>
</event>
<event>
12    7  0.2492439E-007  0.1139116E+04  0.7818608E-02  0.9167883E-01
          2   -1    0    0  501    0  0.00000000000E+00  0.00000000000E+00  0.19038549107E+04  0.19038549107E+04  0.00000000000E+00 0. -1.
         -1   -1    0    0    0  501 -0.00000000000E+00 -0.00000000000E+00 -0.17038930470E+03  0.17038930470E+03  0.00000000000E+00 0.  1.
         24    2    1    2    0    0 -0.85453469599E+02 -0.10336679779E+03  0.61386031767E+03  0.63347924191E+03  0.80526206758E+02 0.  0.
        254    2    1    2    0    0  0.85453469599E+02  0.10336679779E+03  0.11196052884E+04  0.14407649735E+04  0.89682814230E+03 0.  0.
         23    2    4    4    0    0 -0.34757873987E+03 -0.14328971277E+03  0.60734809337E+03  0.72033304129E+03  0.93086312959E+02 0.  0.
         23    2    4    4    0    0  0.43303220946E+03  0.24665651056E+03  0.51225719500E+03  0.72043193223E+03  0.90875775182E+02 0.  0.
          4    1    3    3  502    0 -0.90619312395E+02 -0.58355418697E+02  0.36717579628E+03  0.38266862956E+03  0.00000000000E+00 0. -1.
         -3    1    3    3    0  502  0.51658427965E+01 -0.45011379093E+02  0.24668452138E+03  0.25081061235E+03  0.00000000000E+00 0.  1.
         13    1    5    5    0    0 -0.30859371301E+03 -0.12925966662E+03  0.47034816965E+03  0.57720493918E+03  0.00000000000E+00 0.  1.
        -13    1    5    5    0    0 -0.38985026859E+02 -0.14030046156E+02  0.13699992372E+03  0.14312810211E+03  0.00000000000E+00 0. -1.
          2    1    6    6  503    0  0.18224045061E+01  0.18211823790E+02  0.14264993028E+02  0.23205208683E+02  0.00000000000E+00 0. -1.
         -2    1    6    6    0  503  0.43120980496E+03  0.22844468677E+03  0.49799220197E+03  0.69722672355E+03  0.00000000000E+00 0.  1.
<mgrwt>
<rscale>  0 0.11391163E+04</rscale>
<asrwt>0</asrwt>
<pdfrwt beam="1">  1        2 0.29290074E+00 0.11391163E+04</pdfrwt>
<pdfrwt beam="2">  1       -1 0.26213741E-01 0.11391163E+04</pdfrwt>
<totfact> 0.11018082E+02</totfact>
</mgrwt>
</event>
<event>
12    7  0.2492439E-007  0.3765130E+04  0.7818608E-02  0.8053680E-01
          2   -1    0    0  501    0  0.00000000000E+00  0.00000000000E+00  0.14130832749E+04  0.14130832749E+04  0.00000000000E+00 0. -1.
         -1   -1    0    0    0  501 -0.00000000000E+00 -0.00000000000E+00 -0.25080266796E+04  0.25080266796E+04  0.00000000000E+00 0.  1.
         24    2    1    2    0    0  0.31678356321E+03  0.14178357511E+04  0.54393862976E+03  0.15535461004E+04  0.83822492872E+02 0.  0.
        254    2    1    2    0    0 -0.31678356321E+03 -0.14178357511E+04 -0.16388820344E+04  0.23675638541E+04  0.89934100186E+03 0.  0.
         23    2    4    4    0    0  0.15806926538E+03 -0.50463597393E+03 -0.10474957816E+04  0.11769043980E+04  0.90626656070E+02 0.  0.
         23    2    4    4    0    0 -0.47485282859E+03 -0.91319977714E+03 -0.59138625285E+03  0.11906594561E+04  0.92266996115E+02 0.  0.
          4    1    3    3  502    0  0.26330735643E+03  0.12309860869E+04  0.49858018542E+03  0.13539718281E+04  0.00000000000E+00 0. -1.
         -3    1    3    3    0  502  0.53476206774E+02  0.18684966422E+03  0.45358444340E+02  0.19957427235E+03  0.00000000000E+00 0.  1.
         13    1    5    5    0    0 -0.22273924545E+00 -0.52412327902E+02 -0.15956487489E+03  0.16795252611E+03  0.00000000000E+00 0.  1.
        -13    1    5    5    0    0  0.15829200463E+03 -0.45222364603E+03 -0.88793090669E+03  0.10089518719E+04  0.00000000000E+00 0. -1.
          1    1    6    6  503    0 -0.31655717424E+03 -0.67573718655E+03 -0.45884956099E+03  0.87599777937E+03  0.00000000000E+00 0. -1.
         -1    1    6    6    0  503 -0.15829565435E+03 -0.23746259059E+03 -0.13253669187E+03  0.31466167674E+03  0.00000000000E+00 0.  1.
<mgrwt>
<rscale>  0 0.37651298E+04</rscale>
<asrwt>0</asrwt>
<pdfrwt beam="1">  1        2 0.21739743E+00 0.37651298E+04</pdfrwt>
<pdfrwt beam="2">  1       -1 0.38585026E+00 0.37651298E+04</pdfrwt>
<totfact> 0.11624983E-01</totfact>
</mgrwt>
</event>
<event>
12    7  0.2492439E-007  0.2411401E+04  0.7818608E-02  0.8435248E-01
         -3   -1    0    0    0  501 -0.00000000000E+00  0.00000000000E+00  0.71032080061E+03  0.71032080061E+03  0.00000000000E+00 0.  1.
          2   -1    0    0  501    0  0.00000000000E+00 -0.00000000000E+00 -0.20465590295E+04  0.20465590295E+04  0.00000000000E+00 0. -1.
         24    2    1    2    0    0 -0.65855488972E+03  0.79675975915E+03 -0.50027544469E+03  0.11511906498E+04  0.80272879377E+02 0.  0.
        254    2    1    2    0    0  0.65855488972E+03 -0.79675975915E+03 -0.83596278416E+03  0.16056891802E+04  0.90049059430E+03 0.  0.
         23    2    4    4    0    0  0.56989499694E+02 -0.49450912544E+03 -0.77218855694E+03  0.92319160417E+03  0.90666930693E+02 0.  0.
         23    2    4    4    0    0  0.60156539003E+03 -0.30225063371E+03 -0.63774227221E+02  0.68249757606E+03  0.92192327263E+02 0.  0.
          2    1    3    3  502    0 -0.42060882188E+03  0.56576858969E+03 -0.35056573430E+03  0.78733868963E+03  0.00000000000E+00 0. -1.
         -1    1    3    3    0  502 -0.23794606784E+03  0.23099116945E+03 -0.14970971039E+03  0.36385196022E+03  0.00000000000E+00 0.  1.
         13    1    5    5    0    0  0.73371368479E+02 -0.27765143340E+03 -0.47207616219E+03  0.55256635718E+03  0.00000000000E+00 0. -1.
        -13    1    5    5    0    0 -0.16381868785E+02 -0.21685769204E+03 -0.30011239475E+03  0.37062524698E+03  0.00000000000E+00 0.  1.
          2    1    6    6  503    0  0.98734306635E+02 -0.85564149703E+02  0.44749317483E+01  0.13072762537E+03  0.00000000000E+00 0. -1.
         -2    1    6    6    0  503  0.50283108339E+03 -0.21668648401E+03 -0.68249158969E+02  0.55176995068E+03  0.00000000000E+00 0.  1.
<mgrwt>
<rscale>  0 0.24114008E+04</rscale>
<asrwt>0</asrwt>
<pdfrwt beam="1">  1        2 0.31485524E+00 0.24114008E+04</pdfrwt>
<pdfrwt beam="2">  1       -3 0.10928012E+00 0.24114008E+04</pdfrwt>
<totfact> 0.25524101E+00</totfact>
</mgrwt>
</event>
<event>
12    7  0.2492439E-007  0.2122343E+04  0.7818608E-02  0.8551464E-01
         -1   -1    0    0    0  501 -0.00000000000E+00  0.00000000000E+00  0.11856263992E+04  0.11856263992E+04  0.00000000000E+00 0.  1.
          2   -1    0    0  501    0  0.00000000000E+00 -0.00000000000E+00 -0.94978103145E+03  0.94978103145E+03  0.00000000000E+00 0. -1.
         24    2    1    2    0    0  0.32832126061E+03  0.65746589586E+03 -0.36945748170E+03  0.82574056885E+03  0.72748896014E+02 0.  0.
        254    2    1    2    0    0 -0.32832126061E+03 -0.65746589586E+03  0.60530284949E+03  0.13096668618E+04  0.89932168605E+03 0.  0.
         23    2    4    4    0    0  0.11887363449E+03 -0.16335308610E+03  0.59713961469E+03  0.63699198601E+03  0.91476221465E+02 0.  0.
         23    2    4    4    0    0 -0.44719489510E+03 -0.49411280976E+03  0.81632348055E+01  0.67267487583E+03  0.91071989064E+02 0.  0.
          4    1    3    3  502    0  0.15946672345E+03  0.25632625093E+03 -0.17611737882E+03  0.34949980533E+03  0.00000000000E+00 0. -1.
         -3    1    3    3    0  502  0.16885453715E+03  0.40113964493E+03 -0.19334010288E+03  0.47624076352E+03  0.00000000000E+00 0.  1.
         13    1    5    5    0    0  0.49765470231E+02 -0.69032262752E+02  0.38954199036E+03  0.39872925348E+03  0.00000000000E+00 0. -1.
        -13    1    5    5    0    0  0.69108164264E+02 -0.94320823348E+02  0.20759762433E+03  0.23826273253E+03  0.00000000000E+00 0.  1.
          1    1    6    6  503    0 -0.36862709019E+03 -0.36834713552E+03  0.33674999723E+02  0.52220642420E+03  0.00000000000E+00 0. -1.
         -1    1    6    6    0  503 -0.78567804907E+02 -0.12576567425E+03 -0.25511764918E+02  0.15046845163E+03  0.00000000000E+00 0.  1.
<mgrwt>
<rscale>  0 0.21223435E+04</rscale>
<asrwt>0</asrwt>
<pdfrwt beam="1">  1        2 0.14612016E+00 0.21223435E+04</pdfrwt>
<pdfrwt beam="2">  1       -1 0.18240406E+00 0.21223435E+04</pdfrwt>
<totfact> 0.56997497E+00</totfact>
</mgrwt>
</event>
<event>
12    7  0.2492439E-007  0.1130972E+04  0.7818608E-02  0.9175520E-01
         -1   -1    0    0    0  501 -0.00000000000E+00  0.00000000000E+00  0.24558468496E+03  0.24558468496E+03  0.00000000000E+00 0.  1.
          2   -1    0    0  501    0  0.00000000000E+00 -0.00000000000E+00 -0.13020931719E+04  0.13020931719E+04  0.00000000000E+00 0. -1.
         24    2    1    2    0    0 -0.19118711025E+03  0.30706604780E+02 -0.12369034483E+03  0.24319992727E+03  0.79696276678E+02 0.  0.
        254    2    1    2    0    0  0.19118711025E+03 -0.30706604780E+02 -0.93281814211E+03  0.13044779296E+04  0.89107663857E+03 0.  0.
         23    2    4    4    0    0 -0.16130595585E+03  0.15592605140E+03  0.45487556049E+02  0.24405828385E+03  0.84633227886E+02 0.  0.
         23    2    4    4    0    0  0.35249306610E+03 -0.18663265618E+03 -0.97830569816E+03  0.10604196457E+04  0.91239662435E+02 0.  0.
          2    1    3    3  502    0 -0.19305422979E+00 -0.13094715236E+02 -0.45132409761E+01  0.13852010005E+02  0.00000000000E+00 0. -1.
         -1    1    3    3    0  502 -0.19099405602E+03  0.43801320016E+02 -0.11917710385E+03  0.22934791727E+03  0.00000000000E+00 0.  1.
         13    1    5    5    0    0 -0.15472306166E+03  0.11521123322E+03  0.57156580197E+02  0.20119574730E+03  0.00000000000E+00 0.  1.
        -13    1    5    5    0    0 -0.65828941860E+01  0.40714818175E+02 -0.11669024148E+02  0.42862536550E+02  0.00000000000E+00 0. -1.
          3    1    6    6  503    0  0.27569426935E+03 -0.17023677477E+03 -0.70197984181E+03  0.77315172376E+03  0.00000000000E+00 0. -1.
         -3    1    6    6    0  503  0.76798796747E+02 -0.16395881404E+02 -0.27632585635E+03  0.28726792197E+03  0.00000000000E+00 0.  1.
<mgrwt>
<rscale>  0 0.11309715E+04</rscale>
<asrwt>0</asrwt>
<pdfrwt beam="1">  1        2 0.20032203E+00 0.11309715E+04</pdfrwt>
<pdfrwt beam="2">  1       -1 0.37782259E-01 0.11309715E+04</pdfrwt>
<totfact> 0.12574522E+02</totfact>
</mgrwt>
</event>
<event>
12    7  0.2492439E-007  0.2512740E+04  0.7818608E-02  0.8398461E-01
         -1   -1    0    0    0  501 -0.00000000000E+00  0.00000000000E+00  0.66178082863E+03  0.66178082863E+03  0.00000000000E+00 0.  1.
          2   -1    0    0  501    0  0.00000000000E+00 -0.00000000000E+00 -0.23851781304E+04  0.23851781304E+04  0.00000000000E+00 0. -1.
         24    2    1    2    0    0  0.89175782946E+03 -0.51308108368E+03 -0.12033626279E+04  0.15850932877E+04  0.77167943913E+02 0.  0.
        254    2    1    2    0    0 -0.89175782946E+03  0.51308108368E+03 -0.52003467387E+03  0.14618656714E+04  0.89896104155E+03 0.  0.
         23    2    4    4    0    0  0.14762987006E+03 -0.42253043047E+02 -0.35288469999E+02  0.18434335543E+03  0.95693774073E+02 0.  0.
         23    2    4    4    0    0 -0.10393876995E+04  0.55533412673E+03 -0.48474620387E+03  0.12775223159E+04  0.91441802810E+02 0.  0.
          2    1    3    3  502    0  0.51411283450E+03 -0.33391638617E+03 -0.74383698751E+03  0.96390125196E+03  0.00000000000E+00 0. -1.
         -3    1    3    3    0  502  0.37764499496E+03 -0.17916469752E+03 -0.45952564037E+03  0.62119203570E+03  0.00000000000E+00 0.  1.
         13    1    5    5    0    0  0.61933436148E+01  0.23272571292E+02 -0.11404228833E+02  0.26646322729E+02  0.00000000000E+00 0.  1.
        -13    1    5    5    0    0  0.14143652644E+03 -0.65525614339E+02 -0.23884241165E+02  0.15769703270E+03  0.00000000000E+00 0. -1.
          3    1    6    6  503    0 -0.94733315737E+03  0.47528846756E+03 -0.44014638536E+03  0.11476358652E+04  0.00000000000E+00 0. -1.
         -3    1    6    6    0  503 -0.92054542143E+02  0.80045659170E+02 -0.44599818505E+02  0.12988645076E+03  0.00000000000E+00 0.  1.
<mgrwt>
<rscale>  0 0.25127397E+04</rscale>
<asrwt>0</asrwt>
<pdfrwt beam="1">  1        2 0.36695048E+00 0.25127397E+04</pdfrwt>
<pdfrwt beam="2">  1       -1 0.10181244E+00 0.25127397E+04</pdfrwt>
<totfact> 0.37563565E+00</totfact>
</mgrwt>
</event>
<event>
12    7  0.2492439E-007  0.1580654E+04  0.7818608E-02  0.8832522E-01
         -3   -1    0    0    0  501 -0.00000000000E+00  0.00000000000E+00  0.56911764541E+03  0.56911764541E+03  0.00000000000E+00 0.  1.
          4   -1    0    0  501    0  0.00000000000E+00 -0.00000000000E+00 -0.10975184817E+04  0.10975184817E+04  0.00000000000E+00 0. -1.
         24    2    1    2    0    0  0.45743084687E+03  0.19588984077E+03  0.15122562692E+02  0.50359699171E+03  0.75930420632E+02 0.  0.
        254    2    1    2    0    0 -0.45743084687E+03 -0.19588984077E+03 -0.54352339901E+03  0.11630391354E+04  0.89979249601E+03 0.  0.
         23    2    4    4    0    0  0.11048465116E+03 -0.10715837915E+03  0.16703498141E+03  0.24456188749E+03  0.90664521365E+02 0.  0.
         23    2    4    4    0    0 -0.56791549803E+03 -0.88731461616E+02 -0.71055838042E+03  0.91847724793E+03  0.91137027589E+02 0.  0.
          2    1    3    3  502    0  0.11747359475E+03  0.22204039512E+02 -0.15788015130E+02  0.12059156793E+03  0.00000000000E+00 0. -1.
         -1    1    3    3    0  502  0.33995725212E+03  0.17368580126E+03  0.30910577822E+02  0.38300542378E+03  0.00000000000E+00 0.  1.
         13    1    5    5    0    0  0.85919660320E+02 -0.12248709500E+03  0.13755867777E+03  0.20324287515E+03  0.00000000000E+00 0. -1.
        -13    1    5    5    0    0  0.24564990842E+02  0.15328715844E+02  0.29476303644E+02  0.41319012343E+02  0.00000000000E+00 0.  1.
          2    1    6    6  503    0 -0.47463844229E+03 -0.87790659127E+02 -0.63948039632E+03  0.80120161508E+03  0.00000000000E+00 0. -1.
         -2    1    6    6    0  503 -0.93277055736E+02 -0.94080248884E+00 -0.71077984098E+02  0.11727563285E+03  0.00000000000E+00 0.  1.
<mgrwt>
<rscale>  0 0.15806545E+04</rscale>
<asrwt>0</asrwt>
<pdfrwt beam="1">  1        4 0.16884900E+00 0.15806545E+04</pdfrwt>
<pdfrwt beam="2">  1       -3 0.87556561E-01 0.15806545E+04</pdfrwt>
<totfact> 0.56159905E-01</totfact>
</mgrwt>
</event>
<event>
12    7  0.2492439E-007  0.3717714E+04  0.7818608E-02  0.8064047E-01
         -1   -1    0    0    0  501 -0.00000000000E+00  0.00000000000E+00  0.19654279214E+04  0.19654279214E+04  0.00000000000E+00 0.  1.
          2   -1    0    0  501    0  0.00000000000E+00 -0.00000000000E+00 -0.17580647577E+04  0.17580647577E+04  0.00000000000E+00 0. -1.
         24    2    1    2    0    0  0.89983649435E+03 -0.12210552542E+04  0.96986074054E+03  0.18021197691E+04  0.79524559730E+02 0.  0.
        254    2    1    2    0    0 -0.89983649435E+03  0.12210552542E+04 -0.76249757686E+03  0.19213729101E+04  0.89977200133E+03 0.  0.
         23    2    4    4    0    0 -0.77383333555E+03  0.12969005325E+04 -0.47721454415E+03  0.15865341369E+04  0.92670513496E+02 0.  0.
         23    2    4    4    0    0 -0.12600315880E+03 -0.75845278290E+02 -0.28528303271E+03  0.33483877313E+03  0.95400696917E+02 0.  0.
          4    1    3    3  502    0  0.68864373594E+02 -0.12631894968E+03  0.77166893888E+02  0.16325902276E+03  0.00000000000E+00 0. -1.
         -1    1    3    3    0  502  0.83097212076E+03 -0.10947363046E+04  0.89269384666E+03  0.16388607463E+04  0.00000000000E+00 0.  1.
         13    1    5    5    0    0 -0.61735895167E+03  0.97412768138E+03 -0.33831968245E+03  0.12018806190E+04  0.00000000000E+00 0.  1.
        -13    1    5    5    0    0 -0.15647438388E+03  0.32277285114E+03 -0.13889486171E+03  0.38465351793E+03  0.00000000000E+00 0. -1.
          3    1    6    6  503    0 -0.12484494661E+03 -0.45142195500E+02 -0.26921047332E+03  0.30016388432E+03  0.00000000000E+00 0. -1.
         -3    1    6    6    0  503 -0.11582121900E+01 -0.30703082789E+02 -0.16072559393E+02  0.34674888806E+02  0.00000000000E+00 0.  1.
<mgrwt>
<rscale>  0 0.37177141E+04</rscale>
<asrwt>0</asrwt>
<pdfrwt beam="1">  1        2 0.27047150E+00 0.37177141E+04</pdfrwt>
<pdfrwt beam="2">  1       -1 0.30237353E+00 0.37177141E+04</pdfrwt>
<totfact> 0.26657392E-01</totfact>
</mgrwt>
</event>
<event>
12    7  0.2492439E-007  0.3173536E+04  0.7818608E-02  0.8195841E-01
          2   -1    0    0  501    0  0.00000000000E+00  0.00000000000E+00  0.24606358746E+04  0.24606358746E+04  0.00000000000E+00 0. -1.
         -1   -1    0    0    0  501 -0.00000000000E+00 -0.00000000000E+00 -0.10232450225E+04  0.10232450225E+04  0.00000000000E+00 0.  1.
         24    2    1    2    0    0  0.14023750844E+03  0.92658966795E+03  0.18815841938E+04  0.21035574794E+04  0.79749728685E+02 0.  0.
        254    2    1    2    0    0 -0.14023750844E+03 -0.92658966795E+03 -0.44419334178E+03  0.13803234177E+04  0.91090616482E+03 0.  0.
         23    2    4    4    0    0  0.40689995991E+02 -0.97594286462E+03 -0.11069018565E+03  0.98730819259E+03  0.91678782605E+02 0.  0.
         23    2    4    4    0    0 -0.18092750443E+03  0.49353196668E+02 -0.33350315612E+03  0.39301522514E+03  0.89811536922E+02 0.  0.
          2    1    3    3  502    0  0.12297783686E+03  0.89542156544E+03  0.18275679867E+04  0.20388496939E+04  0.00000000000E+00 0. -1.
         -1    1    3    3    0  502  0.17259671580E+02  0.31168102509E+02  0.54016207142E+02  0.64707785552E+02  0.00000000000E+00 0.  1.
         13    1    5    5    0    0  0.50280830202E+02 -0.86368485503E+03 -0.71814170061E+02  0.86812266744E+03  0.00000000000E+00 0. -1.
        -13    1    5    5    0    0 -0.95908342108E+01 -0.11225800958E+03 -0.38876015593E+02  0.11918552515E+03  0.00000000000E+00 0.  1.
          3    1    6    6  503    0 -0.43208208719E+02  0.16685985109E+02 -0.17264894258E+03  0.17875410142E+03  0.00000000000E+00 0. -1.
         -3    1    6    6    0  503 -0.13771929571E+03  0.32667211559E+02 -0.16085421354E+03  0.21426112371E+03  0.00000000000E+00 0.  1.
<mgrwt>
<rscale>  0 0.31735365E+04</rscale>
<asrwt>0</asrwt>
<pdfrwt beam="1">  1        2 0.37855936E+00 0.31735365E+04</pdfrwt>
<pdfrwt beam="2">  1       -1 0.15742231E+00 0.31735365E+04</pdfrwt>
<totfact> 0.10756461E+00</totfact>
</mgrwt>
</event>
<event>
12    7  0.2492439E-007  0.3256606E+04  0.7818608E-02  0.8174025E-01
          2   -1    0    0  501    0  0.00000000000E+00  0.00000000000E+00  0.11648206231E+04  0.11648206231E+04  0.00000000000E+00 0. -1.
         -1   -1    0    0    0  501 -0.00000000000E+00 -0.00000000000E+00 -0.22762057606E+04  0.22762057606E+04  0.00000000000E+00 0.  1.
         24    2    1    2    0    0 -0.12309306589E+04  0.81337468924E+03 -0.24873451801E+03  0.14982205545E+04  0.77635671416E+02 0.  0.
        254    2    1    2    0    0  0.12309306589E+04 -0.81337468924E+03 -0.86265061946E+03  0.19428058291E+04  0.92388296146E+03 0.  0.
         23    2    4    4    0    0  0.57009944674E+03 -0.48482173444E+03 -0.92873608939E+03  0.11961644554E+04  0.90516226352E+02 0.  0.
         23    2    4    4    0    0  0.66083121213E+03 -0.32855295480E+03  0.66085469928E+02  0.74664137377E+03  0.91984328274E+02 0.  0.
          4    1    3    3  502    0 -0.47162943085E+03  0.31387415915E+03 -0.13383554350E+03  0.58211962733E+03  0.00000000000E+00 0. -1.
         -3    1    3    3    0  502 -0.75930122802E+03  0.49950053009E+03 -0.11489897451E+03  0.91610092718E+03  0.00000000000E+00 0.  1.
         13    1    5    5    0    0  0.56076304537E+03 -0.48253784349E+03 -0.92760568533E+03  0.11864865237E+04  0.00000000000E+00 0. -1.
        -13    1    5    5    0    0  0.93364013708E+01 -0.22838909454E+01 -0.11304040575E+01  0.96779316871E+01  0.00000000000E+00 0.  1.
          3    1    6    6  503    0  0.52007850769E+03 -0.28830325523E+03  0.27651221616E+02  0.59528565512E+03  0.00000000000E+00 0. -1.
         -3    1    6    6    0  503  0.14075270444E+03 -0.40249699575E+02  0.38434248312E+02  0.15135571865E+03  0.00000000000E+00 0.  1.
<mgrwt>
<rscale>  0 0.32566065E+04</rscale>
<asrwt>0</asrwt>
<pdfrwt beam="1">  1        2 0.17920318E+00 0.32566065E+04</pdfrwt>
<pdfrwt beam="2">  1       -1 0.35018550E+00 0.32566065E+04</pdfrwt>
<totfact> 0.29408608E-01</totfact>
</mgrwt>
</event>
<event>
12    7  0.2492439E-007  0.3052041E+04  0.7818608E-02  0.8229025E-01
         -1   -1    0    0    0  501 -0.00000000000E+00  0.00000000000E+00  0.11488406741E+04  0.11488406741E+04  0.00000000000E+00 0.  1.
          2   -1    0    0  501    0  0.00000000000E+00 -0.00000000000E+00 -0.20270332573E+04  0.20270332573E+04  0.00000000000E+00 0. -1.
         24    2    1    2    0    0  0.10937455278E+04 -0.28097976896E+03 -0.12486574517E+04  0.16854544682E+04  0.79890065632E+02 0.  0.
        254    2    1    2    0    0 -0.10937455278E+04  0.28097976896E+03  0.37046486850E+03  0.14904194633E+04  0.89937592117E+03 0.  0.
         23    2    4    4    0    0 -0.10850664465E+04  0.46255098062E+03  0.15296980041E+03  0.11930200861E+04  0.92598936686E+02 0.  0.
         23    2    4    4    0    0 -0.86790812601E+01 -0.18157121166E+03  0.21749506809E+03  0.29739937712E+03  0.89993630402E+02 0.  0.
          4    1    3    3  502    0  0.73675831337E+03 -0.22087982770E+03 -0.88030867809E+03  0.11689927627E+04  0.00000000000E+00 0. -1.
         -3    1    3    3    0  502  0.35698721441E+03 -0.60099941260E+02 -0.36834877357E+03  0.51646170544E+03  0.00000000000E+00 0.  1.
         13    1    5    5    0    0 -0.26480302615E+02  0.21017959295E+02  0.17506391295E+02  0.38071443047E+02  0.00000000000E+00 0. -1.
        -13    1    5    5    0    0 -0.10585861439E+04  0.44153302132E+03  0.13546340912E+03  0.11549486431E+04  0.00000000000E+00 0.  1.
          1    1    6    6  503    0 -0.19453055656E+02 -0.32959721445E+02  0.60782704145E+01  0.38751902964E+02  0.00000000000E+00 0. -1.
         -1    1    6    6    0  503  0.10773974396E+02 -0.14861149021E+03  0.21141679767E+03  0.25864747415E+03  0.00000000000E+00 0.  1.
<mgrwt>
<rscale>  0 0.30520408E+04</rscale>
<asrwt>0</asrwt>
<pdfrwt beam="1">  1        2 0.31185127E+00 0.30520408E+04</pdfrwt>
<pdfrwt beam="2">  1       -1 0.17674472E+00 0.30520408E+04</pdfrwt>
<totfact> 0.13745321E+00</totfact>
</mgrwt>
</event>
<event>
12    7  0.2492439E-007  0.1896175E+04  0.7818608E-02  0.8656763E-01
          2   -1    0    0  501    0  0.00000000000E+00  0.00000000000E+00  0.26714601693E+04  0.26714601693E+04  0.00000000000E+00 0. -1.
         -1   -1    0    0    0  501 -0.00000000000E+00 -0.00000000000E+00 -0.33647129103E+03  0.33647129103E+03  0.00000000000E+00 0.  1.
         24    2    1    2    0    0 -0.29439920245E+03  0.66744777127E+03  0.10205002452E+04  0.12568674171E+04  0.78342428070E+02 0.  0.
        254    2    1    2    0    0  0.29439920245E+03 -0.66744777127E+03  0.13144886331E+04  0.17510640432E+04  0.89787944577E+03 0.  0.
         23    2    4    4    0    0  0.34098730257E+03 -0.60645012515E+03  0.14258009221E+04  0.15891021952E+04  0.91013308785E+02 0.  0.
         23    2    4    4    0    0 -0.46588100129E+02 -0.60997646121E+02 -0.11131228904E+03  0.16196184804E+03  0.89163056381E+02 0.  0.
          4    1    3    3  502    0 -0.17306168427E+03  0.33930866481E+03  0.47562822709E+03  0.60934631121E+03  0.00000000000E+00 0. -1.
         -3    1    3    3    0  502 -0.12133751817E+03  0.32813910646E+03  0.54487201811E+03  0.64752110593E+03  0.00000000000E+00 0.  1.
         13    1    5    5    0    0  0.16096884523E+03 -0.23968419053E+03  0.67927752392E+03  0.73809039747E+03  0.00000000000E+00 0. -1.
        -13    1    5    5    0    0  0.18001845734E+03 -0.36676593461E+03  0.74652339818E+03  0.85101179769E+03  0.00000000000E+00 0.  1.
          3    1    6    6  503    0 -0.15961603985E+02 -0.65932023900E+02 -0.28591768678E+02  0.73615853004E+02  0.00000000000E+00 0. -1.
         -3    1    6    6    0  503 -0.30626496144E+02  0.49343777794E+01 -0.82720520358E+02  0.88345995033E+02  0.00000000000E+00 0.  1.
<mgrwt>
<rscale>  0 0.18961747E+04</rscale>
<asrwt>0</asrwt>
<pdfrwt beam="1">  1        2 0.41099386E+00 0.18961747E+04</pdfrwt>
<pdfrwt beam="2">  1       -1 0.51764816E-01 0.18961747E+04</pdfrwt>
<totfact> 0.11078361E+01</totfact>
</mgrwt>
</event>
<event>
12    7  0.2492439E-007  0.1875919E+04  0.7818608E-02  0.8666937E-01
          2   -1    0    0  501    0  0.00000000000E+00  0.00000000000E+00  0.28448771732E+04  0.28448771732E+04  0.00000000000E+00 0. -1.
         -1   -1    0    0    0  501 -0.00000000000E+00 -0.00000000000E+00 -0.30924652695E+03  0.30924652695E+03  0.00000000000E+00 0.  1.
         24    2    1    2    0    0 -0.26847040895E+03  0.65130484632E+03  0.73477412382E+03  0.10210594613E+04  0.79969038656E+02 0.  0.
        254    2    1    2    0    0  0.26847040895E+03 -0.65130484632E+03  0.18008565224E+04  0.21330642388E+04  0.90033575371E+03 0.  0.
         23    2    4    4    0    0  0.27976986955E+03  0.15026052429E+02  0.11853635196E+04  0.12213818857E+04  0.90499032213E+02 0.  0.
         23    2    4    4    0    0 -0.11299460594E+02 -0.66633089875E+03  0.61549300277E+03  0.91168235315E+03  0.90600950118E+02 0.  0.
          4    1    3    3  502    0 -0.16707150197E+03  0.44393142950E+03  0.54262689631E+03  0.72071627529E+03  0.00000000000E+00 0. -1.
         -3    1    3    3    0  502 -0.10139890699E+03  0.20737341682E+03  0.19214722752E+03  0.30034318601E+03  0.00000000000E+00 0.  1.
         13    1    5    5    0    0  0.14564250824E+02  0.19154804505E+02  0.50568295059E+02  0.56001575004E+02  0.00000000000E+00 0.  1.
        -13    1    5    5    0    0  0.26520561872E+03 -0.41287520754E+01  0.11347952246E+04  0.11653803107E+04  0.00000000000E+00 0. -1.
          1    1    6    6  503    0 -0.75320074677E+01 -0.66643823190E+03  0.61637925859E+03  0.90781057412E+03  0.00000000000E+00 0. -1.
         -1    1    6    6    0  503 -0.37674531260E+01  0.10733314858E+00 -0.88625582625E+00  0.38717790292E+01  0.00000000000E+00 0.  1.
<mgrwt>
<rscale>  0 0.18759194E+04</rscale>
<asrwt>0</asrwt>
<pdfrwt beam="1">  1        2 0.43767339E+00 0.18759194E+04</pdfrwt>
<pdfrwt beam="2">  1       -1 0.47576391E-01 0.18759194E+04</pdfrwt>
<totfact> 0.10256594E+01</totfact>
</mgrwt>
</event>
<event>
12    7  0.2492439E-007  0.1648593E+04  0.7818608E-02  0.8791239E-01
         -1   -1    0    0    0  501 -0.00000000000E+00  0.00000000000E+00  0.28971534348E+03  0.28971534348E+03  0.00000000000E+00 0.  1.
          2   -1    0    0  501    0  0.00000000000E+00 -0.00000000000E+00 -0.23452828077E+04  0.23452828077E+04  0.00000000000E+00 0. -1.
         24    2    1    2    0    0  0.55172537517E+03 -0.13153637370E+03 -0.58186660108E+03  0.81646572729E+03  0.79654473623E+02 0.  0.
        254    2    1    2    0    0 -0.55172537517E+03  0.13153637370E+03 -0.14737008632E+04  0.18185324239E+04  0.90197740298E+03 0.  0.
         23    2    4    4    0    0  0.21938862425E+03 -0.60287789840E+02 -0.20867023757E+03  0.32187571961E+03  0.91075379603E+02 0.  0.
         23    2    4    4    0    0 -0.77111399943E+03  0.19182416354E+03 -0.12650306256E+04  0.14966567043E+04  0.90914778809E+02 0.  0.
          4    1    3    3  502    0  0.26950342867E+03 -0.61740256950E+02 -0.34041982237E+03  0.43855400222E+03  0.00000000000E+00 0. -1.
         -3    1    3    3    0  502  0.28222194650E+03 -0.69796116751E+02 -0.24144677871E+03  0.37791172507E+03  0.00000000000E+00 0.  1.
         13    1    5    5    0    0  0.13661931490E+03  0.37327530948E+01 -0.14561656208E+03  0.19970717013E+03  0.00000000000E+00 0. -1.
        -13    1    5    5    0    0  0.82769309349E+02 -0.64020542935E+02 -0.63053675489E+02  0.12216854947E+03  0.00000000000E+00 0.  1.
          2    1    6    6  503    0 -0.74215781674E+03  0.17401841450E+03 -0.11769608776E+04  0.14022544495E+04  0.00000000000E+00 0. -1.
         -2    1    6    6    0  503 -0.28956182687E+02  0.17805749037E+02 -0.88069747939E+02  0.94402254828E+02  0.00000000000E+00 0.  1.
<mgrwt>
<rscale>  0 0.16485926E+04</rscale>
<asrwt>0</asrwt>
<pdfrwt beam="1">  1        2 0.36081272E+00 0.16485926E+04</pdfrwt>
<pdfrwt beam="2">  1       -1 0.44571594E-01 0.16485926E+04</pdfrwt>
<totfact> 0.23202621E+01</totfact>
</mgrwt>
</event>
<event>
12    7  0.2492439E-007  0.1158559E+04  0.7818608E-02  0.9149924E-01
         -1   -1    0    0    0  501 -0.00000000000E+00  0.00000000000E+00  0.52136534550E+03  0.52136534550E+03  0.00000000000E+00 0.  1.
          2   -1    0    0  501    0  0.00000000000E+00 -0.00000000000E+00 -0.64362672333E+03  0.64362672333E+03  0.00000000000E+00 0. -1.
         24    2    1    2    0    0  0.20197526540E+03 -0.14011964603E+02 -0.11075872400E+03  0.24473849316E+03  0.81480624137E+02 0.  0.
        254    2    1    2    0    0 -0.20197526540E+03  0.14011964603E+02 -0.11502653843E+02  0.92025357567E+03  0.89763243563E+03 0.  0.
         23    2    4    4    0    0 -0.44461670831E+03  0.29114010706E+03  0.12559804675E+02  0.53984821110E+03  0.93977460537E+02 0.  0.
         23    2    4    4    0    0  0.24264144291E+03 -0.27712814245E+03 -0.24062458518E+02  0.38040536457E+03  0.91947606416E+02 0.  0.
          2    1    3    3  502    0  0.19214399517E+03 -0.17256327862E+02 -0.12293361692E+03  0.22875701060E+03  0.00000000000E+00 0. -1.
         -1    1    3    3    0  502  0.98312702324E+01  0.32443632595E+01  0.12174892921E+02  0.15981482565E+02  0.00000000000E+00 0.  1.
         13    1    5    5    0    0 -0.99916851816E+02  0.70881068281E+02  0.42559189938E+02  0.12968726910E+03  0.00000000000E+00 0. -1.
        -13    1    5    5    0    0 -0.34469985649E+03  0.22025903878E+03 -0.29999385262E+02  0.41016094200E+03  0.00000000000E+00 0.  1.
          3    1    6    6  503    0  0.75473004653E+02 -0.94021586954E+02 -0.51198501291E+02  0.13098671604E+03  0.00000000000E+00 0. -1.
         -3    1    6    6    0  503  0.16716843825E+03 -0.18310655550E+03  0.27136042773E+02  0.24941864853E+03  0.00000000000E+00 0.  1.
<mgrwt>
<rscale>  0 0.11585589E+04</rscale>
<asrwt>0</asrwt>
<pdfrwt beam="1">  1        2 0.99019496E-01 0.11585589E+04</pdfrwt>
<pdfrwt beam="2">  1       -1 0.80210053E-01 0.11585589E+04</pdfrwt>
<totfact> 0.79845709E+01</totfact>
</mgrwt>
</event>
<event>
12    7  0.2492439E-007  0.1094072E+04  0.7818608E-02  0.9210989E-01
         -1   -1    0    0    0  501 -0.00000000000E+00  0.00000000000E+00  0.22157224256E+03  0.22157224256E+03  0.00000000000E+00 0.  1.
          2   -1    0    0  501    0  0.00000000000E+00 -0.00000000000E+00 -0.13505691410E+04  0.13505691410E+04  0.00000000000E+00 0. -1.
         24    2    1    2    0    0  0.12968803221E+02 -0.97599462084E+02 -0.11254518348E+02  0.12718445751E+03  0.79720619620E+02 0.  0.
        254    2    1    2    0    0 -0.12968803221E+02  0.97599462084E+02 -0.11177423801E+04  0.14449569260E+04  0.91041674250E+03 0.  0.
         23    2    4    4    0    0  0.40790508794E+03 -0.10697714945E+03 -0.60925488047E+03  0.74706755858E+03  0.95329724889E+02 0.  0.
         23    2    4    4    0    0 -0.42087389116E+03  0.20457661153E+03 -0.50848749960E+03  0.69788936745E+03  0.97486459063E+02 0.  0.
          2    1    3    3  502    0  0.37835007979E+02 -0.32091788263E+02  0.15810497856E+02  0.52070553533E+02  0.00000000000E+00 0. -1.
         -1    1    3    3    0  502 -0.24866204758E+02 -0.65507673820E+02 -0.27065016204E+02  0.75113903977E+02  0.00000000000E+00 0.  1.
         13    1    5    5    0    0  0.19596640128E+03 -0.92415318723E+02 -0.35321096169E+03  0.41436868248E+03  0.00000000000E+00 0.  1.
        -13    1    5    5    0    0  0.21193868666E+03 -0.14561830724E+02 -0.25604391878E+03  0.33269887610E+03  0.00000000000E+00 0. -1.
          1    1    6    6  503    0 -0.30712382548E+03  0.16031720532E+03 -0.43234453630E+03  0.55402928494E+03  0.00000000000E+00 0. -1.
         -1    1    6    6    0  503 -0.11375006568E+03  0.44259406208E+02 -0.76142963305E+02  0.14386008251E+03  0.00000000000E+00 0.  1.
<mgrwt>
<rscale>  0 0.10940725E+04</rscale>
<asrwt>0</asrwt>
<pdfrwt beam="1">  1        2 0.20777987E+00 0.10940725E+04</pdfrwt>
<pdfrwt beam="2">  1       -1 0.34088037E-01 0.10940725E+04</pdfrwt>
<totfact> 0.14213694E+02</totfact>
</mgrwt>
</event>
<event>
12    7  0.2492439E-007  0.4180803E+04  0.7818608E-02  0.7969034E-01
         -1   -1    0    0    0  501 -0.00000000000E+00  0.00000000000E+00  0.24913591849E+04  0.24913591849E+04  0.00000000000E+00 0.  1.
          2   -1    0    0  501    0  0.00000000000E+00 -0.00000000000E+00 -0.17539732832E+04  0.17539732832E+04  0.00000000000E+00 0. -1.
         24    2    1    2    0    0 -0.90201077254E+03 -0.13276798997E+04  0.15514429638E+04  0.22337160234E+04  0.78451600262E+02 0.  0.
        254    2    1    2    0    0  0.90201077254E+03  0.13276798997E+04 -0.81405706210E+03  0.20116164447E+04  0.89864034544E+03 0.  0.
         23    2    4    4    0    0 -0.14861209647E+03  0.20255729069E+03  0.39277249533E+01  0.26609147210E+03  0.87602701280E+02 0.  0.
         23    2    4    4    0    0  0.10506228690E+04  0.11251226090E+04 -0.81798478706E+03  0.17455249726E+04  0.89716330648E+02 0.  0.
          4    1    3    3  502    0 -0.61599614882E+03 -0.96970157737E+03  0.11091981175E+04  0.15969010202E+04  0.00000000000E+00 0. -1.
         -3    1    3    3    0  502 -0.28601462372E+03 -0.35797832229E+03  0.44224484631E+03  0.63681500320E+03  0.00000000000E+00 0.  1.
         13    1    5    5    0    0 -0.13215070724E+03  0.20958344267E+03  0.73129205460E+01  0.24787599253E+03  0.00000000000E+00 0. -1.
        -13    1    5    5    0    0 -0.16461389228E+02 -0.70261519742E+01 -0.33851955927E+01  0.18215479573E+02  0.00000000000E+00 0.  1.
          1    1    6    6  503    0  0.93682273880E+03  0.96378616046E+03 -0.69822070162E+03  0.15146064688E+04  0.00000000000E+00 0. -1.
         -1    1    6    6    0  503  0.11380013021E+03  0.16133644851E+03 -0.11976408544E+03  0.23091850384E+03  0.00000000000E+00 0.  1.
<mgrwt>
<rscale>  0 0.41808025E+04</rscale>
<asrwt>0</asrwt>
<pdfrwt beam="1">  1        2 0.26984204E+00 0.41808025E+04</pdfrwt>
<pdfrwt beam="2">  1       -1 0.38328603E+00 0.41808025E+04</pdfrwt>
<totfact> 0.75270840E-02</totfact>
</mgrwt>
</event>
<event>
12    7  0.2492439E-007  0.3066500E+04  0.7818608E-02  0.8224992E-01
          2   -1    0    0  501    0  0.00000000000E+00  0.00000000000E+00  0.26993046166E+04  0.26993046166E+04  0.00000000000E+00 0. -1.
         -1   -1    0    0    0  501 -0.00000000000E+00 -0.00000000000E+00 -0.87091151421E+03  0.87091151421E+03  0.00000000000E+00 0.  1.
         24    2    1    2    0    0  0.99146841173E+03 -0.93752547642E+03  0.47164639133E+03  0.14459461847E+04  0.79664421876E+02 0.  0.
        254    2    1    2    0    0 -0.99146841173E+03  0.93752547642E+03  0.13567467111E+04  0.21242699462E+04  0.89988751283E+03 0.  0.
         23    2    4    4    0    0 -0.41436466136E+03 -0.10397906100E+03  0.43095808800E+03  0.61329568252E+03  0.88865082402E+02 0.  0.
         23    2    4    4    0    0 -0.57710375036E+03  0.10415045374E+04  0.92578862307E+03  0.15109742636E+04  0.90433459613E+02 0.  0.
          4    1    3    3  502    0  0.77286036052E+03 -0.72479762540E+03  0.40061185227E+03  0.11327553093E+04  0.00000000000E+00 0. -1.
         -3    1    3    3    0  502  0.21860805121E+03 -0.21272785102E+03  0.71034539058E+02  0.31319087533E+03  0.00000000000E+00 0.  1.
         13    1    5    5    0    0 -0.35514981519E+03 -0.10323597411E+03  0.32711881836E+03  0.49375680137E+03  0.00000000000E+00 0.  1.
        -13    1    5    5    0    0 -0.59214846178E+02 -0.74308688381E+00  0.10383926964E+03  0.11953888114E+03  0.00000000000E+00 0. -1.
          3    1    6    6  503    0 -0.21458718611E+03  0.38422438951E+03  0.28764906675E+03  0.52575472184E+03  0.00000000000E+00 0. -1.
         -3    1    6    6    0  503 -0.36251656426E+03  0.65728014790E+03  0.63813955632E+03  0.98521954179E+03  0.00000000000E+00 0.  1.
<mgrwt>
<rscale>  0 0.30664999E+04</rscale>
<asrwt>0</asrwt>
<pdfrwt beam="1">  1        2 0.41527763E+00 0.30664999E+04</pdfrwt>
<pdfrwt beam="2">  1       -1 0.13398639E+00 0.30664999E+04</pdfrwt>
<totfact> 0.12071549E+00</totfact>
</mgrwt>
</event>
<event>
12    7  0.2492439E-007  0.1492757E+04  0.7818608E-02  0.8889283E-01
          2   -1    0    0  501    0  0.00000000000E+00  0.00000000000E+00  0.22252872392E+04  0.22252872392E+04  0.00000000000E+00 0. -1.
         -1   -1    0    0    0  501 -0.00000000000E+00 -0.00000000000E+00 -0.25034125042E+03  0.25034125042E+03  0.00000000000E+00 0.  1.
         24    2    1    2    0    0  0.15630939292E+03  0.50848441237E+02 -0.99546930454E+02  0.20810245217E+03  0.79867696519E+02 0.  0.
        254    2    1    2    0    0 -0.15630939292E+03 -0.50848441237E+02  0.20744929192E+04  0.22675260374E+04  0.90063048372E+03 0.  0.
         23    2    4    4    0    0 -0.33270941159E+02  0.25441806469E+03  0.18245683412E+04  0.18447784198E+04  0.91226527584E+02 0.  0.
         23    2    4    4    0    0 -0.12303845176E+03 -0.30526650592E+03  0.24992457797E+03  0.42274761757E+03  0.89034562016E+02 0.  0.
          2    1    3    3  502    0  0.32125938379E+02 -0.14892340563E+02  0.83222883754E+00  0.35419631972E+02  0.00000000000E+00 0. -1.
         -1    1    3    3    0  502  0.12418345454E+03  0.65740781799E+02 -0.10037915929E+03  0.17268282020E+03  0.00000000000E+00 0.  1.
         13    1    5    5    0    0 -0.18594785891E+02  0.25677610299E+03  0.17220650283E+04  0.17412029448E+04  0.00000000000E+00 0.  1.
        -13    1    5    5    0    0 -0.14676155269E+02 -0.23580383033E+01  0.10250331291E+03  0.10357547507E+03  0.00000000000E+00 0. -1.
          3    1    6    6  503    0 -0.39760730870E+02 -0.20521822277E+03  0.17453969441E+03  0.27232249191E+03  0.00000000000E+00 0. -1.
         -3    1    6    6    0  503 -0.83277720889E+02 -0.10004828315E+03  0.75384883560E+02  0.15042512565E+03  0.00000000000E+00 0.  1.
<mgrwt>
<rscale>  0 0.14927574E+04</rscale>
<asrwt>0</asrwt>
<pdfrwt beam="1">  1        2 0.34235187E+00 0.14927574E+04</pdfrwt>
<pdfrwt beam="2">  1       -1 0.38514040E-01 0.14927574E+04</pdfrwt>
<totfact> 0.35957534E+01</totfact>
</mgrwt>
</event>
<event>
12    7  0.2492439E-007  0.2604028E+04  0.7818608E-02  0.8366834E-01
          2   -1    0    0  501    0  0.00000000000E+00  0.00000000000E+00  0.15956850295E+04  0.15956850295E+04  0.00000000000E+00 0. -1.
         -1   -1    0    0    0  501 -0.00000000000E+00 -0.00000000000E+00 -0.10623904589E+04  0.10623904589E+04  0.00000000000E+00 0.  1.
         24    2    1    2    0    0 -0.11865411002E+03 -0.38975176900E+03  0.13277035434E+04  0.13909407360E+04  0.77033711792E+02 0.  0.
        254    2    1    2    0    0  0.11865411002E+03  0.38975176900E+03 -0.79440897281E+03  0.12671347523E+04  0.89919943572E+03 0.  0.
         23    2    4    4    0    0  0.32782368939E+03  0.58788373737E+03 -0.47596650148E+03  0.82871258709E+03  0.84526809268E+02 0.  0.
         23    2    4    4    0    0 -0.20916957937E+03 -0.19813196836E+03 -0.31844247133E+03  0.43842216524E+03  0.88318727367E+02 0.  0.
          2    1    3    3  502    0 -0.54394316847E+02 -0.16617441736E+03  0.70030587342E+03  0.72180398657E+03  0.00000000000E+00 0. -1.
         -1    1    3    3    0  502 -0.64259793175E+02 -0.22357735165E+03  0.62739766998E+03  0.66913674947E+03  0.00000000000E+00 0.  1.
         13    1    5    5    0    0  0.18141237938E+03  0.24071874849E+03 -0.20164084396E+03  0.36264996515E+03  0.00000000000E+00 0.  1.
        -13    1    5    5    0    0  0.14641131001E+03  0.34716498888E+03 -0.27432565751E+03  0.46606262194E+03  0.00000000000E+00 0. -1.
          1    1    6    6  503    0 -0.10840708218E+03 -0.13098378112E+03 -0.12831606241E+03  0.21301140405E+03  0.00000000000E+00 0. -1.
         -1    1    6    6    0  503 -0.10076249719E+03 -0.67148187247E+02 -0.19012640893E+03  0.22541076119E+03  0.00000000000E+00 0.  1.
<mgrwt>
<rscale>  0 0.26040281E+04</rscale>
<asrwt>0</asrwt>
<pdfrwt beam="1">  1        2 0.24549000E+00 0.26040281E+04</pdfrwt>
<pdfrwt beam="2">  1       -1 0.16344469E+00 0.26040281E+04</pdfrwt>
<totfact> 0.31083183E+00</totfact>
</mgrwt>
</event>
<event>
12    7  0.2492439E-007  0.1382924E+04  0.7818608E-02  0.8966273E-01
          2   -1    0    0  501    0  0.00000000000E+00  0.00000000000E+00  0.79030717546E+03  0.79030717546E+03  0.00000000000E+00 0. -1.
         -1   -1    0    0    0  501 -0.00000000000E+00 -0.00000000000E+00 -0.60497939881E+03  0.60497939881E+03  0.00000000000E+00 0.  1.
         24    2    1    2    0    0 -0.21624475639E+03 -0.12625310304E+03  0.36489038587E+03  0.44980804823E+03  0.80502458749E+02 0.  0.
        254    2    1    2    0    0  0.21624475639E+03  0.12625310304E+03 -0.17956260921E+03  0.94547852603E+03  0.89385976074E+03 0.  0.
         23    2    4    4    0    0 -0.16746855181E+03 -0.29313119810E+03 -0.74505144978E+02  0.36034114794E+03  0.10160271220E+03 0.  0.
         23    2    4    4    0    0  0.38371330820E+03  0.41938430113E+03 -0.10505746424E+03  0.58513737809E+03  0.90717063012E+02 0.  0.
          2    1    3    3  502    0 -0.18247743354E+03 -0.11337624802E+03  0.35010268461E+03  0.41076036461E+03  0.00000000000E+00 0. -1.
         -1    1    3    3    0  502 -0.33767322853E+02 -0.12876855018E+02  0.14787701260E+02  0.39047683624E+02  0.00000000000E+00 0.  1.
         13    1    5    5    0    0 -0.67168147666E+02 -0.95951106951E+02 -0.75067591320E+02  0.13911620413E+03  0.00000000000E+00 0.  1.
        -13    1    5    5    0    0 -0.10030040415E+03 -0.19718009114E+03  0.56244634246E+00  0.22122494381E+03  0.00000000000E+00 0. -1.
          1    1    6    6  503    0  0.20229997107E+03  0.23490188700E+03 -0.10208950653E+03  0.32638388771E+03  0.00000000000E+00 0. -1.
         -1    1    6    6    0  503  0.18141333714E+03  0.18448241413E+03 -0.29679577055E+01  0.25875349039E+03  0.00000000000E+00 0.  1.
<mgrwt>
<rscale>  0 0.13829238E+04</rscale>
<asrwt>0</asrwt>
<pdfrwt beam="1">  1        2 0.12158572E+00 0.13829238E+04</pdfrwt>
<pdfrwt beam="2">  1       -1 0.93073754E-01 0.13829238E+04</pdfrwt>
<totfact> 0.43687856E+01</totfact>
</mgrwt>
</event>
<event>
12    7  0.2492439E-007  0.1689789E+04  0.7818608E-02  0.8767210E-01
          2   -1    0    0  501    0  0.00000000000E+00  0.00000000000E+00  0.96629831997E+03  0.96629831997E+03  0.00000000000E+00 0. -1.
         -1   -1    0    0    0  501 -0.00000000000E+00 -0.00000000000E+00 -0.73874339335E+03  0.73874339335E+03  0.00000000000E+00 0.  1.
         24    2    1    2    0    0  0.13887303655E+03  0.58161682242E+03  0.11880256323E+02  0.60345352856E+03  0.80319189708E+02 0.  0.
        254    2    1    2    0    0 -0.13887303655E+03 -0.58161682242E+03  0.21567467029E+03  0.11015881848E+04  0.89967611782E+03 0.  0.
         23    2    4    4    0    0 -0.14119178138E+03  0.11608173454E+03 -0.19889456593E+03  0.28510208705E+03  0.91181486397E+02 0.  0.
         23    2    4    4    0    0  0.23187448361E+01 -0.69769855697E+03  0.41456923622E+03  0.81648609770E+03  0.89404939177E+02 0.  0.
          2    1    3    3  502    0  0.13688211583E+03  0.52105778485E+03  0.31790204952E+02  0.53967448144E+03  0.00000000000E+00 0. -1.
         -1    1    3    3    0  502  0.19909207190E+01  0.60559037576E+02 -0.19909948630E+02  0.63779047122E+02  0.00000000000E+00 0.  1.
         13    1    5    5    0    0 -0.10037349547E+03  0.82310225870E+02 -0.73958379727E+02  0.14939763655E+03  0.00000000000E+00 0.  1.
        -13    1    5    5    0    0 -0.40818285910E+02  0.33771508675E+02 -0.12493618620E+03  0.13570445050E+03  0.00000000000E+00 0. -1.
          4    1    6    6  503    0  0.20558774451E+02 -0.12284537119E+03  0.10736199547E+03  0.16443918785E+03  0.00000000000E+00 0. -1.
         -4    1    6    6    0  503 -0.18240029615E+02 -0.57485318578E+03  0.30720724075E+03  0.65204690986E+03  0.00000000000E+00 0.  1.
<mgrwt>
<rscale>  0 0.16897887E+04</rscale>
<asrwt>0</asrwt>
<pdfrwt beam="1">  1        2 0.14866128E+00 0.16897887E+04</pdfrwt>
<pdfrwt beam="2">  1       -1 0.11365283E+00 0.16897887E+04</pdfrwt>
<totfact> 0.20326968E+01</totfact>
</mgrwt>
</event>
<event>
12    7  0.2492439E-007  0.1958324E+04  0.7818608E-02  0.8626357E-01
         -1   -1    0    0    0  501 -0.00000000000E+00  0.00000000000E+00  0.85070384639E+03  0.85070384639E+03  0.00000000000E+00 0.  1.
          2   -1    0    0  501    0  0.00000000000E+00 -0.00000000000E+00 -0.11270180867E+04  0.11270180867E+04  0.00000000000E+00 0. -1.
         24    2    1    2    0    0 -0.47246001919E+03  0.38227413196E+03 -0.58627048894E+03  0.84827217080E+03  0.80626347131E+02 0.  0.
        254    2    1    2    0    0  0.47246001919E+03 -0.38227413196E+03  0.30995624863E+03  0.11294497623E+04  0.90012882844E+03 0.  0.
         23    2    4    4    0    0  0.57146696781E+03  0.83388713279E+02  0.71953583982E+02  0.58915648241E+03  0.91650803149E+02 0.  0.
         23    2    4    4    0    0 -0.99006948621E+02 -0.46566284524E+03  0.23800266465E+03  0.54029327989E+03  0.92883252534E+02 0.  0.
          4    1    3    3  502    0 -0.21974486314E+03  0.22955448619E+03 -0.30110243846E+03  0.43777362352E+03  0.00000000000E+00 0. -1.
         -3    1    3    3    0  502 -0.25271515605E+03  0.15271964577E+03 -0.28516805049E+03  0.41049854728E+03  0.00000000000E+00 0.  1.
         13    1    5    5    0    0  0.26047327089E+03  0.84133191743E+02  0.30819949411E+02  0.27545342271E+03  0.00000000000E+00 0. -1.
        -13    1    5    5    0    0  0.31099369692E+03 -0.74447846389E+00  0.41133634571E+02  0.31370305970E+03  0.00000000000E+00 0.  1.
          4    1    6    6  503    0 -0.74383022449E+01 -0.17865041984E+03  0.51914792413E+02  0.18618927606E+03  0.00000000000E+00 0. -1.
         -4    1    6    6    0  503 -0.91568646376E+02 -0.28701242540E+03  0.18608787224E+03  0.35410400383E+03  0.00000000000E+00 0.  1.
<mgrwt>
<rscale>  0 0.19583244E+04</rscale>
<asrwt>0</asrwt>
<pdfrwt beam="1">  1        2 0.17338740E+00 0.19583244E+04</pdfrwt>
<pdfrwt beam="2">  1       -1 0.13087752E+00 0.19583244E+04</pdfrwt>
<totfact> 0.11114531E+01</totfact>
</mgrwt>
</event>
<event>
12    7  0.2492439E-007  0.1361376E+04  0.7818608E-02  0.8982261E-01
          2   -1    0    0  501    0  0.00000000000E+00  0.00000000000E+00  0.31644588402E+03  0.31644588402E+03  0.00000000000E+00 0. -1.
         -1   -1    0    0    0  501 -0.00000000000E+00 -0.00000000000E+00 -0.14641873489E+04  0.14641873489E+04  0.00000000000E+00 0.  1.
         24    2    1    2    0    0  0.34836890447E+03  0.69989558120E+02 -0.48755066324E+03  0.60920491854E+03  0.84649581778E+02 0.  0.
        254    2    1    2    0    0 -0.34836890447E+03 -0.69989558120E+02 -0.66019080168E+03  0.11714283144E+04  0.90007386884E+03 0.  0.
         23    2    4    4    0    0 -0.37126577393E+03  0.36058880569E+03 -0.32647818008E+03  0.61852246684E+03  0.90108147490E+02 0.  0.
         23    2    4    4    0    0  0.22896869455E+02 -0.43057836381E+03 -0.33371262160E+03  0.55290584758E+03  0.91753847107E+02 0.  0.
          2    1    3    3  502    0  0.30839003942E+03  0.88939486936E+02 -0.42445766175E+03  0.53214561482E+03  0.00000000000E+00 0. -1.
         -1    1    3    3    0  502  0.39978865053E+02 -0.18949928815E+02 -0.63093001485E+02  0.77059303718E+02  0.00000000000E+00 0.  1.
         13    1    5    5    0    0 -0.27615786434E+03  0.31778154080E+03 -0.26444143528E+03  0.49716953487E+03  0.00000000000E+00 0. -1.
        -13    1    5    5    0    0 -0.95107909585E+02  0.42807264889E+02 -0.62036744804E+02  0.12135293197E+03  0.00000000000E+00 0.  1.
          2    1    6    6  503    0  0.89679606695E+01 -0.19776178357E+03 -0.21112150725E+03  0.28941741168E+03  0.00000000000E+00 0. -1.
         -2    1    6    6    0  503  0.13928908785E+02 -0.23281658024E+03 -0.12259111435E+03  0.26348843590E+03  0.00000000000E+00 0.  1.
<mgrwt>
<rscale>  0 0.13613759E+04</rscale>
<asrwt>0</asrwt>
<pdfrwt beam="1">  1        2 0.48683982E-01 0.13613759E+04</pdfrwt>
<pdfrwt beam="2">  1       -1 0.22525959E+00 0.13613759E+04</pdfrwt>
<totfact> 0.11739286E+01</totfact>
</mgrwt>
</event>
<event>
12    7  0.2492439E-007  0.1162032E+04  0.7818608E-02  0.9146755E-01
         -1   -1    0    0    0  501 -0.00000000000E+00  0.00000000000E+00  0.23645688459E+03  0.23645688459E+03  0.00000000000E+00 0.  1.
          2   -1    0    0  501    0  0.00000000000E+00 -0.00000000000E+00 -0.14276584988E+04  0.14276584988E+04  0.00000000000E+00 0. -1.
         24    2    1    2    0    0 -0.88444628636E+02  0.79493259886E+01  0.47737332108E+02  0.13001737641E+03  0.82097631966E+02 0.  0.
        254    2    1    2    0    0  0.88444628636E+02 -0.79493259886E+01 -0.12389389463E+04  0.15340980070E+04  0.90033401479E+03 0.  0.
         23    2    4    4    0    0  0.27662510488E+03  0.37003128595E+03 -0.68570857522E+03  0.83189445935E+03  0.91692639410E+02 0.  0.
         23    2    4    4    0    0 -0.18818047624E+03 -0.37798061194E+03 -0.55323037107E+03  0.70220354762E+03  0.93513336819E+02 0.  0.
          4    1    3    3  502    0 -0.32126177049E+02  0.39100138914E+00  0.63399011960E+02  0.71075163394E+02  0.00000000000E+00 0. -1.
         -3    1    3    3    0  502 -0.56318451587E+02  0.75583245994E+01 -0.15661679852E+02  0.58942213020E+02  0.00000000000E+00 0.  1.
         13    1    5    5    0    0  0.19724759424E+03  0.31401528985E+03 -0.50242514800E+03  0.62445435785E+03  0.00000000000E+00 0.  1.
        -13    1    5    5    0    0  0.79377510641E+02  0.56015996105E+02 -0.18328342722E+03  0.20744010150E+03  0.00000000000E+00 0. -1.
          2    1    6    6  503    0 -0.24462002960E+02 -0.48664519712E+01 -0.29030092820E+02  0.38272943873E+02  0.00000000000E+00 0. -1.
         -2    1    6    6    0  503 -0.16371847328E+03 -0.37311415997E+03 -0.52420027825E+03  0.66393060374E+03  0.00000000000E+00 0.  1.
<mgrwt>
<rscale>  0 0.11620322E+04</rscale>
<asrwt>0</asrwt>
<pdfrwt beam="1">  1        2 0.21963977E+00 0.11620322E+04</pdfrwt>
<pdfrwt beam="2">  1       -1 0.36377983E-01 0.11620322E+04</pdfrwt>
<totfact> 0.11376650E+02</totfact>
</mgrwt>
</event>
<event>
12    7  0.2492439E-007  0.2288014E+04  0.7818608E-02  0.8482662E-01
         -3   -1    0    0    0  501 -0.00000000000E+00  0.00000000000E+00  0.10302519381E+04  0.10302519381E+04  0.00000000000E+00 0.  1.
          2   -1    0    0  501    0  0.00000000000E+00 -0.00000000000E+00 -0.12703227858E+04  0.12703227858E+04  0.00000000000E+00 0. -1.
         24    2    1    2    0    0  0.22346232548E+03 -0.72379788226E+03 -0.70328357300E+03  0.10373673288E+04  0.87774743185E+02 0.  0.
        254    2    1    2    0    0 -0.22346232548E+03  0.72379788226E+03  0.46321272532E+03  0.12632073951E+04  0.89850326041E+03 0.  0.
         23    2    4    4    0    0 -0.30817666788E+03  0.89754082282E+03  0.43436426005E+03  0.10478234278E+04  0.93323298899E+02 0.  0.
         23    2    4    4    0    0  0.84714342401E+02 -0.17374294057E+03  0.28848465266E+02  0.21538396737E+03  0.90525633086E+02 0.  0.
          4    1    3    3  502    0  0.13405637781E+03 -0.51578235645E+03 -0.53612815380E+03  0.75593382577E+03  0.00000000000E+00 0. -1.
         -3    1    3    3    0  502  0.89405947676E+02 -0.20801552581E+03 -0.16715541920E+03  0.28143350303E+03  0.00000000000E+00 0.  1.
         13    1    5    5    0    0 -0.12644384984E+03  0.29726860596E+03  0.10669048387E+03  0.34020513018E+03  0.00000000000E+00 0.  1.
        -13    1    5    5    0    0 -0.18173281805E+03  0.60027221686E+03  0.32767377619E+03  0.70761829760E+03  0.00000000000E+00 0. -1.
          2    1    6    6  503    0  0.50005753496E+02 -0.10777354620E+03 -0.27486996553E+02  0.12194772496E+03  0.00000000000E+00 0. -1.
         -2    1    6    6    0  503  0.34708588905E+02 -0.65969394365E+02  0.56335461820E+02  0.93436242407E+02  0.00000000000E+00 0.  1.
<mgrwt>
<rscale>  0 0.22880144E+04</rscale>
<asrwt>0</asrwt>
<pdfrwt beam="1">  1        2 0.19543428E+00 0.22880144E+04</pdfrwt>
<pdfrwt beam="2">  1       -3 0.15850030E+00 0.22880144E+04</pdfrwt>
<totfact> 0.27563979E+00</totfact>
</mgrwt>
</event>
<event>
12    7  0.2492439E-007  0.1501959E+04  0.7818608E-02  0.8883151E-01
         -1   -1    0    0    0  501 -0.00000000000E+00  0.00000000000E+00  0.32021664330E+03  0.32021664330E+03  0.00000000000E+00 0.  1.
          2   -1    0    0  501    0  0.00000000000E+00 -0.00000000000E+00 -0.17612145463E+04  0.17612145463E+04  0.00000000000E+00 0. -1.
         24    2    1    2    0    0  0.10094260682E+03 -0.36958174122E+03 -0.85665080765E+03  0.94181137919E+03  0.79862346690E+02 0.  0.
        254    2    1    2    0    0 -0.10094260682E+03  0.36958174122E+03 -0.58434709533E+03  0.11396198104E+04  0.90027313139E+03 0.  0.
         23    2    4    4    0    0 -0.24009496478E+03  0.26398682266E+03 -0.77958904869E+03  0.86214753555E+03  0.90579542703E+02 0.  0.
         23    2    4    4    0    0  0.13915235796E+03  0.10559491856E+03  0.19524195336E+03  0.27747227485E+03  0.91420880583E+02 0.  0.
          2    1    3    3  502    0  0.63668472995E+02 -0.10132668758E+03 -0.29189544122E+03  0.31547380347E+03  0.00000000000E+00 0. -1.
         -1    1    3    3    0  502  0.37274133828E+02 -0.26825505364E+03 -0.56475536643E+03  0.62633757572E+03  0.00000000000E+00 0.  1.
         13    1    5    5    0    0 -0.50651001020E+01  0.93464224568E+01 -0.19694889225E+01  0.10811555781E+02  0.00000000000E+00 0. -1.
        -13    1    5    5    0    0 -0.23502986468E+03  0.25464040020E+03 -0.77761955977E+03  0.85133597977E+03  0.00000000000E+00 0.  1.
          1    1    6    6  503    0 -0.12331444871E+01  0.29761172424E+02  0.65024300416E+02  0.71522078228E+02  0.00000000000E+00 0. -1.
         -1    1    6    6    0  503  0.14038550244E+03  0.75833746138E+02  0.13021765294E+03  0.20595019662E+03  0.00000000000E+00 0.  1.
<mgrwt>
<rscale>  0 0.15019590E+04</rscale>
<asrwt>0</asrwt>
<pdfrwt beam="1">  1        2 0.27095609E+00 0.15019590E+04</pdfrwt>
<pdfrwt beam="2">  1       -1 0.49264098E-01 0.15019590E+04</pdfrwt>
<totfact> 0.41201721E+01</totfact>
</mgrwt>
</event>
<event>
12    7  0.2492439E-007  0.2826114E+04  0.7818608E-02  0.8295206E-01
         -1   -1    0    0    0  501 -0.00000000000E+00  0.00000000000E+00  0.17373394946E+04  0.17373394946E+04  0.00000000000E+00 0.  1.
          2   -1    0    0  501    0  0.00000000000E+00 -0.00000000000E+00 -0.11493035624E+04  0.11493035624E+04  0.00000000000E+00 0. -1.
         24    2    1    2    0    0 -0.98309461358E+03 -0.16930590837E+03  0.10659280101E+04  0.14620011560E+04  0.78136723706E+02 0.  0.
        254    2    1    2    0    0  0.98309461358E+03  0.16930590837E+03 -0.47789207791E+03  0.14246419009E+04  0.89782191880E+03 0.  0.
         23    2    4    4    0    0  0.68907508973E+03  0.52331413923E+03 -0.26397912811E+03  0.90926058106E+03  0.91584150260E+02 0.  0.
         23    2    4    4    0    0  0.29401952385E+03 -0.35400823086E+03 -0.21391294980E+03  0.51538131986E+03  0.89943575942E+02 0.  0.
          4    1    3    3  502    0 -0.30375481601E+03 -0.83514874804E+02  0.36437458807E+03  0.48167474814E+03  0.00000000000E+00 0. -1.
         -3    1    3    3    0  502 -0.67933979757E+03 -0.85791033569E+02  0.70155342202E+03  0.98032640786E+03  0.00000000000E+00 0.  1.
         13    1    5    5    0    0  0.12016685060E+03  0.97219218034E+02 -0.84535122541E+02  0.17617558083E+03  0.00000000000E+00 0. -1.
        -13    1    5    5    0    0  0.56890823913E+03  0.42609492120E+03 -0.17944400557E+03  0.73308500023E+03  0.00000000000E+00 0.  1.
          1    1    6    6  503    0  0.20623277640E+03 -0.25145884552E+03 -0.10441719734E+03  0.34156472322E+03  0.00000000000E+00 0. -1.
         -1    1    6    6    0  503  0.87786747453E+02 -0.10254938534E+03 -0.10949575245E+03  0.17381659664E+03  0.00000000000E+00 0.  1.
<mgrwt>
<rscale>  0 0.28261143E+04</rscale>
<asrwt>0</asrwt>
<pdfrwt beam="1">  1        2 0.17681593E+00 0.28261143E+04</pdfrwt>
<pdfrwt beam="2">  1       -1 0.26728300E+00 0.28261143E+04</pdfrwt>
<totfact> 0.10819082E+00</totfact>
</mgrwt>
</event>
<event>
12    7  0.2492439E-007  0.1240404E+04  0.7818608E-02  0.9078208E-01
          2   -1    0    0  501    0  0.00000000000E+00  0.00000000000E+00  0.16117471691E+04  0.16117471691E+04  0.00000000000E+00 0. -1.
         -1   -1    0    0    0  501 -0.00000000000E+00 -0.00000000000E+00 -0.23865422094E+03  0.23865422094E+03  0.00000000000E+00 0.  1.
         24    2    1    2    0    0 -0.21489920549E+03 -0.13283818265E+03  0.52648102027E+03  0.58912275996E+03  0.77818444544E+02 0.  0.
        254    2    1    2    0    0  0.21489920549E+03  0.13283818265E+03  0.84661192793E+03  0.12612786301E+04  0.90013575364E+03 0.  0.
         23    2    4    4    0    0  0.43046014791E+03 -0.17627432722E+03  0.70758434437E+03  0.85169461293E+03  0.91321037620E+02 0.  0.
         23    2    4    4    0    0 -0.21556094242E+03  0.30911250986E+03  0.13902758356E+03  0.40958401719E+03  0.80083297239E+02 0.  0.
          4    1    3    3  502    0  0.62222433796E+00 -0.14006864626E+02  0.60928633926E+02  0.62521019281E+02  0.00000000000E+00 0. -1.
         -3    1    3    3    0  502 -0.21552142983E+03 -0.11883131802E+03  0.46555238634E+03  0.52660174068E+03  0.00000000000E+00 0.  1.
         13    1    5    5    0    0  0.32765169605E+03 -0.12678184544E+03  0.45768699913E+03  0.57698064043E+03  0.00000000000E+00 0. -1.
        -13    1    5    5    0    0  0.10280845186E+03 -0.49492481781E+02  0.24989734524E+03  0.27471397250E+03  0.00000000000E+00 0.  1.
          1    1    6    6  503    0 -0.85292909715E+02  0.18895721970E+03  0.87503017188E+02  0.22502553042E+03  0.00000000000E+00 0. -1.
         -1    1    6    6    0  503 -0.13026803270E+03  0.12015529016E+03  0.51524566370E+02  0.18455848677E+03  0.00000000000E+00 0.  1.
<mgrwt>
<rscale>  0 0.12404036E+04</rscale>
<asrwt>0</asrwt>
<pdfrwt beam="1">  1        2 0.24796110E+00 0.12404036E+04</pdfrwt>
<pdfrwt beam="2">  1       -1 0.36716035E-01 0.12404036E+04</pdfrwt>
<totfact> 0.87649586E+01</totfact>
</mgrwt>
</event>
<event>
12    7  0.2492439E-007  0.4172185E+04  0.7818608E-02  0.7970684E-01
          2   -1    0    0  501    0  0.00000000000E+00  0.00000000000E+00  0.30779917564E+04  0.30779917564E+04  0.00000000000E+00 0. -1.
         -1   -1    0    0    0  501 -0.00000000000E+00 -0.00000000000E+00 -0.14138381880E+04  0.14138381880E+04  0.00000000000E+00 0.  1.
         24    2    1    2    0    0 -0.16104650125E+04  0.96815310976E+03  0.14924484655E+04  0.24006611684E+04  0.69667947123E+02 0.  0.
        254    2    1    2    0    0  0.16104650125E+04 -0.96815310976E+03  0.17170510294E+03  0.20911687760E+04  0.90143563646E+03 0.  0.
         23    2    4    4    0    0  0.10943937174E+04 -0.36249410310E+03 -0.25421486720E+03  0.11840935294E+04  0.91393130539E+02 0.  0.
         23    2    4    4    0    0  0.51607129517E+03 -0.60565900666E+03  0.42591997015E+03  0.90707524655E+03  0.90693262631E+02 0.  0.
          2    1    3    3  502    0 -0.10425770416E+04  0.58848076744E+03  0.95891840711E+03  0.15338842893E+04  0.00000000000E+00 0. -1.
         -1    1    3    3    0  502 -0.56788797090E+03  0.37967234233E+03  0.53353005835E+03  0.86677687912E+03  0.00000000000E+00 0.  1.
         13    1    5    5    0    0  0.51917946679E+03 -0.22004558304E+03 -0.12596295347E+03  0.57778373376E+03  0.00000000000E+00 0. -1.
        -13    1    5    5    0    0  0.57521425058E+03 -0.14244852006E+03 -0.12825191373E+03  0.60630979566E+03  0.00000000000E+00 0.  1.
          4    1    6    6  503    0  0.70550068700E+01 -0.71917109846E+01 -0.47291502641E+01  0.11129181957E+02  0.00000000000E+00 0. -1.
         -4    1    6    6    0  503  0.50901628830E+03 -0.59846729568E+03  0.43064912041E+03  0.89594606459E+03  0.00000000000E+00 0.  1.
<mgrwt>
<rscale>  0 0.41721852E+04</rscale>
<asrwt>0</asrwt>
<pdfrwt beam="1">  1        2 0.47353719E+00 0.41721852E+04</pdfrwt>
<pdfrwt beam="2">  1       -1 0.21751357E+00 0.41721852E+04</pdfrwt>
<totfact> 0.15694106E-01</totfact>
</mgrwt>
</event>
<event>
12    7  0.2492439E-007  0.2422162E+04  0.7818608E-02  0.8431253E-01
          2   -1    0    0  501    0  0.00000000000E+00  0.00000000000E+00  0.15456827414E+04  0.15456827414E+04  0.00000000000E+00 0. -1.
         -1   -1    0    0    0  501 -0.00000000000E+00 -0.00000000000E+00 -0.94891252399E+03  0.94891252399E+03  0.00000000000E+00 0.  1.
         24    2    1    2    0    0 -0.10026813398E+04 -0.17377911934E+03  0.49352571907E+03  0.11340401089E+04  0.83128104839E+02 0.  0.
        254    2    1    2    0    0  0.10026813398E+04  0.17377911934E+03  0.10324449834E+03  0.13605551564E+04  0.89715208064E+03 0.  0.
         23    2    4    4    0    0  0.83958459206E+03  0.90007685425E+02  0.44703821319E+03  0.95961941460E+03  0.89568890585E+02 0.  0.
         23    2    4    4    0    0  0.16309674773E+03  0.83771433914E+02 -0.34379371485E+03  0.40093574184E+03  0.94536492716E+02 0.  0.
          2    1    3    3  502    0 -0.22803761461E+03 -0.62936431076E+02  0.14444417734E+03  0.27717551912E+03  0.00000000000E+00 0. -1.
         -1    1    3    3    0  502 -0.77464372518E+03 -0.11084268826E+03  0.34908154173E+03  0.85686458982E+03  0.00000000000E+00 0.  1.
         13    1    5    5    0    0  0.72592116691E+03  0.47529536705E+02  0.39217469242E+03  0.82645120050E+03  0.00000000000E+00 0.  1.
        -13    1    5    5    0    0  0.11366342515E+03  0.42478148721E+02  0.54863520765E+02  0.13316821410E+03  0.00000000000E+00 0. -1.
          3    1    6    6  503    0 -0.11791899288E+02  0.32284966361E+00 -0.28639138762E+02  0.30973430384E+02  0.00000000000E+00 0. -1.
         -3    1    6    6    0  503  0.17488864702E+03  0.83448584250E+02 -0.31515457609E+03  0.36996231146E+03  0.00000000000E+00 0.  1.
<mgrwt>
<rscale>  0 0.24221624E+04</rscale>
<asrwt>0</asrwt>
<pdfrwt beam="1">  1        2 0.23779734E+00 0.24221624E+04</pdfrwt>
<pdfrwt beam="2">  1       -1 0.14598654E+00 0.24221624E+04</pdfrwt>
<totfact> 0.45892826E+00</totfact>
</mgrwt>
</event>
<event>
12    7  0.2492439E-007  0.3330489E+04  0.7818608E-02  0.8155181E-01
          2   -1    0    0  501    0  0.00000000000E+00  0.00000000000E+00  0.16342911584E+04  0.16342911584E+04  0.00000000000E+00 0. -1.
         -1   -1    0    0    0  501 -0.00000000000E+00 -0.00000000000E+00 -0.16967839090E+04  0.16967839090E+04  0.00000000000E+00 0.  1.
         24    2    1    2    0    0  0.12421238197E+04 -0.78363440383E+03 -0.50035106675E+03  0.15535947975E+04  0.79694055448E+02 0.  0.
        254    2    1    2    0    0 -0.12421238197E+04  0.78363440383E+03  0.43785831612E+03  0.17774802699E+04  0.90042309080E+03 0.  0.
         23    2    4    4    0    0 -0.38364959191E+03  0.23799136265E+02  0.48618526569E+03  0.62576731595E+03  0.86343574651E+02 0.  0.
         23    2    4    4    0    0 -0.85847422782E+03  0.75983526756E+03 -0.48326949567E+02  0.11517129539E+04  0.98891862893E+02 0.  0.
          4    1    3    3  502    0  0.70493973573E+03 -0.48763979828E+03 -0.30756373482E+03  0.91067450544E+03  0.00000000000E+00 0. -1.
         -3    1    3    3    0  502  0.53718408400E+03 -0.29599460555E+03 -0.19278733193E+03  0.64292029208E+03  0.00000000000E+00 0.  1.
         13    1    5    5    0    0 -0.91702235689E+02 -0.24632792472E+02  0.86488698304E+02  0.12843819303E+03  0.00000000000E+00 0.  1.
        -13    1    5    5    0    0 -0.29194735622E+03  0.48431928738E+02  0.39969656739E+03  0.49732912292E+03  0.00000000000E+00 0. -1.
          1    1    6    6  503    0 -0.27109869120E+03  0.18068348562E+03 -0.10208996053E+02  0.32595282779E+03  0.00000000000E+00 0. -1.
         -1    1    6    6    0  503 -0.58737553662E+03  0.57915178195E+03 -0.38117953514E+02  0.82576012615E+03  0.00000000000E+00 0.  1.
<mgrwt>
<rscale>  0 0.33304888E+04</rscale>
<asrwt>0</asrwt>
<pdfrwt beam="1">  1        2 0.25142941E+00 0.33304888E+04</pdfrwt>
<pdfrwt beam="2">  1       -1 0.26104368E+00 0.33304888E+04</pdfrwt>
<totfact> 0.59771520E-01</totfact>
</mgrwt>
</event>
<event>
12    7  0.2492439E-007  0.1834954E+04  0.7818608E-02  0.8687929E-01
         -1   -1    0    0    0  501 -0.00000000000E+00  0.00000000000E+00  0.13483748524E+04  0.13483748524E+04  0.00000000000E+00 0.  1.
          2   -1    0    0  501    0  0.00000000000E+00 -0.00000000000E+00 -0.62428018593E+03  0.62428018593E+03  0.00000000000E+00 0. -1.
         24    2    1    2    0    0 -0.59138079284E+03 -0.44395435179E+02 -0.11029879735E+03  0.60865226082E+03  0.81176062333E+02 0.  0.
        254    2    1    2    0    0  0.59138079284E+03  0.44395435179E+02  0.83439346379E+03  0.13640027775E+04  0.90143714576E+03 0.  0.
         23    2    4    4    0    0  0.18519177723E+02  0.39118562913E+03  0.29973595533E+03  0.50225947572E+03  0.95151361780E+02 0.  0.
         23    2    4    4    0    0  0.57286161512E+03 -0.34679019395E+03  0.53465750846E+03  0.86174330176E+03  0.91153705797E+02 0.  0.
          2    1    3    3  502    0 -0.52340382524E+03 -0.56070079802E+02 -0.11735065178E+03  0.53932049247E+03  0.00000000000E+00 0. -1.
         -1    1    3    3    0  502 -0.67976967607E+02  0.11674644623E+02  0.70518544313E+01  0.69331768354E+02  0.00000000000E+00 0.  1.
         13    1    5    5    0    0  0.44750260697E+02  0.32652711574E+03  0.27142099129E+03  0.42695655243E+03  0.00000000000E+00 0.  1.
        -13    1    5    5    0    0 -0.26231082973E+02  0.64658513387E+02  0.28314964040E+02  0.75302923290E+02  0.00000000000E+00 0. -1.
          1    1    6    6  503    0  0.34714144285E+02 -0.17509216571E+02  0.74980882371E+01  0.39596285250E+02  0.00000000000E+00 0. -1.
         -1    1    6    6    0  503  0.53814747084E+03 -0.32928097738E+03  0.52715942022E+03  0.82214701651E+03  0.00000000000E+00 0.  1.
<mgrwt>
<rscale>  0 0.18349536E+04</rscale>
<asrwt>0</asrwt>
<pdfrwt beam="1">  1        2 0.96043106E-01 0.18349536E+04</pdfrwt>
<pdfrwt beam="2">  1       -1 0.20744228E+00 0.18349536E+04</pdfrwt>
<totfact> 0.67979377E+00</totfact>
</mgrwt>
</event>
<event>
12    7  0.2492439E-007  0.2165354E+04  0.7818608E-02  0.8532988E-01
         -1   -1    0    0    0  501 -0.00000000000E+00  0.00000000000E+00  0.95596319425E+03  0.95596319425E+03  0.00000000000E+00 0.  1.
          2   -1    0    0  501    0  0.00000000000E+00 -0.00000000000E+00 -0.12261872454E+04  0.12261872454E+04  0.00000000000E+00 0. -1.
         24    2    1    2    0    0 -0.87231140161E+03  0.11172620246E+03 -0.27417450503E+01  0.88328496818E+03  0.82309733041E+02 0.  0.
        254    2    1    2    0    0  0.87231140161E+03 -0.11172620246E+03 -0.26748230609E+03  0.12988654715E+04  0.91765723621E+03 0.  0.
         23    2    4    4    0    0 -0.12954566566E+03 -0.16016146328E+03 -0.17139365933E+03  0.28701255955E+03  0.10279420739E+03 0.  0.
         23    2    4    4    0    0  0.10018570673E+04  0.48435260827E+02 -0.96088646766E+02  0.10118529119E+04  0.92464747654E+02 0.  0.
          4    1    3    3  502    0 -0.68687055727E+02 -0.13372960050E+02 -0.55279428722E+00  0.69978948738E+02  0.00000000000E+00 0. -1.
         -1    1    3    3    0  502 -0.80362434589E+03  0.12509916251E+03 -0.21889507630E+01  0.81330601945E+03  0.00000000000E+00 0.  1.
         13    1    5    5    0    0 -0.79903555951E+02 -0.13870855619E+03 -0.75651900399E+02  0.17705324580E+03  0.00000000000E+00 0. -1.
        -13    1    5    5    0    0 -0.49642109707E+02 -0.21452907092E+02 -0.95741758928E+02  0.10995931376E+03  0.00000000000E+00 0.  1.
          2    1    6    6  503    0  0.18065151987E+03  0.98187007437E+01 -0.53391070270E+02  0.18863187669E+03  0.00000000000E+00 0. -1.
         -2    1    6    6    0  503  0.82120554740E+03  0.38616560083E+02 -0.42697576496E+02  0.82322103522E+03  0.00000000000E+00 0.  1.
<mgrwt>
<rscale>  0 0.21653544E+04</rscale>
<asrwt>0</asrwt>
<pdfrwt beam="1">  1        2 0.18864419E+00 0.21653544E+04</pdfrwt>
<pdfrwt beam="2">  1       -1 0.14707126E+00 0.21653544E+04</pdfrwt>
<totfact> 0.70245040E+00</totfact>
</mgrwt>
</event>
<event>
12    7  0.2492439E-007  0.2337801E+04  0.7818608E-02  0.8463164E-01
         -1   -1    0    0    0  501 -0.00000000000E+00  0.00000000000E+00  0.12306939385E+04  0.12306939385E+04  0.00000000000E+00 0.  1.
          2   -1    0    0  501    0  0.00000000000E+00 -0.00000000000E+00 -0.11102100099E+04  0.11102100099E+04  0.00000000000E+00 0. -1.
         24    2    1    2    0    0 -0.93160496539E+02  0.91968163068E+03 -0.31205527007E+03  0.97894765278E+03  0.80416636265E+02 0.  0.
        254    2    1    2    0    0  0.93160496539E+02 -0.91968163068E+03  0.43253919869E+03  0.13619562957E+04  0.90185454097E+03 0.  0.
         23    2    4    4    0    0  0.28213447916E+03 -0.65413274251E+03  0.64308645773E+03  0.96401000472E+03  0.90915278872E+02 0.  0.
         23    2    4    4    0    0 -0.18897398263E+03 -0.26554888817E+03 -0.21054725904E+03  0.39794629098E+03  0.88338689695E+02 0.  0.
          2    1    3    3  502    0 -0.89445211500E+02  0.48484388050E+03 -0.16541674406E+03  0.52003531951E+03  0.00000000000E+00 0. -1.
         -1    1    3    3    0  502 -0.37152850391E+01  0.43483775018E+03 -0.14663852601E+03  0.45891233327E+03  0.00000000000E+00 0.  1.
         13    1    5    5    0    0  0.84688181566E+02 -0.29464165138E+03  0.30550429572E+03  0.43280326423E+03  0.00000000000E+00 0. -1.
        -13    1    5    5    0    0  0.19744629760E+03 -0.35949109112E+03  0.33758216201E+03  0.53120674049E+03  0.00000000000E+00 0.  1.
          2    1    6    6  503    0 -0.97133129234E+02 -0.82761379312E+02 -0.11653676430E+03  0.17281524277E+03  0.00000000000E+00 0. -1.
         -2    1    6    6    0  503 -0.91840853391E+02 -0.18278750886E+03 -0.94010494741E+02  0.22513104821E+03  0.00000000000E+00 0.  1.
<mgrwt>
<rscale>  0 0.23378013E+04</rscale>
<asrwt>0</asrwt>
<pdfrwt beam="1">  1        2 0.17080154E+00 0.23378013E+04</pdfrwt>
<pdfrwt beam="2">  1       -1 0.18933753E+00 0.23378013E+04</pdfrwt>
<totfact> 0.39516926E+00</totfact>
</mgrwt>
</event>
<event>
12    7  0.2492439E-007  0.1235348E+04  0.7818608E-02  0.9082467E-01
          2   -1    0    0  501    0  0.00000000000E+00  0.00000000000E+00  0.34307422014E+04  0.34307422014E+04  0.00000000000E+00 0. -1.
         -1   -1    0    0    0  501 -0.00000000000E+00 -0.00000000000E+00 -0.11120667942E+03  0.11120667942E+03  0.00000000000E+00 0.  1.
         24    2    1    2    0    0 -0.19569309751E+03 -0.33790083045E+02  0.13680754911E+04  0.13844133530E+04  0.74378925701E+02 0.  0.
        254    2    1    2    0    0  0.19569309751E+03  0.33790083045E+02  0.19514600310E+04  0.21575355279E+04  0.89851307362E+03 0.  0.
         23    2    4    4    0    0 -0.35392627515E+02  0.46955745326E+02 -0.64817942962E+02  0.12584280696E+03  0.90429896781E+02 0.  0.
         23    2    4    4    0    0  0.23108572503E+03 -0.13165662281E+02  0.20162779739E+04  0.20316927209E+04  0.93938794446E+02 0.  0.
          4    1    3    3  502    0 -0.89827827101E+02  0.21797731512E+02  0.61202745075E+03  0.61896831914E+03  0.00000000000E+00 0. -1.
         -3    1    3    3    0  502 -0.10586527041E+03 -0.55587814557E+02  0.75604804030E+03  0.76544503385E+03  0.00000000000E+00 0.  1.
         13    1    5    5    0    0 -0.81972362599E+01 -0.11784756453E+02 -0.59147282946E+02  0.60864408704E+02  0.00000000000E+00 0. -1.
        -13    1    5    5    0    0 -0.27195391255E+02  0.58740501779E+02 -0.56706600163E+01  0.64978398255E+02  0.00000000000E+00 0.  1.
          2    1    6    6  503    0  0.56795358242E+02  0.37620100492E+02  0.52110210285E+03  0.52553628445E+03  0.00000000000E+00 0. -1.
         -2    1    6    6    0  503  0.17429036678E+03 -0.50785762773E+02  0.14951758711E+04  0.15061564365E+04  0.00000000000E+00 0.  1.
<mgrwt>
<rscale>  0 0.12353484E+04</rscale>
<asrwt>0</asrwt>
<pdfrwt beam="1">  1        2 0.52780641E+00 0.12353484E+04</pdfrwt>
<pdfrwt beam="2">  1       -1 0.17108723E-01 0.12353484E+04</pdfrwt>
<totfact> 0.27611736E+01</totfact>
</mgrwt>
</event>
<event>
12    7  0.2492439E-007  0.1888571E+04  0.7818608E-02  0.8660566E-01
          2   -1    0    0  501    0  0.00000000000E+00  0.00000000000E+00  0.26600993505E+04  0.26600993505E+04  0.00000000000E+00 0. -1.
         -1   -1    0    0    0  501 -0.00000000000E+00 -0.00000000000E+00 -0.33520383036E+03  0.33520383036E+03  0.00000000000E+00 0.  1.
         24    2    1    2    0    0  0.43811708538E+03 -0.32446433100E+03  0.13782072207E+03  0.56791016502E+03  0.79395979199E+02 0.  0.
        254    2    1    2    0    0 -0.43811708538E+03  0.32446433100E+03  0.21870747980E+04  0.24273930158E+04  0.90095338298E+03 0.  0.
         23    2    4    4    0    0 -0.17296955053E+03 -0.85284691490E+02  0.17584727614E+04  0.17713051513E+04  0.90019677366E+02 0.  0.
         23    2    4    4    0    0 -0.26514753485E+03  0.40974902249E+03  0.42860203665E+03  0.65608786453E+03  0.92488396593E+02 0.  0.
          2    1    3    3  502    0  0.13358534599E+03 -0.83513760594E+02  0.75192932068E+02  0.17456680642E+03  0.00000000000E+00 0. -1.
         -1    1    3    3    0  502  0.30453173940E+03 -0.24095057040E+03  0.62627789998E+02  0.39334335860E+03  0.00000000000E+00 0.  1.
         13    1    5    5    0    0 -0.20319856973E+02 -0.21476057426E+02  0.63783797766E+03  0.63852282918E+03  0.00000000000E+00 0.  1.
        -13    1    5    5    0    0 -0.15264969356E+03 -0.63808634064E+02  0.11206347837E+04  0.11327823221E+04  0.00000000000E+00 0. -1.
          1    1    6    6  503    0 -0.31684927951E+02  0.11609036357E+03  0.12461654495E+03  0.17323449555E+03  0.00000000000E+00 0. -1.
         -1    1    6    6    0  503 -0.23346260690E+03  0.29365865891E+03  0.30398549169E+03  0.48285336898E+03  0.00000000000E+00 0.  1.
<mgrwt>
<rscale>  0 0.18885714E+04</rscale>
<asrwt>0</asrwt>
<pdfrwt beam="1">  1        2 0.40924604E+00 0.18885714E+04</pdfrwt>
<pdfrwt beam="2">  1       -1 0.51569822E-01 0.18885714E+04</pdfrwt>
<totfact> 0.11340258E+01</totfact>
</mgrwt>
</event>
<event>
12    7  0.2492439E-007  0.2749225E+04  0.7818608E-02  0.8319208E-01
         -1   -1    0    0    0  501 -0.00000000000E+00  0.00000000000E+00  0.79333265467E+03  0.79333265467E+03  0.00000000000E+00 0.  1.
          2   -1    0    0  501    0  0.00000000000E+00 -0.00000000000E+00 -0.23817989532E+04  0.23817989532E+04  0.00000000000E+00 0. -1.
         24    2    1    2    0    0 -0.26093810043E+03 -0.11912621409E+04 -0.84603765847E+03  0.14864357492E+04  0.80730021007E+02 0.  0.
        254    2    1    2    0    0  0.26093810043E+03  0.11912621409E+04 -0.74242864010E+03  0.16886958588E+04  0.90183104693E+03 0.  0.
         23    2    4    4    0    0 -0.21762408809E+03  0.71856724946E+03 -0.11761564339E+03  0.76606444712E+03  0.96551343065E+02 0.  0.
         23    2    4    4    0    0  0.47856218853E+03  0.47269489141E+03 -0.62481299671E+03  0.92263141164E+03  0.91625390765E+02 0.  0.
          2    1    3    3  502    0 -0.19348682993E+03 -0.75512871733E+03 -0.57329933265E+03  0.96764076904E+03  0.00000000000E+00 0. -1.
         -1    1    3    3    0  502 -0.67451270506E+02 -0.43613342354E+03 -0.27273832581E+03  0.51879498011E+03  0.00000000000E+00 0.  1.
         13    1    5    5    0    0 -0.18225894693E+03  0.68200023066E+03 -0.11383688497E+03  0.71505347684E+03  0.00000000000E+00 0.  1.
        -13    1    5    5    0    0 -0.35365141166E+02  0.36567018804E+02 -0.37787584156E+01  0.51010970281E+02  0.00000000000E+00 0. -1.
          4    1    6    6  503    0  0.10197192742E+03  0.60038145397E+02 -0.84307229620E+02  0.14529474130E+03  0.00000000000E+00 0. -1.
         -4    1    6    6    0  503  0.37659026111E+03  0.41265674601E+03 -0.54050576709E+03  0.77733667033E+03  0.00000000000E+00 0.  1.
<mgrwt>
<rscale>  0 0.27492245E+04</rscale>
<asrwt>0</asrwt>
<pdfrwt beam="1">  1        2 0.36643060E+00 0.27492245E+04</pdfrwt>
<pdfrwt beam="2">  1       -1 0.12205118E+00 0.27492245E+04</pdfrwt>
<totfact> 0.24018239E+00</totfact>
</mgrwt>
</event>
<event>
12    7  0.2492439E-007  0.1606288E+04  0.7818608E-02  0.8816694E-01
         -1   -1    0    0    0  501 -0.00000000000E+00  0.00000000000E+00  0.69894391926E+03  0.69894391926E+03  0.00000000000E+00 0.  1.
          2   -1    0    0  501    0  0.00000000000E+00 -0.00000000000E+00 -0.92287840725E+03  0.92287840725E+03  0.00000000000E+00 0. -1.
         24    2    1    2    0    0 -0.14870176196E+03  0.29681405990E+03 -0.51522239661E+03  0.61804589269E+03  0.79472053769E+02 0.  0.
        254    2    1    2    0    0  0.14870176196E+03 -0.29681405990E+03  0.29128790862E+03  0.10037764338E+04  0.90139208074E+03 0.  0.
         23    2    4    4    0    0 -0.36715278731E+03 -0.19796074099E+03  0.11084051488E+03  0.44086360431E+03  0.89919261933E+02 0.  0.
         23    2    4    4    0    0  0.51585454927E+03 -0.98853318908E+02  0.18044739375E+03  0.56291282950E+03  0.91824272628E+02 0.  0.
          4    1    3    3  502    0 -0.17818976608E+02  0.11923259897E+03 -0.17202597865E+03  0.21006395673E+03  0.00000000000E+00 0. -1.
         -1    1    3    3    0  502 -0.13088278536E+03  0.17758146093E+03 -0.34319641796E+03  0.40798193596E+03  0.00000000000E+00 0.  1.
         13    1    5    5    0    0 -0.31637328641E+03 -0.17453992583E+03  0.12643729829E+03  0.38280887198E+03  0.00000000000E+00 0.  1.
        -13    1    5    5    0    0 -0.50779500896E+02 -0.23420815165E+02 -0.15596783410E+02  0.58054732339E+02  0.00000000000E+00 0. -1.
          4    1    6    6  503    0  0.28584571268E+03 -0.34224560091E+02  0.14171547108E+03  0.32087749487E+03  0.00000000000E+00 0. -1.
         -4    1    6    6    0  503  0.23000883659E+03 -0.64628758817E+02  0.38731922668E+02  0.24203533463E+03  0.00000000000E+00 0.  1.
<mgrwt>
<rscale>  0 0.16062880E+04</rscale>
<asrwt>0</asrwt>
<pdfrwt beam="1">  1        2 0.14198129E+00 0.16062880E+04</pdfrwt>
<pdfrwt beam="2">  1       -1 0.10752983E+00 0.16062880E+04</pdfrwt>
<totfact> 0.24930479E+01</totfact>
</mgrwt>
</event>
<event>
12    7  0.2492439E-007  0.2124340E+04  0.7818608E-02  0.8550596E-01
         -1   -1    0    0    0  501 -0.00000000000E+00  0.00000000000E+00  0.36437408185E+03  0.36437408185E+03  0.00000000000E+00 0.  1.
          2   -1    0    0  501    0  0.00000000000E+00 -0.00000000000E+00 -0.30962831749E+04  0.30962831749E+04  0.00000000000E+00 0. -1.
         24    2    1    2    0    0 -0.33649564026E+03 -0.79972898748E+03 -0.10498034643E+04  0.13642719516E+04  0.79717469591E+02 0.  0.
        254    2    1    2    0    0  0.33649564026E+03  0.79972898748E+03 -0.16821056287E+04  0.20963853051E+04  0.90141901020E+03 0.  0.
         23    2    4    4    0    0 -0.59238652144E+02  0.28343369927E+03 -0.13033021455E+04  0.13381304573E+04  0.90292627684E+02 0.  0.
         23    2    4    4    0    0  0.39573429241E+03  0.51629528820E+03 -0.37880348326E+03  0.75825484780E+03  0.91059763180E+02 0.  0.
          4    1    3    3  502    0 -0.18306441454E+03 -0.52857270117E+03 -0.69295481539E+03  0.89055491491E+03  0.00000000000E+00 0. -1.
         -3    1    3    3    0  502 -0.15343122572E+03 -0.27115628631E+03 -0.35684864888E+03  0.47371703668E+03  0.00000000000E+00 0.  1.
         13    1    5    5    0    0  0.18227528499E+01  0.19793378980E+03 -0.82258294656E+03  0.84606371600E+03  0.00000000000E+00 0.  1.
        -13    1    5    5    0    0 -0.61061404994E+02  0.85499909471E+02 -0.48071919892E+03  0.49206674132E+03  0.00000000000E+00 0. -1.
          2    1    6    6  503    0  0.15281649999E+03  0.26438214477E+03 -0.15078322082E+03  0.34056773309E+03  0.00000000000E+00 0. -1.
         -2    1    6    6    0  503  0.24291779242E+03  0.25191314343E+03 -0.22802026244E+03  0.41768711470E+03  0.00000000000E+00 0.  1.
<mgrwt>
<rscale>  0 0.21243402E+04</rscale>
<asrwt>0</asrwt>
<pdfrwt beam="1">  1        2 0.47635127E+00 0.21243402E+04</pdfrwt>
<pdfrwt beam="2">  1       -1 0.56057550E-01 0.21243402E+04</pdfrwt>
<totfact> 0.51090330E+00</totfact>
</mgrwt>
</event>
<event>
12    7  0.2492439E-007  0.2062588E+04  0.7818608E-02  0.8577905E-01
          2   -1    0    0  501    0  0.00000000000E+00  0.00000000000E+00  0.13793194013E+04  0.13793194013E+04  0.00000000000E+00 0. -1.
         -1   -1    0    0    0  501 -0.00000000000E+00 -0.00000000000E+00 -0.77108095066E+03  0.77108095066E+03  0.00000000000E+00 0.  1.
         24    2    1    2    0    0  0.98418671520E+02 -0.75924207662E+03  0.57571742386E+03  0.96130654845E+03  0.80777237748E+02 0.  0.
        254    2    1    2    0    0 -0.98418671520E+02  0.75924207662E+03  0.32521026788E+02  0.11890938035E+04  0.90925886885E+03 0.  0.
         23    2    4    4    0    0 -0.13959249855E+03  0.91448897326E+03  0.18743687384E+03  0.94842542789E+03  0.92747305765E+02 0.  0.
         23    2    4    4    0    0  0.41173827028E+02 -0.15524689663E+03 -0.15491584706E+03  0.24066837564E+03  0.90141357971E+02 0.  0.
          4    1    3    3  502    0  0.13050066917E+02 -0.41122708256E+03  0.30091784403E+03  0.50973480020E+03  0.00000000000E+00 0. -1.
         -3    1    3    3    0  502  0.85368604603E+02 -0.34801499407E+03  0.27479957983E+03  0.45157174826E+03  0.00000000000E+00 0.  1.
         13    1    5    5    0    0 -0.27376594940E+02  0.38028134340E+03  0.42376175979E+02  0.38361324062E+03  0.00000000000E+00 0. -1.
        -13    1    5    5    0    0 -0.11221590361E+03  0.53420762986E+03  0.14506069787E+03  0.56481218727E+03  0.00000000000E+00 0.  1.
          3    1    6    6  503    0 -0.23790381163E+02 -0.26804768274E+02 -0.11905719472E+02  0.37765380896E+02  0.00000000000E+00 0. -1.
         -3    1    6    6    0  503  0.64964208192E+02 -0.12844212836E+03 -0.14301012759E+03  0.20290299474E+03  0.00000000000E+00 0.  1.
<mgrwt>
<rscale>  0 0.20625876E+04</rscale>
<asrwt>0</asrwt>
<pdfrwt beam="1">  1        2 0.21220298E+00 0.20625876E+04</pdfrwt>
<pdfrwt beam="2">  1       -1 0.11862784E+00 0.20625876E+04</pdfrwt>
<totfact> 0.99763114E+00</totfact>
</mgrwt>
</event>
<event>
12    7  0.2492439E-007  0.2084737E+04  0.7818608E-02  0.8567997E-01
         -1   -1    0    0    0  501 -0.00000000000E+00  0.00000000000E+00  0.85000778052E+03  0.85000778052E+03  0.00000000000E+00 0.  1.
          2   -1    0    0  501    0  0.00000000000E+00 -0.00000000000E+00 -0.12782607627E+04  0.12782607627E+04  0.00000000000E+00 0. -1.
         24    2    1    2    0    0 -0.82497101918E+03  0.12960438411E+03 -0.30832867701E+03  0.89349535654E+03  0.76765227858E+02 0.  0.
        254    2    1    2    0    0  0.82497101918E+03 -0.12960438411E+03 -0.11992430514E+03  0.12347731866E+04  0.90161438799E+03 0.  0.
         23    2    4    4    0    0  0.10739401475E+02 -0.34633716890E+03  0.73543441527E+02  0.36577293127E+03  0.91194463394E+02 0.  0.
         23    2    4    4    0    0  0.81423161771E+03  0.21673278478E+03 -0.19346774666E+03  0.86900025538E+03  0.88235183339E+02 0.  0.
          2    1    3    3  502    0 -0.58752757226E+03  0.57655272105E+02 -0.20920896056E+03  0.62632353281E+03  0.00000000000E+00 0. -1.
         -1    1    3    3    0  502 -0.23744344692E+03  0.71949112006E+02 -0.99119716452E+02  0.26717182373E+03  0.00000000000E+00 0.  1.
         13    1    5    5    0    0 -0.27232238591E+02 -0.22434076073E+03  0.18794160608E+02  0.22676770541E+03  0.00000000000E+00 0.  1.
        -13    1    5    5    0    0  0.37971640066E+02 -0.12199640816E+03  0.54749280919E+02  0.13900522585E+03  0.00000000000E+00 0. -1.
          4    1    6    6  503    0  0.25788433787E+03  0.28022962214E+02 -0.48499179708E+02  0.26389730685E+03  0.00000000000E+00 0.  1.
         -4    1    6    6    0  503  0.55634727984E+03  0.18870982257E+03 -0.14496856696E+03  0.60510294853E+03  0.00000000000E+00 0. -1.
<mgrwt>
<rscale>  0 0.20847365E+04</rscale>
<asrwt>0</asrwt>
<pdfrwt beam="1">  1        2 0.19665550E+00 0.20847365E+04</pdfrwt>
<pdfrwt beam="2">  1       -1 0.13077043E+00 0.20847365E+04</pdfrwt>
<totfact> 0.89457722E+00</totfact>
</mgrwt>
</event>
<event>
12    7  0.2492439E-007  0.1619998E+04  0.7818608E-02  0.8808356E-01
          2   -1    0    0  501    0  0.00000000000E+00  0.00000000000E+00  0.32521407782E+03  0.32521407782E+03  0.00000000000E+00 0. -1.
         -1   -1    0    0    0  501 -0.00000000000E+00 -0.00000000000E+00 -0.20174343236E+04  0.20174343236E+04  0.00000000000E+00 0.  1.
         24    2    1    2    0    0  0.46422974885E+03 -0.41771364431E+02 -0.14753624573E+03  0.49530294921E+03  0.79397487919E+02 0.  0.
        254    2    1    2    0    0 -0.46422974885E+03  0.41771364431E+02 -0.15446840000E+04  0.18473454522E+04  0.89965685300E+03 0.  0.
         23    2    4    4    0    0 -0.17708759250E+03  0.45345777505E+03 -0.64891201198E+03  0.81656018485E+03  0.93272541606E+02 0.  0.
         23    2    4    4    0    0 -0.28714215634E+03 -0.41168641062E+03 -0.89577198804E+03  0.10307852673E+04  0.90412909107E+02 0.  0.
          4    1    3    3  502    0  0.33368377191E+03 -0.60473529696E+02 -0.12549482472E+03  0.36159488168E+03  0.00000000000E+00 0. -1.
         -3    1    3    3    0  502  0.13054597694E+03  0.18702165265E+02 -0.22041421009E+02  0.13370806752E+03  0.00000000000E+00 0.  1.
         13    1    5    5    0    0 -0.22432602132E+02  0.29043037799E+02 -0.18718713812E+02  0.41195994098E+02  0.00000000000E+00 0. -1.
        -13    1    5    5    0    0 -0.15465499037E+03  0.42441473725E+03 -0.63019329817E+03  0.77536419075E+03  0.00000000000E+00 0.  1.
          1    1    6    6  503    0 -0.73165489910E+02 -0.17843027336E+03 -0.36418559940E+03  0.41209428797E+03  0.00000000000E+00 0. -1.
         -1    1    6    6    0  503 -0.21397666643E+03 -0.23325613726E+03 -0.53158638864E+03  0.61869097935E+03  0.00000000000E+00 0.  1.
<mgrwt>
<rscale>  0 0.16199976E+04</rscale>
<asrwt>0</asrwt>
<pdfrwt beam="1">  1        2 0.50032937E-01 0.16199976E+04</pdfrwt>
<pdfrwt beam="2">  1       -1 0.31037450E+00 0.16199976E+04</pdfrwt>
<totfact> 0.31158933E+00</totfact>
</mgrwt>
</event>
<event>
12    7  0.2492439E-007  0.2002339E+04  0.7818608E-02  0.8605528E-01
          2   -1    0    0  501    0  0.00000000000E+00  0.00000000000E+00  0.21889412303E+04  0.21889412303E+04  0.00000000000E+00 0. -1.
         -1   -1    0    0    0  501 -0.00000000000E+00 -0.00000000000E+00 -0.45791092011E+03  0.45791092011E+03  0.00000000000E+00 0.  1.
         24    2    1    2    0    0 -0.26135831233E+03  0.28629501946E+03 -0.22755003212E+03  0.45655855895E+03  0.79960584287E+02 0.  0.
        254    2    1    2    0    0  0.26135831233E+03 -0.28629501946E+03  0.19585803423E+04  0.21902935915E+04  0.90059760933E+03 0.  0.
         23    2    4    4    0    0 -0.18171582690E+03  0.11505319946E+03  0.11909004678E+04  0.12134617874E+04  0.89373960192E+02 0.  0.
         23    2    4    4    0    0  0.44307413922E+03 -0.40134821892E+03  0.76767987446E+03  0.97683180404E+03  0.86445925632E+02 0.  0.
          2    1    3    3  502    0 -0.44518651325E+02  0.15922034758E+02 -0.13367775372E+02  0.49133684220E+02  0.00000000000E+00 0. -1.
         -1    1    3    3    0  502 -0.21683966100E+03  0.27037298470E+03 -0.21418225675E+03  0.40742487473E+03  0.00000000000E+00 0.  1.
         13    1    5    5    0    0 -0.33267088588E+02 -0.77937896598E+01  0.10003705263E+03  0.10571118313E+03  0.00000000000E+00 0. -1.
        -13    1    5    5    0    0 -0.14844873831E+03  0.12284698912E+03  0.10908634152E+04  0.11077506043E+04  0.00000000000E+00 0.  1.
          2    1    6    6  503    0  0.44550442475E+02 -0.73618276102E+02  0.13960194243E+03  0.16399114254E+03  0.00000000000E+00 0. -1.
         -2    1    6    6    0  503  0.39852369675E+03 -0.32772994282E+03  0.62807793203E+03  0.81284066150E+03  0.00000000000E+00 0.  1.
<mgrwt>
<rscale>  0 0.20023387E+04</rscale>
<asrwt>0</asrwt>
<pdfrwt beam="1">  1        2 0.33676018E+00 0.20023387E+04</pdfrwt>
<pdfrwt beam="2">  1       -1 0.70447835E-01 0.20023387E+04</pdfrwt>
<totfact> 0.11280464E+01</totfact>
</mgrwt>
</event>
<event>
12    7  0.2492439E-007  0.3540798E+04  0.7818608E-02  0.8104189E-01
          2   -1    0    0  501    0  0.00000000000E+00  0.00000000000E+00  0.21386269973E+04  0.21386269973E+04  0.00000000000E+00 0. -1.
         -1   -1    0    0    0  501 -0.00000000000E+00 -0.00000000000E+00 -0.14655726055E+04  0.14655726055E+04  0.00000000000E+00 0.  1.
         24    2    1    2    0    0 -0.12888304992E+02 -0.16403196815E+04  0.54705665519E+03  0.17310310735E+04  0.79892600660E+02 0.  0.
        254    2    1    2    0    0  0.12888304992E+02  0.16403196815E+04  0.12599773668E+03  0.18731685293E+04  0.89558368882E+03 0.  0.
         23    2    4    4    0    0 -0.80919595337E+02  0.12707066555E+03 -0.25316703272E+03  0.30775374395E+03  0.89016209237E+02 0.  0.
         23    2    4    4    0    0  0.93807900329E+02  0.15132490159E+04  0.37916476940E+03  0.15654147853E+04  0.89638281295E+02 0.  0.
          2    1    3    3  502    0  0.22844785920E+02 -0.12620273499E+04  0.42868954282E+03  0.13330452507E+04  0.00000000000E+00 0. -1.
         -1    1    3    3    0  502 -0.35733090912E+02 -0.37829233153E+03  0.11836711237E+03  0.39798582282E+03  0.00000000000E+00 0.  1.
         13    1    5    5    0    0 -0.53085003638E+02  0.92834978562E+01 -0.74297539258E+02  0.91784123265E+02  0.00000000000E+00 0.  1.
        -13    1    5    5    0    0 -0.27834591700E+02  0.11778716769E+03 -0.17886949346E+03  0.21596962069E+03  0.00000000000E+00 0. -1.
          2    1    6    6  503    0  0.28443860857E+02  0.98313431568E+02  0.27072067781E+02  0.10586539048E+03  0.00000000000E+00 0.  1.
         -2    1    6    6    0  503  0.65364039473E+02  0.14149355843E+04  0.35209270162E+03  0.14595493949E+04  0.00000000000E+00 0. -1.
<mgrwt>
<rscale>  0 0.35407983E+04</rscale>
<asrwt>0</asrwt>
<pdfrwt beam="1">  1        2 0.32901954E+00 0.35407983E+04</pdfrwt>
<pdfrwt beam="2">  1       -1 0.22547271E+00 0.35407983E+04</pdfrwt>
<totfact> 0.52672172E-01</totfact>
</mgrwt>
</event>
<event>
12    7  0.2492439E-007  0.2771682E+04  0.7818608E-02  0.8312114E-01
         -1   -1    0    0    0  501 -0.00000000000E+00  0.00000000000E+00  0.12801843610E+04  0.12801843610E+04  0.00000000000E+00 0.  1.
          2   -1    0    0  501    0  0.00000000000E+00 -0.00000000000E+00 -0.15002181636E+04  0.15002181636E+04  0.00000000000E+00 0. -1.
         24    2    1    2    0    0  0.25960792924E+02 -0.94563339308E+03  0.70386037511E+03  0.11819215881E+04  0.81380193255E+02 0.  0.
        254    2    1    2    0    0 -0.25960792924E+02  0.94563339308E+03 -0.92389417765E+03  0.15984809365E+04  0.89814496382E+03 0.  0.
         23    2    4    4    0    0  0.22788650644E+03  0.37320490852E+03  0.34665719050E+02  0.44971632100E+03  0.99140777340E+02 0.  0.
         23    2    4    4    0    0 -0.25384729937E+03  0.57242848456E+03 -0.95855989670E+03  0.11487646155E+04  0.93328693201E+02 0.  0.
          4    1    3    3  502    0  0.38407886942E+02 -0.77214536366E+03  0.54053098929E+03  0.94332252108E+03  0.00000000000E+00 0. -1.
         -3    1    3    3    0  502 -0.12447094018E+02 -0.17348802942E+03  0.16332938582E+03  0.23859906700E+03  0.00000000000E+00 0.  1.
         13    1    5    5    0    0  0.63217962568E+02  0.17696908304E+03  0.45368286305E+02  0.19332058489E+03  0.00000000000E+00 0. -1.
        -13    1    5    5    0    0  0.16466854388E+03  0.19623582548E+03 -0.10702567255E+02  0.25639573610E+03  0.00000000000E+00 0.  1.
          4    1    6    6  503    0 -0.12297428493E+03  0.16940277132E+03 -0.31158588975E+03  0.37537413387E+03  0.00000000000E+00 0.  1.
         -4    1    6    6    0  503 -0.13087301444E+03  0.40302571324E+03 -0.64697400695E+03  0.77339048166E+03  0.00000000000E+00 0. -1.
<mgrwt>
<rscale>  0 0.27716824E+04</rscale>
<asrwt>0</asrwt>
<pdfrwt beam="1">  1        2 0.23080279E+00 0.27716824E+04</pdfrwt>
<pdfrwt beam="2">  1       -1 0.19695144E+00 0.27716824E+04</pdfrwt>
<totfact> 0.19915397E+00</totfact>
</mgrwt>
</event>
<event>
12    7  0.2492439E-007  0.1443787E+04  0.7818608E-02  0.8922719E-01
         -1   -1    0    0    0  501 -0.00000000000E+00  0.00000000000E+00  0.47663488966E+03  0.47663488966E+03  0.00000000000E+00 0.  1.
          2   -1    0    0  501    0  0.00000000000E+00 -0.00000000000E+00 -0.10933528818E+04  0.10933528818E+04  0.00000000000E+00 0. -1.
         24    2    1    2    0    0  0.33772197158E+03  0.18137005114E+03  0.38266533677E+02  0.39364352239E+03  0.80868223572E+02 0.  0.
        254    2    1    2    0    0 -0.33772197158E+03 -0.18137005114E+03 -0.65498452582E+03  0.11763442491E+04  0.89879354565E+03 0.  0.
         23    2    4    4    0    0 -0.58965659218E+03 -0.93002344970E+02 -0.18905995485E+03  0.63197211315E+03  0.85444440483E+02 0.  0.
         23    2    4    4    0    0  0.25193462059E+03 -0.88367706168E+02 -0.46592457098E+03  0.54437213591E+03  0.89305162044E+02 0.  0.
          2    1    3    3  502    0  0.16036605516E+03  0.76758041502E+02 -0.21876279058E+02  0.17913023242E+03  0.00000000000E+00 0. -1.
         -1    1    3    3    0  502  0.17735591643E+03  0.10461200964E+03  0.60142812736E+02  0.21451328997E+03  0.00000000000E+00 0.  1.
         13    1    5    5    0    0 -0.33918723181E+03 -0.65267814011E+02 -0.15155629189E+03  0.37719646788E+03  0.00000000000E+00 0. -1.
        -13    1    5    5    0    0 -0.25046936037E+03 -0.27734530959E+02 -0.37503662957E+02  0.25477564527E+03  0.00000000000E+00 0.  1.
          1    1    6    6  503    0  0.67265733425E+02 -0.43253379293E+02 -0.74820424493E+02  0.10951543104E+03  0.00000000000E+00 0. -1.
         -1    1    6    6    0  503  0.18466888717E+03 -0.45114326875E+02 -0.39110414648E+03  0.43485670487E+03  0.00000000000E+00 0.  1.
<mgrwt>
<rscale>  0 0.14437869E+04</rscale>
<asrwt>0</asrwt>
<pdfrwt beam="1">  1        2 0.16820813E+00 0.14437869E+04</pdfrwt>
<pdfrwt beam="2">  1       -1 0.73328445E-01 0.14437869E+04</pdfrwt>
<totfact> 0.45618552E+01</totfact>
</mgrwt>
</event>
<event>
12    7  0.2492439E-007  0.1681991E+04  0.7818608E-02  0.8771703E-01
          2   -1    0    0  501    0  0.00000000000E+00  0.00000000000E+00  0.24631900427E+04  0.24631900427E+04  0.00000000000E+00 0. -1.
         -1   -1    0    0    0  501 -0.00000000000E+00 -0.00000000000E+00 -0.28713724331E+03  0.28713724331E+03  0.00000000000E+00 0.  1.
         24    2    1    2    0    0 -0.56150779653E+03 -0.28976064618E+02  0.10979990089E+04  0.12365711605E+04  0.85882440971E+02 0.  0.
        254    2    1    2    0    0  0.56150779653E+03  0.28976064618E+02  0.10780537906E+04  0.15137561255E+04  0.90173555678E+03 0.  0.
         23    2    4    4    0    0  0.45228079938E+03  0.43263093186E+03  0.69403856919E+03  0.93875046525E+03  0.88518109960E+02 0.  0.
         23    2    4    4    0    0  0.10922699715E+03 -0.40365486724E+03  0.38401522137E+03  0.57500566029E+03  0.91082546968E+02 0.  0.
          2    1    3    3  502    0 -0.54274250063E+03 -0.23495375529E+02  0.10840567466E+04  0.12125594767E+04  0.00000000000E+00 0. -1.
         -1    1    3    3    0  502 -0.18765295905E+02 -0.54806890892E+01  0.13942262270E+02  0.24011683833E+02  0.00000000000E+00 0.  1.
         13    1    5    5    0    0  0.23740661845E+03  0.18249763634E+03  0.28551331780E+03  0.41374526510E+03  0.00000000000E+00 0. -1.
        -13    1    5    5    0    0  0.21487418094E+03  0.25013329552E+03  0.40852525139E+03  0.52500520015E+03  0.00000000000E+00 0.  1.
          1    1    6    6  503    0  0.55992276730E+02 -0.17125100235E+03  0.22575629448E+03  0.28883896094E+03  0.00000000000E+00 0. -1.
         -1    1    6    6    0  503  0.53234720421E+02 -0.23240386489E+03  0.15825892689E+03  0.28616669934E+03  0.00000000000E+00 0.  1.
<mgrwt>
<rscale>  0 0.16819912E+04</rscale>
<asrwt>0</asrwt>
<pdfrwt beam="1">  1        2 0.37895230E+00 0.16819912E+04</pdfrwt>
<pdfrwt beam="2">  1       -1 0.44174962E-01 0.16819912E+04</pdfrwt>
<totfact> 0.20143621E+01</totfact>
</mgrwt>
</event>
<event>
12    7  0.2492439E-007  0.2036096E+04  0.7818608E-02  0.8589928E-01
          2   -1    0    0  501    0  0.00000000000E+00  0.00000000000E+00  0.14736613047E+04  0.14736613047E+04  0.00000000000E+00 0. -1.
         -1   -1    0    0    0  501 -0.00000000000E+00 -0.00000000000E+00 -0.70329689283E+03  0.70329689283E+03  0.00000000000E+00 0.  1.
         24    2    1    2    0    0  0.36325656946E+03 -0.72259131345E+03  0.18964280651E+03  0.83462197196E+03  0.80844916251E+02 0.  0.
        254    2    1    2    0    0 -0.36325656946E+03  0.72259131345E+03  0.58072160533E+03  0.13423362255E+04  0.90029740528E+03 0.  0.
         23    2    4    4    0    0 -0.26729786640E+03 -0.15110699075E+03  0.11502852225E+03  0.34347583058E+03  0.10228691619E+03 0.  0.
         23    2    4    4    0    0 -0.95958703058E+02  0.87369830420E+03  0.46569308308E+03  0.99886039496E+03  0.91078216514E+02 0.  0.
          4    1    3    3  502    0  0.37254412064E+01 -0.49562917257E+02  0.94215539903E+01  0.50587818285E+02  0.00000000000E+00 0. -1.
         -3    1    3    3    0  502  0.35953112825E+03 -0.67302839620E+03  0.18022125252E+03  0.78403415367E+03  0.00000000000E+00 0.  1.
         13    1    5    5    0    0 -0.10875708971E+03 -0.78924449002E+01  0.26532717741E+02  0.11222468694E+03  0.00000000000E+00 0. -1.
        -13    1    5    5    0    0 -0.15854077669E+03 -0.14321454585E+03  0.88495804509E+02  0.23125114363E+03  0.00000000000E+00 0.  1.
          2    1    6    6  503    0  0.15017677586E+01  0.26448185630E+03  0.17256497129E+03  0.31580306670E+03  0.00000000000E+00 0. -1.
         -2    1    6    6    0  503 -0.97460470816E+02  0.60921644791E+03  0.29312811178E+03  0.68305732826E+03  0.00000000000E+00 0.  1.
<mgrwt>
<rscale>  0 0.20360957E+04</rscale>
<asrwt>0</asrwt>
<pdfrwt beam="1">  1        2 0.22671712E+00 0.20360957E+04</pdfrwt>
<pdfrwt beam="2">  1       -1 0.10819952E+00 0.20360957E+04</pdfrwt>
<totfact> 0.11003395E+01</totfact>
</mgrwt>
</event>
<event>
12    7  0.2492439E-007  0.1183132E+04  0.7818608E-02  0.9127750E-01
          2   -1    0    0  501    0  0.00000000000E+00  0.00000000000E+00  0.61934480289E+03  0.61934480289E+03  0.00000000000E+00 0. -1.
         -1   -1    0    0    0  501 -0.00000000000E+00 -0.00000000000E+00 -0.56503337561E+03  0.56503337561E+03  0.00000000000E+00 0.  1.
         24    2    1    2    0    0  0.23998635572E+03  0.38744430734E+01 -0.41199272420E+01  0.25193826178E+03  0.76468632180E+02 0.  0.
        254    2    1    2    0    0 -0.23998635572E+03 -0.38744430734E+01  0.58431354518E+02  0.93243991672E+03  0.89912263505E+03 0.  0.
         23    2    4    4    0    0  0.29663947348E+03  0.17146431670E+03  0.65141935942E+02  0.36065372116E+03  0.91829437746E+02 0.  0.
         23    2    4    4    0    0 -0.53662582920E+03 -0.17533875977E+03 -0.67105814237E+01  0.57178619556E+03  0.90462479983E+02 0.  0.
          4    1    3    3  502    0  0.17428850034E+02  0.21075267706E+02  0.76773520933E+01  0.28405518082E+02  0.00000000000E+00 0. -1.
         -3    1    3    3    0  502  0.22255750569E+03 -0.17200824632E+02 -0.11797279335E+02  0.22353274370E+03  0.00000000000E+00 0.  1.
         13    1    5    5    0    0 -0.31394476116E+01  0.83192760210E+01 -0.75924833166E+01  0.11692402992E+02  0.00000000000E+00 0.  1.
        -13    1    5    5    0    0  0.29977892110E+03  0.16314504068E+03  0.72734419258E+02  0.34896131817E+03  0.00000000000E+00 0. -1.
          1    1    6    6  503    0 -0.44591635175E+03 -0.13757098384E+03  0.28210604790E+02  0.46750722623E+03  0.00000000000E+00 0. -1.
         -1    1    6    6    0  503 -0.90709477456E+02 -0.37767775932E+02 -0.34921186213E+02  0.10427896934E+03  0.00000000000E+00 0.  1.
<mgrwt>
<rscale>  0 0.11831323E+04</rscale>
<asrwt>0</asrwt>
<pdfrwt beam="1">  1        2 0.95283817E-01 0.11831323E+04</pdfrwt>
<pdfrwt beam="2">  1       -1 0.86928211E-01 0.11831323E+04</pdfrwt>
<totfact> 0.70262819E+01</totfact>
</mgrwt>
</event>
<event>
12    7  0.2492439E-007  0.2681122E+04  0.7818608E-02  0.8341156E-01
          2   -1    0    0  501    0  0.00000000000E+00  0.00000000000E+00  0.33902552321E+04  0.33902552321E+04  0.00000000000E+00 0. -1.
         -3   -1    0    0    0  501 -0.00000000000E+00 -0.00000000000E+00 -0.53007909274E+03  0.53007909274E+03  0.00000000000E+00 0.  1.
         24    2    1    2    0    0  0.84700522517E+03 -0.79468303806E+03  0.90235435286E+03  0.14730416283E+04  0.81665648634E+02 0.  0.
        254    2    1    2    0    0 -0.84700522517E+03  0.79468303806E+03  0.19578217865E+04  0.24472926965E+04  0.89846336173E+03 0.  0.
         23    2    4    4    0    0 -0.41873169582E+03  0.90742491043E+03  0.11944473672E+04  0.15601078360E+04  0.92063813307E+02 0.  0.
         23    2    4    4    0    0 -0.42827352935E+03 -0.11274187237E+03  0.76337441924E+03  0.88718486051E+03  0.90705716662E+02 0.  0.
          4    1    3    3  502    0  0.49163881725E+03 -0.51557985672E+03  0.55698123608E+03  0.90430051013E+03  0.00000000000E+00 0. -1.
         -3    1    3    3    0  502  0.35536640791E+03 -0.27910318134E+03  0.34537311678E+03  0.56874111817E+03  0.00000000000E+00 0.  1.
         13    1    5    5    0    0 -0.24800305736E+03  0.61832953585E+03  0.75128236492E+03  0.10041225638E+04  0.00000000000E+00 0.  1.
        -13    1    5    5    0    0 -0.17072863846E+03  0.28909537458E+03  0.44316500231E+03  0.55598527216E+03  0.00000000000E+00 0. -1.
          4    1    6    6  503    0 -0.43052004304E+03 -0.11794591053E+03  0.75329583609E+03  0.87562170024E+03  0.00000000000E+00 0.  1.
         -4    1    6    6    0  503  0.22465136882E+01  0.52040381613E+01  0.10078583158E+02  0.11563160269E+02  0.00000000000E+00 0. -1.
<mgrwt>
<rscale>  0 0.26811217E+04</rscale>
<asrwt>0</asrwt>
<pdfrwt beam="1">  1        2 0.52157771E+00 0.26811217E+04</pdfrwt>
<pdfrwt beam="2">  1       -3 0.81550632E-01 0.26811217E+04</pdfrwt>
<totfact> 0.76130839E-01</totfact>
</mgrwt>
</event>
<event>
12    7  0.2492439E-007  0.2350250E+04  0.7818608E-02  0.8458367E-01
          2   -1    0    0  501    0  0.00000000000E+00  0.00000000000E+00  0.17142510946E+04  0.17142510946E+04  0.00000000000E+00 0. -1.
         -1   -1    0    0    0  501 -0.00000000000E+00 -0.00000000000E+00 -0.80555248129E+03  0.80555248129E+03  0.00000000000E+00 0.  1.
         24    2    1    2    0    0 -0.31380520617E+03 -0.16351751514E+03  0.13902780179E+04  0.14371183896E+04  0.84997727406E+02 0.  0.
        254    2    1    2    0    0  0.31380520617E+03  0.16351751514E+03 -0.48157940460E+03  0.10826851862E+04  0.90281604126E+03 0.  0.
         23    2    4    4    0    0  0.43325754420E+03  0.91067683172E+02  0.11263052555E+03  0.46576999647E+03  0.90832988499E+02 0.  0.
         23    2    4    4    0    0 -0.11945233803E+03  0.72449831970E+02 -0.59420993014E+03  0.61691518976E+03  0.89336840441E+02 0.  0.
          4    1    3    3  502    0 -0.12186303963E+03 -0.44663140227E+02  0.36826086859E+03  0.39046314020E+03  0.00000000000E+00 0. -1.
         -3    1    3    3    0  502 -0.19194216655E+03 -0.11885437491E+03  0.10220171493E+04  0.10466552494E+04  0.00000000000E+00 0.  1.
         13    1    5    5    0    0  0.31487494552E+02  0.76630612257E+01  0.35825721175E+02  0.48308044032E+02  0.00000000000E+00 0.  1.
        -13    1    5    5    0    0  0.40177004965E+03  0.83404621946E+02  0.76804804370E+02  0.41746195243E+03  0.00000000000E+00 0. -1.
          2    1    6    6  503    0 -0.11268222240E+03  0.56726579194E+02 -0.58290502035E+03  0.59640041146E+03  0.00000000000E+00 0. -1.
         -2    1    6    6    0  503 -0.67701156212E+01  0.15723252775E+02 -0.11304909791E+02  0.20514778301E+02  0.00000000000E+00 0.  1.
<mgrwt>
<rscale>  0 0.23502504E+04</rscale>
<asrwt>0</asrwt>
<pdfrwt beam="1">  1        2 0.26373094E+00 0.23502504E+04</pdfrwt>
<pdfrwt beam="2">  1       -1 0.12393115E+00 0.23502504E+04</pdfrwt>
<totfact> 0.56596838E+00</totfact>
</mgrwt>
</event>
<event>
12    7  0.2492439E-007  0.2713952E+04  0.7818608E-02  0.8330492E-01
          2   -1    0    0  501    0  0.00000000000E+00  0.00000000000E+00  0.25753836795E+04  0.25753836795E+04  0.00000000000E+00 0. -1.
         -1   -1    0    0    0  501 -0.00000000000E+00 -0.00000000000E+00 -0.71499374652E+03  0.71499374652E+03  0.00000000000E+00 0.  1.
         24    2    1    2    0    0  0.73036700674E+03  0.89423304060E+03  0.40465784367E+03  0.12261456054E+04  0.81218100184E+02 0.  0.
        254    2    1    2    0    0 -0.73036700674E+03 -0.89423304060E+03  0.14557320893E+04  0.20642318206E+04  0.89933775517E+03 0.  0.
         23    2    4    4    0    0 -0.58946552699E+03 -0.38198376101E+03  0.26310881869E+03  0.75570762011E+03  0.92122502372E+02 0.  0.
         23    2    4    4    0    0 -0.14090147975E+03 -0.51224927959E+03  0.11926232706E+04  0.13085242005E+04  0.87365703779E+02 0.  0.
          4    1    3    3  502    0  0.18984158972E+03  0.18856757665E+03  0.72561799555E+02  0.27724136579E+03  0.00000000000E+00 0. -1.
         -3    1    3    3    0  502  0.54052541701E+03  0.70566546395E+03  0.33209604411E+03  0.94890423962E+03  0.00000000000E+00 0.  1.
         13    1    5    5    0    0 -0.29375310431E+03 -0.23610143498E+03  0.16723878441E+03  0.41231490987E+03  0.00000000000E+00 0. -1.
        -13    1    5    5    0    0 -0.29571242268E+03 -0.14588232602E+03  0.95870034275E+02  0.34339271024E+03  0.00000000000E+00 0.  1.
          4    1    6    6  503    0 -0.39941970407E+02 -0.16147442211E+03  0.47726654223E+03  0.50542329025E+03  0.00000000000E+00 0. -1.
         -4    1    6    6    0  503 -0.10095950934E+03 -0.35077485748E+03  0.71535672836E+03  0.80310091021E+03  0.00000000000E+00 0.  1.
<mgrwt>
<rscale>  0 0.27139515E+04</rscale>
<asrwt>0</asrwt>
<pdfrwt beam="1">  1        2 0.39621287E+00 0.27139515E+04</pdfrwt>
<pdfrwt beam="2">  1       -1 0.10999904E+00 0.27139515E+04</pdfrwt>
<totfact> 0.23915215E+00</totfact>
</mgrwt>
</event>
<event>
12    7  0.2492439E-007  0.1521584E+04  0.7818608E-02  0.8870226E-01
         -1   -1    0    0    0  501 -0.00000000000E+00  0.00000000000E+00  0.35222637705E+03  0.35222637705E+03  0.00000000000E+00 0.  1.
          2   -1    0    0  501    0  0.00000000000E+00 -0.00000000000E+00 -0.16432734966E+04  0.16432734966E+04  0.00000000000E+00 0. -1.
         24    2    1    2    0    0  0.18711367357E+02 -0.15988682552E+03  0.18639561090E+03  0.25852826736E+03  0.78610616443E+02 0.  0.
        254    2    1    2    0    0 -0.18711367357E+02  0.15988682552E+03 -0.14774427304E+04  0.17369716063E+04  0.89906586358E+03 0.  0.
         23    2    4    4    0    0 -0.52178598112E+02  0.52106879881E+03 -0.74960737462E+03  0.91872882760E+03  0.88972711466E+02 0.  0.
         23    2    4    4    0    0  0.33467230756E+02 -0.36118197329E+03 -0.72783535580E+03  0.81824277867E+03  0.90578509155E+02 0.  0.
          2    1    3    3  502    0  0.19811878697E+02 -0.14596713940E+02  0.33624359305E+01  0.24837080560E+02  0.00000000000E+00 0. -1.
         -1    1    3    3    0  502 -0.11005113403E+01 -0.14529011158E+03  0.18303317497E+03  0.23369118680E+03  0.00000000000E+00 0.  1.
         13    1    5    5    0    0 -0.20802521766E+01  0.13583846083E+03 -0.26354162326E+03  0.29649722103E+03  0.00000000000E+00 0. -1.
        -13    1    5    5    0    0 -0.50098345936E+02  0.38523033798E+03 -0.48606575135E+03  0.62223160656E+03  0.00000000000E+00 0.  1.
          2    1    6    6  503    0  0.87011822587E+01  0.26669427357E+01 -0.20409081327E+02  0.22346224667E+02  0.00000000000E+00 0. -1.
         -2    1    6    6    0  503  0.24766048497E+02 -0.36384891603E+03 -0.70742627448E+03  0.79589655400E+03  0.00000000000E+00 0.  1.
<mgrwt>
<rscale>  0 0.15215837E+04</rscale>
<asrwt>0</asrwt>
<pdfrwt beam="1">  1        2 0.25281131E+00 0.15215837E+04</pdfrwt>
<pdfrwt beam="2">  1       -1 0.54188674E-01 0.15215837E+04</pdfrwt>
<totfact> 0.39860032E+01</totfact>
</mgrwt>
</event>
<event>
12    7  0.2492439E-007  0.1586362E+04  0.7818608E-02  0.8828971E-01
         -1   -1    0    0    0  501 -0.00000000000E+00  0.00000000000E+00  0.14643311814E+04  0.14643311814E+04  0.00000000000E+00 0.  1.
          2   -1    0    0  501    0  0.00000000000E+00 -0.00000000000E+00 -0.42964045298E+03  0.42964045298E+03  0.00000000000E+00 0. -1.
         24    2    1    2    0    0 -0.25112243612E+03  0.69110878914E+01  0.91524987192E+03  0.95240130071E+03  0.79219116807E+02 0.  0.
        254    2    1    2    0    0  0.25112243612E+03 -0.69110878914E+01  0.11944085653E+03  0.94157033370E+03  0.89954340309E+03 0.  0.
         23    2    4    4    0    0  0.43252163860E+03  0.25154474921E+03 -0.13545225706E+03  0.52624600978E+03  0.90762438049E+02 0.  0.
         23    2    4    4    0    0 -0.18139920247E+03 -0.25845583710E+03  0.25489311359E+03  0.41532432392E+03  0.88423437476E+02 0.  0.
          2    1    3    3  502    0 -0.13182041236E+03  0.33206403823E+02  0.38608480333E+03  0.40931743394E+03  0.00000000000E+00 0. -1.
         -1    1    3    3    0  502 -0.11930202376E+03 -0.26295315932E+02  0.52916506860E+03  0.54308386676E+03  0.00000000000E+00 0.  1.
         13    1    5    5    0    0  0.37567628969E+03  0.18693073355E+03 -0.13286667928E+03  0.44014693938E+03  0.00000000000E+00 0. -1.
        -13    1    5    5    0    0  0.56845348903E+02  0.64614015657E+02 -0.25855777751E+01  0.86099070400E+02  0.00000000000E+00 0.  1.
          3    1    6    6  503    0 -0.14141017624E+03 -0.17219990903E+03  0.22248020845E+03  0.31487630868E+03  0.00000000000E+00 0. -1.
         -3    1    6    6    0  503 -0.39989026232E+02 -0.86255928075E+02  0.32412905139E+02  0.10044801524E+03  0.00000000000E+00 0.  1.
<mgrwt>
<rscale>  0 0.15863618E+04</rscale>
<asrwt>0</asrwt>
<pdfrwt beam="1">  1        2 0.66098532E-01 0.15863618E+04</pdfrwt>
<pdfrwt beam="2">  1       -1 0.22528172E+00 0.15863618E+04</pdfrwt>
<totfact> 0.81671776E+00</totfact>
</mgrwt>
</event>
<event>
12    7  0.2492439E-007  0.4979722E+04  0.7818608E-02  0.7831643E-01
          2   -1    0    0  501    0  0.00000000000E+00  0.00000000000E+00  0.29083747376E+04  0.29083747376E+04  0.00000000000E+00 0. -1.
         -1   -1    0    0    0  501 -0.00000000000E+00 -0.00000000000E+00 -0.21315714360E+04  0.21315714360E+04  0.00000000000E+00 0.  1.
         24    2    1    2    0    0 -0.20205771435E+04  0.11353185099E+04 -0.28418372966E+03  0.23364917329E+04  0.82177332303E+02 0.  0.
        254    2    1    2    0    0  0.20205771435E+04 -0.11353185099E+04  0.10609870313E+04  0.27034544407E+04  0.90071766988E+03 0.  0.
         23    2    4    4    0    0  0.23887253191E+03 -0.15664822281E+03 -0.14788761924E+03  0.33658196830E+03  0.99085424001E+02 0.  0.
         23    2    4    4    0    0  0.17817046116E+04 -0.97867028710E+03  0.12088746505E+04  0.23668724724E+04  0.91872337001E+02 0.  0.
          4    1    3    3  502    0 -0.99861658941E+03  0.59233614603E+03 -0.17332543461E+03  0.11739416122E+04  0.00000000000E+00 0. -1.
         -3    1    3    3    0  502 -0.10219605541E+04  0.54298236388E+03 -0.11085829505E+03  0.11625501207E+04  0.00000000000E+00 0.  1.
         13    1    5    5    0    0  0.93320612245E+02 -0.84602981682E+02 -0.15223992642E+02  0.12687856845E+03  0.00000000000E+00 0. -1.
        -13    1    5    5    0    0  0.14555191967E+03 -0.72045241131E+02 -0.13266362660E+03  0.20970339986E+03  0.00000000000E+00 0.  1.
          1    1    6    6  503    0  0.17730592749E+04 -0.96504161261E+03  0.11976459280E+04  0.23472111697E+04  0.00000000000E+00 0.  1.
         -1    1    6    6    0  503  0.86453366416E+01 -0.13628674492E+02  0.11228722490E+02  0.19661302674E+02  0.00000000000E+00 0. -1.
<mgrwt>
<rscale>  0 0.49797223E+04</rscale>
<asrwt>0</asrwt>
<pdfrwt beam="1">  1        2 0.44744227E+00 0.49797223E+04</pdfrwt>
<pdfrwt beam="2">  1       -1 0.32793407E+00 0.49797223E+04</pdfrwt>
<totfact> 0.35732562E-02</totfact>
</mgrwt>
</event>
<event>
12    7  0.2492439E-007  0.2671363E+04  0.7818608E-02  0.8344357E-01
          2   -1    0    0  501    0  0.00000000000E+00  0.00000000000E+00  0.12070992178E+04  0.12070992178E+04  0.00000000000E+00 0. -1.
         -1   -1    0    0    0  501 -0.00000000000E+00 -0.00000000000E+00 -0.14779605050E+04  0.14779605050E+04  0.00000000000E+00 0.  1.
         24    2    1    2    0    0  0.57676885681E+03  0.37236535420E+03  0.84668054717E+03  0.10929508235E+04  0.79720025194E+02 0.  0.
        254    2    1    2    0    0 -0.57676885681E+03 -0.37236535420E+03 -0.11175418344E+04  0.15921088993E+04  0.90254790700E+03 0.  0.
         23    2    4    4    0    0  0.15710792091E+03 -0.34959035631E+03 -0.42823095711E+03  0.58158618701E+03  0.89243623090E+02 0.  0.
         23    2    4    4    0    0 -0.73387677772E+03 -0.22774997894E+02 -0.68931087730E+03  0.10105227123E+04  0.83143497144E+02 0.  0.
          2    1    3    3  502    0  0.33477817693E+03  0.16920328063E+03  0.46705342896E+03  0.59903679639E+03  0.00000000000E+00 0. -1.
         -1    1    3    3    0  502  0.24199067988E+03  0.20316207358E+03  0.37962711821E+03  0.49391402710E+03  0.00000000000E+00 0.  1.
         13    1    5    5    0    0  0.64483541534E+02 -0.56555138248E+02 -0.82501238877E+02  0.11900867702E+03  0.00000000000E+00 0. -1.
        -13    1    5    5    0    0  0.92624379373E+02 -0.29303521806E+03 -0.34572971823E+03  0.46257750999E+03  0.00000000000E+00 0.  1.
          3    1    6    6  503    0 -0.21197960270E+03 -0.35339869168E+02 -0.16825087886E+03  0.27293335551E+03  0.00000000000E+00 0. -1.
         -3    1    6    6    0  503 -0.52189717503E+03  0.12564871274E+02 -0.52105999843E+03  0.73758935679E+03  0.00000000000E+00 0.  1.
<mgrwt>
<rscale>  0 0.26713629E+04</rscale>
<asrwt>0</asrwt>
<pdfrwt beam="1">  1        2 0.18570757E+00 0.26713629E+04</pdfrwt>
<pdfrwt beam="2">  1       -1 0.22737854E+00 0.26713629E+04</pdfrwt>
<totfact> 0.18466229E+00</totfact>
</mgrwt>
</event>
<event>
12    7  0.2492439E-007  0.2623304E+04  0.7818608E-02  0.8360328E-01
          2   -1    0    0  501    0  0.00000000000E+00  0.00000000000E+00  0.14596629097E+04  0.14596629097E+04  0.00000000000E+00 0. -1.
         -1   -1    0    0    0  501 -0.00000000000E+00 -0.00000000000E+00 -0.11786498504E+04  0.11786498504E+04  0.00000000000E+00 0.  1.
         24    2    1    2    0    0 -0.12536305678E+03 -0.96225091106E+03  0.75559393345E+03  0.12324670081E+04  0.80062612979E+02 0.  0.
        254    2    1    2    0    0  0.12536305678E+03  0.96225091106E+03 -0.47458087422E+03  0.14058457520E+04  0.89974027378E+03 0.  0.
         23    2    4    4    0    0  0.17262551558E+03  0.43553379402E+03 -0.68002767722E+03  0.83046562148E+03  0.88012796317E+02 0.  0.
         23    2    4    4    0    0 -0.47262458801E+02  0.52671711704E+03  0.20544680300E+03  0.57538013047E+03  0.95860546033E+02 0.  0.
          2    1    3    3  502    0 -0.95810287444E+02 -0.43196345036E+03  0.33424923806E+03  0.55452194436E+03  0.00000000000E+00 0. -1.
         -1    1    3    3    0  502 -0.29552769337E+02 -0.53028746070E+03  0.42134469538E+03  0.67794506376E+03  0.00000000000E+00 0.  1.
         13    1    5    5    0    0  0.20396124069E+02  0.67290947184E+01 -0.26020734148E+02  0.33739608747E+02  0.00000000000E+00 0. -1.
        -13    1    5    5    0    0  0.15222939151E+03  0.42880469930E+03 -0.65400694307E+03  0.79672601273E+03  0.00000000000E+00 0.  1.
          1    1    6    6  503    0 -0.24379068855E+02  0.34495428075E+02  0.20258487749E+01  0.42289213986E+02  0.00000000000E+00 0. -1.
         -1    1    6    6    0  503 -0.22883389945E+02  0.49222168897E+03  0.20342095422E+03  0.53309091649E+03  0.00000000000E+00 0.  1.
<mgrwt>
<rscale>  0 0.26233044E+04</rscale>
<asrwt>0</asrwt>
<pdfrwt beam="1">  1        2 0.22456353E+00 0.26233044E+04</pdfrwt>
<pdfrwt beam="2">  1       -1 0.18133075E+00 0.26233044E+04</pdfrwt>
<totfact> 0.27391872E+00</totfact>
</mgrwt>
</event>
<event>
12    7  0.2492439E-007  0.1323397E+04  0.7818608E-02  0.9011214E-01
         -1   -1    0    0    0  501 -0.00000000000E+00  0.00000000000E+00  0.13115029321E+03  0.13115029321E+03  0.00000000000E+00 0.  1.
          2   -1    0    0  501    0  0.00000000000E+00 -0.00000000000E+00 -0.33384962718E+04  0.33384962718E+04  0.00000000000E+00 0. -1.
         24    2    1    2    0    0 -0.14710834161E+03 -0.22817687829E+03 -0.14666140383E+04  0.14935529265E+04  0.77704922679E+02 0.  0.
        254    2    1    2    0    0  0.14710834161E+03  0.22817687829E+03 -0.17407319403E+04  0.19760936385E+04  0.89503789205E+03 0.  0.
         23    2    4    4    0    0 -0.35472581800E+03  0.11054640352E+03 -0.49796580590E+03  0.62757747025E+03  0.88502113127E+02 0.  0.
         23    2    4    4    0    0  0.50183415961E+03  0.11763047477E+03 -0.12427661344E+04  0.13485161682E+04  0.91398790462E+02 0.  0.
          4    1    3    3  502    0 -0.45907046436E+02 -0.99271190232E+02 -0.78115604830E+03  0.78877563218E+03  0.00000000000E+00 0. -1.
         -1    1    3    3    0  502 -0.10120129518E+03 -0.12890568806E+03 -0.68545798996E+03  0.70477729430E+03  0.00000000000E+00 0.  1.
         13    1    5    5    0    0 -0.56853298455E+02  0.26013669539E+02 -0.14584933436E+03  0.15868533921E+03  0.00000000000E+00 0. -1.
        -13    1    5    5    0    0 -0.29787251954E+03  0.84532733983E+02 -0.35211647154E+03  0.46889213103E+03  0.00000000000E+00 0.  1.
          4    1    6    6  503    0  0.48300835583E+03  0.93429987995E+02 -0.11498608523E+04  0.12506822995E+04  0.00000000000E+00 0.  1.
         -4    1    6    6    0  503  0.18825803781E+02  0.24200486773E+02 -0.92905282048E+02  0.97833868780E+02  0.00000000000E+00 0. -1.
<mgrwt>
<rscale>  0 0.13233968E+04</rscale>
<asrwt>0</asrwt>
<pdfrwt beam="1">  1        2 0.51361473E+00 0.13233968E+04</pdfrwt>
<pdfrwt beam="2">  1       -1 0.20176971E-01 0.13233968E+04</pdfrwt>
<totfact> 0.23972863E+01</totfact>
</mgrwt>
</event>
<event>
12    7  0.2492439E-007  0.1699181E+04  0.7818608E-02  0.8761832E-01
         -1   -1    0    0    0  501 -0.00000000000E+00  0.00000000000E+00  0.34790641809E+03  0.34790641809E+03  0.00000000000E+00 0.  1.
          2   -1    0    0  501    0  0.00000000000E+00 -0.00000000000E+00 -0.20747061940E+04  0.20747061940E+04  0.00000000000E+00 0. -1.
         24    2    1    2    0    0 -0.59368708935E+03  0.39848554053E+02 -0.79354719809E+03  0.99585496610E+03  0.89205888739E+02 0.  0.
        254    2    1    2    0    0  0.59368708935E+03 -0.39848554053E+02 -0.93325257780E+03  0.14267576460E+04  0.90034701035E+03 0.  0.
         23    2    4    4    0    0 -0.53753441736E+02 -0.14665096141E+03  0.94181462021E+02  0.20404615990E+03  0.91480875597E+02 0.  0.
         23    2    4    4    0    0  0.64744053109E+03  0.10680240735E+03 -0.10274340398E+04  0.12227114861E+04  0.93897159110E+02 0.  0.
          4    1    3    3  502    0 -0.16600827715E+03  0.45302055726E+02 -0.26433147913E+03  0.31540791872E+03  0.00000000000E+00 0. -1.
         -3    1    3    3    0  502 -0.42767881220E+03 -0.54535016728E+01 -0.52921571896E+03  0.68044704738E+03  0.00000000000E+00 0.  1.
         13    1    5    5    0    0 -0.10591046527E+02 -0.13487929441E+03  0.79687313600E+02  0.15701803169E+03  0.00000000000E+00 0. -1.
        -13    1    5    5    0    0 -0.43162395209E+02 -0.11771666996E+02  0.14494148420E+02  0.47028128205E+02  0.00000000000E+00 0.  1.
          1    1    6    6  503    0  0.27811032244E+03  0.79851584217E+02 -0.51096723747E+03  0.58720451695E+03  0.00000000000E+00 0. -1.
         -1    1    6    6    0  503  0.36933020864E+03  0.26950823135E+02 -0.51646680235E+03  0.63550696913E+03  0.00000000000E+00 0.  1.
<mgrwt>
<rscale>  0 0.16991805E+04</rscale>
<asrwt>0</asrwt>
<pdfrwt beam="1">  1        2 0.31918556E+00 0.16991805E+04</pdfrwt>
<pdfrwt beam="2">  1       -1 0.53524065E-01 0.16991805E+04</pdfrwt>
<totfact> 0.23176015E+01</totfact>
</mgrwt>
</event>
<event>
12    7  0.2492439E-007  0.2594395E+04  0.7818608E-02  0.8370108E-01
          2   -1    0    0  501    0  0.00000000000E+00  0.00000000000E+00  0.21932309302E+04  0.21932309302E+04  0.00000000000E+00 0. -1.
         -1   -1    0    0    0  501 -0.00000000000E+00 -0.00000000000E+00 -0.76723387265E+03  0.76723387265E+03  0.00000000000E+00 0.  1.
         24    2    1    2    0    0  0.98415333501E+03  0.56963981112E+03  0.54115404748E+03  0.12618653849E+04  0.80057761372E+02 0.  0.
        254    2    1    2    0    0 -0.98415333501E+03 -0.56963981112E+03  0.88484301006E+03  0.16985994180E+04  0.89958075187E+03 0.  0.
         23    2    4    4    0    0 -0.10934515774E+04 -0.54396517021E+03  0.56663801086E+03  0.13494814975E+04  0.92126099720E+02 0.  0.
         23    2    4    4    0    0  0.10929824234E+03 -0.25674640913E+02  0.31820499920E+03  0.34911792052E+03  0.89574594318E+02 0.  0.
          4    1    3    3  502    0  0.22055394154E+03  0.11311112888E+03  0.15241825543E+03  0.29098022818E+03  0.00000000000E+00 0. -1.
         -3    1    3    3    0  502  0.76359939347E+03  0.45652868224E+03  0.38873579205E+03  0.97088515667E+03  0.00000000000E+00 0.  1.
         13    1    5    5    0    0 -0.85600562908E+03 -0.40715957984E+03  0.40069238056E+03  0.10291156127E+04  0.00000000000E+00 0. -1.
        -13    1    5    5    0    0 -0.23744594828E+03 -0.13680559036E+03  0.16594563030E+03  0.32036588477E+03  0.00000000000E+00 0.  1.
          4    1    6    6  503    0  0.72557188744E+02 -0.53383646942E+02  0.15226505652E+03  0.17691525326E+03  0.00000000000E+00 0. -1.
         -4    1    6    6    0  503  0.36741053600E+02  0.27709006029E+02  0.16593994268E+03  0.17220266726E+03  0.00000000000E+00 0.  1.
<mgrwt>
<rscale>  0 0.25943948E+04</rscale>
<asrwt>0</asrwt>
<pdfrwt beam="1">  1        2 0.33742014E+00 0.25943948E+04</pdfrwt>
<pdfrwt beam="2">  1       -1 0.11803598E+00 0.25943948E+04</pdfrwt>
<totfact> 0.33796082E+00</totfact>
</mgrwt>
</event>
<event>
12    7  0.2492439E-007  0.1541405E+04  0.7818608E-02  0.8857376E-01
          2   -1    0    0  501    0  0.00000000000E+00  0.00000000000E+00  0.20053125165E+04  0.20053125165E+04  0.00000000000E+00 0. -1.
         -1   -1    0    0    0  501 -0.00000000000E+00 -0.00000000000E+00 -0.29620447304E+03  0.29620447304E+03  0.00000000000E+00 0.  1.
         24    2    1    2    0    0  0.30097236965E+03 -0.40276195415E+03  0.52869699974E+03  0.73382245501E+03  0.78570471073E+02 0.  0.
        254    2    1    2    0    0 -0.30097236965E+03  0.40276195415E+03  0.11804110438E+04  0.15676945346E+04  0.90082981883E+03 0.  0.
         23    2    4    4    0    0 -0.37262385676E+03  0.64123007957E+03  0.99295592618E+03  0.12428931684E+04  0.93794473325E+02 0.  0.
         23    2    4    4    0    0  0.71651487106E+02 -0.23846812542E+03  0.18745511758E+03  0.32480136614E+03  0.91408554803E+02 0.  0.
          4    1    3    3  502    0  0.16272806988E+03 -0.27573701645E+03  0.35498949815E+03  0.47804693364E+03  0.00000000000E+00 0. -1.
         -3    1    3    3    0  502  0.13824429978E+03 -0.12702493770E+03  0.17370750159E+03  0.25577552136E+03  0.00000000000E+00 0.  1.
         13    1    5    5    0    0 -0.31575318269E+03  0.50445916735E+03  0.84494396964E+03  0.10334938005E+04  0.00000000000E+00 0.  1.
        -13    1    5    5    0    0 -0.56870674072E+02  0.13677091223E+03  0.14801195654E+03  0.20939936790E+03  0.00000000000E+00 0. -1.
          1    1    6    6  503    0  0.66453776208E+02 -0.11397761247E+03  0.13750245313E+03  0.19056212933E+03  0.00000000000E+00 0. -1.
         -1    1    6    6    0  503  0.51977108983E+01 -0.12449051295E+03  0.49952664448E+02  0.13423923681E+03  0.00000000000E+00 0.  1.
<mgrwt>
<rscale>  0 0.15414053E+04</rscale>
<asrwt>0</asrwt>
<pdfrwt beam="1">  1        2 0.30850961E+00 0.15414053E+04</pdfrwt>
<pdfrwt beam="2">  1       -1 0.45569920E-01 0.15414053E+04</pdfrwt>
<totfact> 0.34836311E+01</totfact>
</mgrwt>
</event>
<event>
12    7  0.2492439E-007  0.1978193E+04  0.7818608E-02  0.8616884E-01
          2   -1    0    0  501    0  0.00000000000E+00  0.00000000000E+00  0.30700622465E+04  0.30700622465E+04  0.00000000000E+00 0. -1.
         -1   -1    0    0    0  501 -0.00000000000E+00 -0.00000000000E+00 -0.31866200519E+03  0.31866200519E+03  0.00000000000E+00 0.  1.
         24    2    1    2    0    0  0.57632153411E+03  0.43878667365E+03  0.58959234399E+03  0.93756935936E+03  0.82078717511E+02 0.  0.
        254    2    1    2    0    0 -0.57632153411E+03 -0.43878667365E+03  0.21618078974E+04  0.24511548924E+04  0.90003703571E+03 0.  0.
         23    2    4    4    0    0 -0.74420369876E+03 -0.10056472514E+03  0.15772893975E+04  0.17493564255E+04  0.91943738081E+02 0.  0.
         23    2    4    4    0    0  0.16788216466E+03 -0.33822194851E+03  0.58451849992E+03  0.70179846687E+03  0.90998371884E+02 0.  0.
          4    1    3    3  502    0  0.29881285543E+03  0.19530977381E+03  0.33111234363E+03  0.48689877225E+03  0.00000000000E+00 0. -1.
         -3    1    3    3    0  502  0.27750867868E+03  0.24347689985E+03  0.25848000036E+03  0.45067058711E+03  0.00000000000E+00 0.  1.
         13    1    5    5    0    0 -0.95617582013E+02  0.17066175871E+02  0.21891914921E+03  0.23949858087E+03  0.00000000000E+00 0. -1.
        -13    1    5    5    0    0 -0.64858611675E+03 -0.11763090101E+03  0.13583702482E+04  0.15098578446E+04  0.00000000000E+00 0.  1.
          4    1    6    6  503    0  0.19781012132E+02 -0.11296345742E+03  0.13008715170E+03  0.17342058179E+03  0.00000000000E+00 0. -1.
         -4    1    6    6    0  503  0.14810115252E+03 -0.22525849109E+03  0.45443134822E+03  0.52837788507E+03  0.00000000000E+00 0.  1.
<mgrwt>
<rscale>  0 0.19781933E+04</rscale>
<asrwt>0</asrwt>
<pdfrwt beam="1">  1        2 0.47231725E+00 0.19781933E+04</pdfrwt>
<pdfrwt beam="2">  1       -1 0.49024926E-01 0.19781933E+04</pdfrwt>
<totfact> 0.69621203E+00</totfact>
</mgrwt>
</event>
<event>
12    7  0.2492439E-007  0.1788452E+04  0.7818608E-02  0.8712465E-01
          2   -1    0    0  501    0  0.00000000000E+00  0.00000000000E+00  0.55512039940E+03  0.55512039940E+03  0.00000000000E+00 0. -1.
         -1   -1    0    0    0  501 -0.00000000000E+00 -0.00000000000E+00 -0.14404801250E+04  0.14404801250E+04  0.00000000000E+00 0.  1.
         24    2    1    2    0    0 -0.66076199933E+03 -0.67110365079E+02 -0.34312806129E+03  0.75225630419E+03  0.83919365428E+02 0.  0.
        254    2    1    2    0    0  0.66076199933E+03  0.67110365079E+02 -0.54223166429E+03  0.12433442202E+04  0.90043292436E+03 0.  0.
         23    2    4    4    0    0  0.80460528576E+03  0.33987403796E+02 -0.16297462967E+03  0.82669875718E+03  0.91243058459E+02 0.  0.
         23    2    4    4    0    0 -0.14384328643E+03  0.33122961283E+02 -0.37925703461E+03  0.41664546301E+03  0.89272178899E+02 0.  0.
          4    1    3    3  502    0 -0.38192564231E+03 -0.75728060117E+02 -0.22117832840E+03  0.44779659254E+03  0.00000000000E+00 0. -1.
         -3    1    3    3    0  502 -0.27883635702E+03  0.86176950379E+01 -0.12194973290E+03  0.30445971165E+03  0.00000000000E+00 0.  1.
         13    1    5    5    0    0  0.43360357127E+03 -0.22157104533E+02 -0.10868131628E+03  0.44756521626E+03  0.00000000000E+00 0. -1.
        -13    1    5    5    0    0  0.37100171449E+03  0.56144508329E+02 -0.54293313392E+02  0.37913354092E+03  0.00000000000E+00 0.  1.
          3    1    6    6  503    0 -0.83065008746E+02  0.39384441370E+02 -0.12508487262E+03  0.15523258439E+03  0.00000000000E+00 0. -1.
         -3    1    6    6    0  503 -0.60778277688E+02 -0.62614800872E+01 -0.25417216200E+03  0.26141287861E+03  0.00000000000E+00 0.  1.
<mgrwt>
<rscale>  0 0.17884517E+04</rscale>
<asrwt>0</asrwt>
<pdfrwt beam="1">  1        2 0.85403139E-01 0.17884517E+04</pdfrwt>
<pdfrwt beam="2">  1       -1 0.22161233E+00 0.17884517E+04</pdfrwt>
<totfact> 0.63092551E+00</totfact>
</mgrwt>
</event>
<event>
12    7  0.2492439E-007  0.2047117E+04  0.7818608E-02  0.8584903E-01
         -1   -1    0    0    0  501 -0.00000000000E+00  0.00000000000E+00  0.44920273688E+03  0.44920273688E+03  0.00000000000E+00 0.  1.
          2   -1    0    0  501    0  0.00000000000E+00 -0.00000000000E+00 -0.23322927531E+04  0.23322927531E+04  0.00000000000E+00 0. -1.
         24    2    1    2    0    0  0.37428868073E+02  0.67887872680E+03 -0.12872321535E+03  0.69666676455E+03  0.80608118600E+02 0.  0.
        254    2    1    2    0    0 -0.37428868073E+02 -0.67887872680E+03 -0.17543668009E+04  0.20848287254E+04  0.89801486432E+03 0.  0.
         23    2    4    4    0    0  0.24284505755E+03 -0.21317511359E+03 -0.11421879973E+03  0.35456194645E+03  0.90834402245E+02 0.  0.
         23    2    4    4    0    0 -0.28027392562E+03 -0.46570361322E+03 -0.16401480011E+04  0.17302667790E+04  0.91128107973E+02 0.  0.
          2    1    3    3  502    0 -0.89540081660E+01  0.46564483445E+03 -0.10249720864E+03  0.47687625637E+03  0.00000000000E+00 0. -1.
         -1    1    3    3    0  502  0.46382876239E+02  0.21323389236E+03 -0.26226006712E+02  0.21979050818E+03  0.00000000000E+00 0.  1.
         13    1    5    5    0    0  0.15525250896E+03 -0.11582430092E+03 -0.23200640424E+02  0.19508172630E+03  0.00000000000E+00 0.  1.
        -13    1    5    5    0    0  0.87592548592E+02 -0.97350812663E+02 -0.91018159303E+02  0.15948022015E+03  0.00000000000E+00 0. -1.
          2    1    6    6  503    0 -0.16698144708E+03 -0.20874898469E+03 -0.88996990162E+03  0.92924989538E+03  0.00000000000E+00 0. -1.
         -2    1    6    6    0  503 -0.11329247854E+03 -0.25695462852E+03 -0.75017809953E+03  0.80101688361E+03  0.00000000000E+00 0.  1.
<mgrwt>
<rscale>  0 0.20471173E+04</rscale>
<asrwt>0</asrwt>
<pdfrwt beam="1">  1        2 0.35881427E+00 0.20471173E+04</pdfrwt>
<pdfrwt beam="2">  1       -1 0.69108113E-01 0.20471173E+04</pdfrwt>
<totfact> 0.97000774E+00</totfact>
</mgrwt>
</event>
<event>
12    7  0.2492439E-007  0.1363947E+04  0.7818608E-02  0.8980337E-01
          2   -1    0    0  501    0  0.00000000000E+00  0.00000000000E+00  0.42430125890E+03  0.42430125890E+03  0.00000000000E+00 0. -1.
         -1   -1    0    0    0  501 -0.00000000000E+00 -0.00000000000E+00 -0.10961265379E+04  0.10961265379E+04  0.00000000000E+00 0.  1.
         24    2    1    2    0    0 -0.12482530722E+03 -0.14356298507E+03 -0.55497909083E+03  0.59226910029E+03  0.81173936045E+02 0.  0.
        254    2    1    2    0    0  0.12482530722E+03  0.14356298507E+03 -0.11684618820E+03  0.92815869654E+03  0.90090723511E+03 0.  0.
         23    2    4    4    0    0  0.32261688134E+03 -0.92368707350E+02  0.26103772594E+03  0.43246171045E+03  0.79175794394E+02 0.  0.
         23    2    4    4    0    0 -0.19779157413E+03  0.23593169242E+03 -0.37788391414E+03  0.49569698609E+03  0.90188575601E+02 0.  0.
          4    1    3    3  502    0 -0.30247695331E+02 -0.27378074394E+02 -0.45002251202E+02  0.60742774415E+02  0.00000000000E+00 0. -1.
         -3    1    3    3    0  502 -0.94577611887E+02 -0.11618491067E+03 -0.50997683963E+03  0.53152632587E+03  0.00000000000E+00 0.  1.
         13    1    5    5    0    0  0.39216418786E+01 -0.41685544766E+01 -0.53499697759E+01  0.78344302953E+01  0.00000000000E+00 0. -1.
        -13    1    5    5    0    0  0.31869523947E+03 -0.88200152874E+02  0.26638769572E+03  0.42462728016E+03  0.00000000000E+00 0.  1.
          2    1    6    6  503    0  0.49378916546E+01  0.29106902692E+02 -0.51365916588E+02  0.59245691365E+02  0.00000000000E+00 0. -1.
         -2    1    6    6    0  503 -0.20272946578E+03  0.20682478973E+03 -0.32651799755E+03  0.43645129472E+03  0.00000000000E+00 0.  1.
<mgrwt>
<rscale>  0 0.13639470E+04</rscale>
<asrwt>0</asrwt>
<pdfrwt beam="1">  1        2 0.65277118E-01 0.13639470E+04</pdfrwt>
<pdfrwt beam="2">  1       -1 0.16863485E+00 0.13639470E+04</pdfrwt>
<totfact> 0.20909570E+01</totfact>
</mgrwt>
</event>
<event>
12    7  0.2492439E-007  0.2185803E+04  0.7818608E-02  0.8524361E-01
          2   -1    0    0  501    0  0.00000000000E+00  0.00000000000E+00  0.16224325421E+04  0.16224325421E+04  0.00000000000E+00 0. -1.
         -1   -1    0    0    0  501 -0.00000000000E+00 -0.00000000000E+00 -0.73619929983E+03  0.73619929983E+03  0.00000000000E+00 0.  1.
         24    2    1    2    0    0  0.26842388702E+03  0.44908258023E+03  0.11675006373E+04  0.12817655912E+04  0.78350148447E+02 0.  0.
        254    2    1    2    0    0 -0.26842388702E+03 -0.44908258023E+03 -0.28126739501E+03  0.10768662507E+04  0.89822214817E+03 0.  0.
         23    2    4    4    0    0 -0.26802346551E+02  0.24302576339E+02  0.28131250176E+03  0.29763439213E+03  0.90224867599E+02 0.  0.
         23    2    4    4    0    0 -0.24162154047E+03 -0.47338515657E+03 -0.56257989677E+03  0.77923185859E+03  0.90728572802E+02 0.  0.
          4    1    3    3  502    0  0.71475231928E+02  0.15265178598E+03  0.45745898876E+03  0.48752436138E+03  0.00000000000E+00 0. -1.
         -3    1    3    3    0  502  0.19694865509E+03  0.29643079424E+03  0.71004164852E+03  0.79424122982E+03  0.00000000000E+00 0.  1.
         13    1    5    5    0    0 -0.27039752748E+02 -0.24318938335E+02  0.53494321433E+02  0.64685403423E+02  0.00000000000E+00 0. -1.
        -13    1    5    5    0    0  0.23740619691E+00  0.48621514674E+02  0.22781818033E+03  0.23294898870E+03  0.00000000000E+00 0.  1.
          1    1    6    6  503    0  0.41756724119E+01 -0.42915780773E+02 -0.37681617888E+02  0.57263468338E+02  0.00000000000E+00 0. -1.
         -1    1    6    6    0  503 -0.24579721288E+03 -0.43046937580E+03 -0.52489827888E+03  0.72196839026E+03  0.00000000000E+00 0.  1.
<mgrwt>
<rscale>  0 0.21858030E+04</rscale>
<asrwt>0</asrwt>
<pdfrwt beam="1">  1        2 0.24960500E+00 0.21858030E+04</pdfrwt>
<pdfrwt beam="2">  1       -1 0.11326143E+00 0.21858030E+04</pdfrwt>
<totfact> 0.80391104E+00</totfact>
</mgrwt>
</event>
<event>
12    7  0.2492439E-007  0.2427467E+04  0.7818608E-02  0.8429291E-01
          2   -1    0    0  501    0  0.00000000000E+00  0.00000000000E+00  0.11096377507E+04  0.11096377507E+04  0.00000000000E+00 0. -1.
         -1   -1    0    0    0  501 -0.00000000000E+00 -0.00000000000E+00 -0.13275947790E+04  0.13275947790E+04  0.00000000000E+00 0.  1.
         24    2    1    2    0    0  0.68427548789E+03 -0.52686572916E+03 -0.68624576611E+03  0.11058667762E+04  0.78661523075E+02 0.  0.
        254    2    1    2    0    0 -0.68427548789E+03  0.52686572916E+03  0.46828873783E+03  0.13313657536E+04  0.89856551682E+03 0.  0.
         23    2    4    4    0    0 -0.52698928679E+03  0.76586363231E+03  0.27159937364E+03  0.97291151144E+03  0.92335137723E+02 0.  0.
         23    2    4    4    0    0 -0.15728620110E+03 -0.23899790315E+03  0.19668936419E+03  0.35845424217E+03  0.89127947219E+02 0.  0.
          4    1    3    3  502    0  0.20578722771E+03 -0.20356495886E+03 -0.21663433836E+03  0.36154876866E+03  0.00000000000E+00 0. -1.
         -3    1    3    3    0  502  0.47848826018E+03 -0.32330077030E+03 -0.46961142775E+03  0.74431800749E+03  0.00000000000E+00 0.  1.
         13    1    5    5    0    0 -0.30215356829E+03  0.51708332409E+03  0.17142044764E+03  0.62294214238E+03  0.00000000000E+00 0.  1.
        -13    1    5    5    0    0 -0.22483571850E+03  0.24878030821E+03  0.10017892599E+03  0.34996936906E+03  0.00000000000E+00 0. -1.
          3    1    6    6  503    0 -0.31139859305E+02 -0.10278340020E+03  0.10939504495E+03  0.15330164400E+03  0.00000000000E+00 0. -1.
         -3    1    6    6    0  503 -0.12614634179E+03 -0.13621450295E+03  0.87294319242E+02  0.20515259816E+03  0.00000000000E+00 0.  1.
<mgrwt>
<rscale>  0 0.24274672E+04</rscale>
<asrwt>0</asrwt>
<pdfrwt beam="1">  1        2 0.17071350E+00 0.24274672E+04</pdfrwt>
<pdfrwt beam="2">  1       -1 0.20424535E+00 0.24274672E+04</pdfrwt>
<totfact> 0.30928521E+00</totfact>
</mgrwt>
</event>
<event>
12    7  0.2492439E-007  0.2732893E+04  0.7818608E-02  0.8324410E-01
          2   -1    0    0  501    0  0.00000000000E+00  0.00000000000E+00  0.20106374366E+04  0.20106374366E+04  0.00000000000E+00 0. -1.
         -1   -1    0    0    0  501 -0.00000000000E+00 -0.00000000000E+00 -0.92864907554E+03  0.92864907554E+03  0.00000000000E+00 0.  1.
         24    2    1    2    0    0  0.19333420752E+03  0.11438086242E+04  0.91067602551E+03  0.14769286414E+04  0.79442456304E+02 0.  0.
        254    2    1    2    0    0 -0.19333420752E+03 -0.11438086242E+04  0.17131233560E+03  0.14623578707E+04  0.87376560998E+03 0.  0.
         23    2    4    4    0    0  0.28404216121E+03 -0.16888052074E+03 -0.64237520299E+02  0.34786427718E+03  0.87649966853E+02 0.  0.
         23    2    4    4    0    0 -0.47737636873E+03 -0.97492810347E+03  0.23554985590E+03  0.11144935936E+04  0.90770210602E+02 0.  0.
          4    1    3    3  502    0  0.16087564508E+03  0.73698043891E+03  0.57502911956E+03  0.94851443261E+03  0.00000000000E+00 0. -1.
         -3    1    3    3    0  502  0.32458562439E+02  0.40682818530E+03  0.33564690595E+03  0.52841420884E+03  0.00000000000E+00 0.  1.
         13    1    5    5    0    0  0.18064956466E+03 -0.73696116044E+02 -0.44881916026E+01  0.19515513469E+03  0.00000000000E+00 0. -1.
        -13    1    5    5    0    0  0.10339259655E+03 -0.95184404697E+02 -0.59749328696E+02  0.15270914249E+03  0.00000000000E+00 0.  1.
          1    1    6    6  503    0 -0.25531205047E+03 -0.48964265073E+03  0.75600039075E+02  0.55735943021E+03  0.00000000000E+00 0. -1.
         -1    1    6    6    0  503 -0.22206431826E+03 -0.48528545274E+03  0.15994981682E+03  0.55713416336E+03  0.00000000000E+00 0.  1.
<mgrwt>
<rscale>  0 0.27328934E+04</rscale>
<asrwt>0</asrwt>
<pdfrwt beam="1">  1        2 0.30932883E+00 0.27328934E+04</pdfrwt>
<pdfrwt beam="2">  1       -1 0.14286909E+00 0.27328934E+04</pdfrwt>
<totfact> 0.26068273E+00</totfact>
</mgrwt>
</event>
<event>
12    7  0.2492439E-007  0.2162526E+04  0.7818608E-02  0.8534190E-01
         -1   -1    0    0    0  501 -0.00000000000E+00  0.00000000000E+00  0.74280310440E+03  0.74280310440E+03  0.00000000000E+00 0.  1.
          2   -1    0    0  501    0  0.00000000000E+00 -0.00000000000E+00 -0.15739423865E+04  0.15739423865E+04  0.00000000000E+00 0. -1.
         24    2    1    2    0    0  0.50447215293E+01 -0.74062381682E+03  0.18813542605E+03  0.76825757765E+03  0.79219188429E+02 0.  0.
        254    2    1    2    0    0 -0.50447215293E+01  0.74062381682E+03 -0.10192747081E+04  0.15484879132E+04  0.90019153491E+03 0.  0.
         23    2    4    4    0    0  0.43544744487E+02  0.42692492050E+03 -0.11203094382E+04  0.12031321055E+04  0.90953799455E+02 0.  0.
         23    2    4    4    0    0 -0.48589466016E+02  0.31369889633E+03  0.10103473001E+03  0.34535580771E+03  0.91075152953E+02 0.  0.
          4    1    3    3  502    0 -0.33767868267E+02 -0.29488451746E+03  0.59617601275E+02  0.30273983211E+03  0.00000000000E+00 0. -1.
         -3    1    3    3    0  502  0.38812589796E+02 -0.44573929937E+03  0.12851782478E+03  0.46551774554E+03  0.00000000000E+00 0.  1.
         13    1    5    5    0    0  0.54378795648E+02  0.13183731658E+03 -0.39903747555E+03  0.42375587117E+03  0.00000000000E+00 0. -1.
        -13    1    5    5    0    0 -0.10834051161E+02  0.29508760391E+03 -0.72127196260E+03  0.77937623436E+03  0.00000000000E+00 0.  1.
          3    1    6    6  503    0 -0.58079731233E+02  0.24376681581E+03  0.43578084751E+02  0.25435126330E+03  0.00000000000E+00 0. -1.
         -3    1    6    6    0  503  0.94902652168E+01  0.69932080515E+02  0.57456645255E+02  0.91004544409E+02  0.00000000000E+00 0.  1.
<mgrwt>
<rscale>  0 0.21625256E+04</rscale>
<asrwt>0</asrwt>
<pdfrwt beam="1">  1        2 0.24214498E+00 0.21625256E+04</pdfrwt>
<pdfrwt beam="2">  1       -1 0.11427740E+00 0.21625256E+04</pdfrwt>
<totfact> 0.83938972E+00</totfact>
</mgrwt>
</event>
<event>
12    7  0.2492439E-007  0.2502612E+04  0.7818608E-02  0.8402055E-01
         -1   -1    0    0    0  501 -0.00000000000E+00  0.00000000000E+00  0.12292744797E+04  0.12292744797E+04  0.00000000000E+00 0.  1.
          2   -1    0    0  501    0  0.00000000000E+00 -0.00000000000E+00 -0.12737327173E+04  0.12737327173E+04  0.00000000000E+00 0. -1.
         24    2    1    2    0    0 -0.87025151687E+03 -0.50558372187E+02  0.63231720660E+03  0.10799683354E+04  0.81318535259E+02 0.  0.
        254    2    1    2    0    0  0.87025151687E+03  0.50558372187E+02 -0.67677544420E+03  0.14230388615E+04  0.89839899144E+03 0.  0.
         23    2    4    4    0    0  0.90088588951E+03 -0.15364221244E+01 -0.83409345931E+03  0.12312646593E+04  0.93289956063E+02 0.  0.
         23    2    4    4    0    0 -0.30634372640E+02  0.52094794312E+02  0.15731801511E+03  0.19177420217E+03  0.91520786485E+02 0.  0.
          2    1    3    3  502    0 -0.16676701914E+03  0.18086524625E+02  0.10205769446E+03  0.19635206656E+03  0.00000000000E+00 0. -1.
         -1    1    3    3    0  502 -0.70348449773E+03 -0.68644896812E+02  0.53025951214E+03  0.88361626887E+03  0.00000000000E+00 0.  1.
         13    1    5    5    0    0  0.75589075769E+02  0.10444499367E+02 -0.41108499069E+02  0.86675859606E+02  0.00000000000E+00 0.  1.
        -13    1    5    5    0    0  0.82529681374E+03 -0.11980921491E+02 -0.79298496024E+03  0.11445887997E+04  0.00000000000E+00 0. -1.
          2    1    6    6  503    0 -0.56493958076E+02  0.10692469211E+02  0.10818221012E+03  0.12251239441E+03  0.00000000000E+00 0.  1.
         -2    1    6    6    0  503  0.25859585436E+02  0.41402325101E+02  0.49135804986E+02  0.69261807760E+02  0.00000000000E+00 0. -1.
<mgrwt>
<rscale>  0 0.25026123E+04</rscale>
<asrwt>0</asrwt>
<pdfrwt beam="1">  1        2 0.19595888E+00 0.25026123E+04</pdfrwt>
<pdfrwt beam="2">  1       -1 0.18911915E+00 0.25026123E+04</pdfrwt>
<totfact> 0.31193832E+00</totfact>
</mgrwt>
</event>
<event>
12    7  0.2492439E-007  0.1473705E+04  0.7818608E-02  0.8902130E-01
          2   -1    0    0  501    0  0.00000000000E+00  0.00000000000E+00  0.93989625469E+03  0.93989625469E+03  0.00000000000E+00 0. -1.
         -1   -1    0    0    0  501 -0.00000000000E+00 -0.00000000000E+00 -0.57767154070E+03  0.57767154070E+03  0.00000000000E+00 0.  1.
         24    2    1    2    0    0 -0.35860306426E+03 -0.21142808811E+03 -0.83395043922E+02  0.43026702250E+03  0.69835400505E+02 0.  0.
        254    2    1    2    0    0  0.35860306426E+03  0.21142808811E+03  0.44561975791E+03  0.10873007729E+04  0.90019331697E+03 0.  0.
         23    2    4    4    0    0  0.44989044855E+03  0.22324545866E+03 -0.10549303963E+03  0.52150053557E+03  0.92704243036E+02 0.  0.
         23    2    4    4    0    0 -0.91287384291E+02 -0.11817370554E+02  0.55111279755E+03  0.56580023731E+03  0.89059284412E+02 0.  0.
          4    1    3    3  502    0 -0.13153920882E+03 -0.44892575672E+02 -0.44889016585E+02  0.14605797006E+03  0.00000000000E+00 0. -1.
         -3    1    3    3    0  502 -0.22706385545E+03 -0.16653551244E+03 -0.38506027337E+02  0.28420905245E+03  0.00000000000E+00 0.  1.
         13    1    5    5    0    0  0.33818265500E+03  0.16299988990E+03 -0.36877045058E+02  0.37722193561E+03  0.00000000000E+00 0. -1.
        -13    1    5    5    0    0  0.11170779355E+03  0.60245568759E+02 -0.68615994577E+02  0.14427859996E+03  0.00000000000E+00 0.  1.
          4    1    6    6  503    0 -0.77737802274E+02 -0.82013373697E+01  0.20491404299E+03  0.21931756166E+03  0.00000000000E+00 0. -1.
         -4    1    6    6    0  503 -0.13549582017E+02 -0.36160331845E+01  0.34619875455E+03  0.34648267565E+03  0.00000000000E+00 0.  1.
<mgrwt>
<rscale>  0 0.14737046E+04</rscale>
<asrwt>0</asrwt>
<pdfrwt beam="1">  1        2 0.14459942E+00 0.14737046E+04</pdfrwt>
<pdfrwt beam="2">  1       -1 0.88872545E-01 0.14737046E+04</pdfrwt>
<totfact> 0.37840229E+01</totfact>
</mgrwt>
</event>
<event>
12    7  0.2492439E-007  0.1572785E+04  0.7818608E-02  0.8837444E-01
         -1   -1    0    0    0  501 -0.00000000000E+00  0.00000000000E+00  0.60178538923E+03  0.60178538923E+03  0.00000000000E+00 0.  1.
          2   -1    0    0  501    0  0.00000000000E+00 -0.00000000000E+00 -0.10276312466E+04  0.10276312466E+04  0.00000000000E+00 0. -1.
         24    2    1    2    0    0 -0.85030933646E+02 -0.51060890686E+03 -0.22477478316E+03  0.56997453100E+03  0.79972166410E+02 0.  0.
        254    2    1    2    0    0  0.85030933646E+02  0.51060890686E+03 -0.20107107423E+03  0.10594421049E+04  0.90223959190E+03 0.  0.
         23    2    4    4    0    0  0.41002041128E+03  0.21422770193E+03  0.14390302879E+03  0.49305394578E+03  0.91563452392E+02 0.  0.
         23    2    4    4    0    0 -0.32498947764E+03  0.29638120493E+03 -0.34497410301E+03  0.56638815907E+03  0.91260263929E+02 0.  0.
          4    1    3    3  502    0 -0.88122034977E+02 -0.45315721817E+03 -0.22231428816E+03  0.51238715846E+03  0.00000000000E+00 0. -1.
         -3    1    3    3    0  502  0.30911013311E+01 -0.57451688689E+02 -0.24604949962E+01  0.57587372542E+02  0.00000000000E+00 0.  1.
         13    1    5    5    0    0  0.40237165528E+03  0.18969155499E+03  0.14326864410E+03  0.46734541764E+03  0.00000000000E+00 0.  1.
        -13    1    5    5    0    0  0.76487560023E+01  0.24536146946E+02  0.63438468676E+00  0.25708528143E+02  0.00000000000E+00 0. -1.
          4    1    6    6  503    0 -0.54713951734E+02  0.18119276928E+02 -0.71141192267E+02  0.91558691275E+02  0.00000000000E+00 0. -1.
         -4    1    6    6    0  503 -0.27027552590E+03  0.27826192800E+03 -0.27383291075E+03  0.47482946779E+03  0.00000000000E+00 0.  1.
<mgrwt>
<rscale>  0 0.15727854E+04</rscale>
<asrwt>0</asrwt>
<pdfrwt beam="1">  1        2 0.15809711E+00 0.15727854E+04</pdfrwt>
<pdfrwt beam="2">  1       -1 0.92582368E-01 0.15727854E+04</pdfrwt>
<totfact> 0.30081319E+01</totfact>
</mgrwt>
</event>
<event>
12    7  0.2492439E-007  0.1294046E+04  0.7818608E-02  0.9034300E-01
          2   -1    0    0  501    0  0.00000000000E+00  0.00000000000E+00  0.20296265192E+04  0.20296265192E+04  0.00000000000E+00 0. -1.
         -1   -1    0    0    0  501 -0.00000000000E+00 -0.00000000000E+00 -0.20626396613E+03  0.20626396613E+03  0.00000000000E+00 0.  1.
         24    2    1    2    0    0  0.13336085978E+03 -0.12647362750E+03  0.82303998412E+01  0.20087052352E+03  0.80625866596E+02 0.  0.
        254    2    1    2    0    0 -0.13336085978E+03  0.12647362750E+03  0.18151321532E+04  0.20350199618E+04  0.90156575682E+03 0.  0.
         23    2    4    4    0    0 -0.29600202786E+03 -0.17963426624E+03  0.15479159769E+04  0.15881474577E+04  0.79264150878E+02 0.  0.
         23    2    4    4    0    0  0.16264116808E+03  0.30610789374E+03  0.26721617627E+03  0.44687250409E+03  0.90201762133E+02 0.  0.
          4    1    3    3  502    0 -0.64579156649E+01 -0.30151648279E+02  0.33206859858E+01  0.31013763462E+02  0.00000000000E+00 0. -1.
         -3    1    3    3    0  502  0.13981877544E+03 -0.96321979218E+02  0.49097138554E+01  0.16985676006E+03  0.00000000000E+00 0.  1.
         13    1    5    5    0    0 -0.57278085913E+02 -0.45643663519E+02  0.48721017257E+03  0.49268435677E+03  0.00000000000E+00 0.  1.
        -13    1    5    5    0    0 -0.23872394194E+03 -0.13399060272E+03  0.10607058043E+04  0.10954631009E+04  0.00000000000E+00 0. -1.
          3    1    6    6  503    0  0.16341001577E+03  0.25681936731E+03  0.20284099186E+03  0.36579159184E+03  0.00000000000E+00 0. -1.
         -3    1    6    6    0  503 -0.76884769748E+00  0.49288526424E+02  0.64375184408E+02  0.81080912251E+02  0.00000000000E+00 0.  1.
<mgrwt>
<rscale>  0 0.12940461E+04</rscale>
<asrwt>0</asrwt>
<pdfrwt beam="1">  1        2 0.31225022E+00 0.12940461E+04</pdfrwt>
<pdfrwt beam="2">  1       -1 0.31732919E-01 0.12940461E+04</pdfrwt>
<totfact> 0.66466145E+01</totfact>
</mgrwt>
</event>
<event>
12    7  0.2492439E-007  0.1464946E+04  0.7818608E-02  0.8908104E-01
          2   -1    0    0  501    0  0.00000000000E+00  0.00000000000E+00  0.30639137437E+04  0.30639137437E+04  0.00000000000E+00 0. -1.
         -1   -1    0    0    0  501 -0.00000000000E+00 -0.00000000000E+00 -0.17510832540E+03  0.17510832540E+03  0.00000000000E+00 0.  1.
         24    2    1    2    0    0 -0.40187626522E+03 -0.20678010095E+03  0.97307576817E+03  0.10759453788E+04  0.80743203223E+02 0.  0.
        254    2    1    2    0    0  0.40187626522E+03  0.20678010095E+03  0.19157296501E+04  0.21630766903E+04  0.89700509086E+03 0.  0.
         23    2    4    4    0    0  0.24133500663E+03  0.21067784728E+03  0.11312092715E+03  0.35106392387E+03  0.88440905282E+02 0.  0.
         23    2    4    4    0    0  0.16054125859E+03 -0.38977463322E+01  0.18026087230E+04  0.18120127664E+04  0.90572453751E+02 0.  0.
          2    1    3    3  502    0 -0.30014913483E+03 -0.15425803940E+03  0.63645570625E+03  0.72038941683E+03  0.00000000000E+00 0. -1.
         -1    1    3    3    0  502 -0.10172713038E+03 -0.52522061547E+02  0.33662006192E+03  0.35555596197E+03  0.00000000000E+00 0.  1.
         13    1    5    5    0    0  0.16031539733E+03  0.85336741875E+02  0.78510375090E+02  0.19785667826E+03  0.00000000000E+00 0. -1.
        -13    1    5    5    0    0  0.81019609303E+02  0.12534110540E+03  0.34610552057E+02  0.15320724562E+03  0.00000000000E+00 0.  1.
          1    1    6    6  503    0  0.69906135502E+02 -0.20082058893E+02  0.12207604420E+04  0.12229252690E+04  0.00000000000E+00 0. -1.
         -1    1    6    6    0  503  0.90635123085E+02  0.16184312561E+02  0.58184828101E+03  0.58908749742E+03  0.00000000000E+00 0.  1.
<mgrwt>
<rscale>  0 0.14649461E+04</rscale>
<asrwt>0</asrwt>
<pdfrwt beam="1">  1        2 0.47137131E+00 0.14649461E+04</pdfrwt>
<pdfrwt beam="2">  1       -1 0.26939745E-01 0.14649461E+04</pdfrwt>
<totfact> 0.21740306E+01</totfact>
</mgrwt>
</event>
<event>
12    7  0.2492439E-007  0.2019501E+04  0.7818608E-02  0.8597557E-01
         -1   -1    0    0    0  501 -0.00000000000E+00  0.00000000000E+00  0.50368628882E+03  0.50368628882E+03  0.00000000000E+00 0.  1.
          2   -1    0    0  501    0  0.00000000000E+00 -0.00000000000E+00 -0.20242686690E+04  0.20242686690E+04  0.00000000000E+00 0. -1.
         24    2    1    2    0    0 -0.69871357710E+03  0.82539534134E+02 -0.11213639946E+04  0.13263809882E+04  0.82558343306E+02 0.  0.
        254    2    1    2    0    0  0.69871357710E+03 -0.82539534134E+02 -0.39921838558E+03  0.12015739696E+04  0.88847692566E+03 0.  0.
         23    2    4    4    0    0 -0.61919980539E+02 -0.26009723798E+03  0.63553695956E+02  0.28888517048E+03  0.89055669437E+02 0.  0.
         23    2    4    4    0    0  0.76063355764E+03  0.17755770384E+03 -0.46277208153E+03  0.91268879909E+03  0.93555851405E+02 0.  0.
          4    1    3    3  502    0 -0.29665840262E+03  0.58611772752E+02 -0.54431442684E+03  0.62267145672E+03  0.00000000000E+00 0. -1.
         -3    1    3    3    0  502 -0.40205517448E+03  0.23927761382E+02 -0.57704956773E+03  0.70370953149E+03  0.00000000000E+00 0.  1.
         13    1    5    5    0    0 -0.68646130951E+02 -0.98503259753E+02  0.28313279564E+02  0.12335649669E+03  0.00000000000E+00 0.  1.
        -13    1    5    5    0    0  0.67261504115E+01 -0.16159397823E+03  0.35240416392E+02  0.16552867379E+03  0.00000000000E+00 0. -1.
          1    1    6    6  503    0  0.40570685106E+03  0.14203179244E+03 -0.24511812876E+03  0.49482721844E+03  0.00000000000E+00 0. -1.
         -1    1    6    6    0  503  0.35492670659E+03  0.35525911402E+02 -0.21765395277E+03  0.41786158065E+03  0.00000000000E+00 0.  1.
<mgrwt>
<rscale>  0 0.20195013E+04</rscale>
<asrwt>0</asrwt>
<pdfrwt beam="1">  1        2 0.31142595E+00 0.20195013E+04</pdfrwt>
<pdfrwt beam="2">  1       -1 0.77490198E-01 0.20195013E+04</pdfrwt>
<totfact> 0.11415826E+01</totfact>
</mgrwt>
</event>
<event>
12    7  0.2492439E-007  0.1920984E+04  0.7818608E-02  0.8644481E-01
         -1   -1    0    0    0  501 -0.00000000000E+00  0.00000000000E+00  0.85423536173E+03  0.85423536173E+03  0.00000000000E+00 0.  1.
          2   -1    0    0  501    0  0.00000000000E+00 -0.00000000000E+00 -0.10799659067E+04  0.10799659067E+04  0.00000000000E+00 0. -1.
         24    2    1    2    0    0  0.24058613903E+03  0.63922963355E+03  0.21496460014E+03  0.72060898858E+03  0.81063681212E+02 0.  0.
        254    2    1    2    0    0 -0.24058613903E+03 -0.63922963355E+03 -0.44069514510E+03  0.12135922798E+04  0.90116468863E+03 0.  0.
         23    2    4    4    0    0 -0.14249739043E+03 -0.20962875323E+02  0.23360713694E+03  0.28901400450E+03  0.90619269185E+02 0.  0.
         23    2    4    4    0    0 -0.98088748595E+02 -0.61826675823E+03 -0.67430228203E+03  0.92457827532E+03  0.91028746649E+02 0.  0.
          2    1    3    3  502    0  0.55739722509E+02  0.23245856496E+03  0.49260437952E+02  0.24407066976E+03  0.00000000000E+00 0. -1.
         -1    1    3    3    0  502  0.18484641652E+03  0.40677106859E+03  0.16570416219E+03  0.47653831882E+03  0.00000000000E+00 0.  1.
         13    1    5    5    0    0 -0.11917232611E+03 -0.50601882960E+02  0.20135757446E+03  0.23938977978E+03  0.00000000000E+00 0. -1.
        -13    1    5    5    0    0 -0.23325064317E+02  0.29639007637E+02  0.32249562477E+02  0.49624224720E+02  0.00000000000E+00 0.  1.
          3    1    6    6  503    0 -0.14708726794E+02 -0.37619457360E+03 -0.40816499418E+03  0.55528133979E+03  0.00000000000E+00 0. -1.
         -3    1    6    6    0  503 -0.83380021801E+02 -0.24207218462E+03 -0.26613728786E+03  0.36929693553E+03  0.00000000000E+00 0.  1.
<mgrwt>
<rscale>  0 0.19209842E+04</rscale>
<asrwt>0</asrwt>
<pdfrwt beam="1">  1        2 0.16614860E+00 0.19209842E+04</pdfrwt>
<pdfrwt beam="2">  1       -1 0.13142083E+00 0.19209842E+04</pdfrwt>
<totfact> 0.11795980E+01</totfact>
</mgrwt>
</event>
<event>
12    7  0.2492439E-007  0.2276706E+04  0.7818608E-02  0.8487163E-01
         -1   -1    0    0    0  501 -0.00000000000E+00  0.00000000000E+00  0.10899266276E+04  0.10899266276E+04  0.00000000000E+00 0.  1.
          2   -1    0    0  501    0  0.00000000000E+00 -0.00000000000E+00 -0.11889312727E+04  0.11889312727E+04  0.00000000000E+00 0. -1.
         24    2    1    2    0    0  0.35509798621E+03  0.97160933080E+02 -0.92826892100E+03  0.10017448094E+04  0.79212668060E+02 0.  0.
        254    2    1    2    0    0 -0.35509798621E+03 -0.97160933080E+02  0.82926427587E+03  0.12771130909E+04  0.89877905008E+03 0.  0.
         23    2    4    4    0    0 -0.32512892688E+03  0.18197546773E+03 -0.13779159127E+02  0.38394917992E+03  0.91669065562E+02 0.  0.
         23    2    4    4    0    0 -0.29969059332E+02 -0.27913640081E+03  0.84304343500E+03  0.89316391094E+03  0.90577390826E+02 0.  0.
          4    1    3    3  502    0  0.27219889456E+03  0.54193419102E+02 -0.76318632666E+03  0.81208529975E+03  0.00000000000E+00 0. -1.
         -3    1    3    3    0  502  0.82899091652E+02  0.42967513978E+02 -0.16508259434E+03  0.18965950967E+03  0.00000000000E+00 0.  1.
         13    1    5    5    0    0 -0.15581273574E+03  0.72185513641E+02 -0.50163953815E+02  0.17889879614E+03  0.00000000000E+00 0.  1.
        -13    1    5    5    0    0 -0.16931619114E+03  0.10978995409E+03  0.36384794688E+02  0.20505038378E+03  0.00000000000E+00 0. -1.
          3    1    6    6  503    0 -0.94340725857E+01 -0.17083810698E+03  0.37301957484E+03  0.41038794297E+03  0.00000000000E+00 0. -1.
         -3    1    6    6    0  503 -0.20534986747E+02 -0.10829829384E+03  0.47002386016E+03  0.48277596797E+03  0.00000000000E+00 0.  1.
<mgrwt>
<rscale>  0 0.22767063E+04</rscale>
<asrwt>0</asrwt>
<pdfrwt beam="1">  1        2 0.18291250E+00 0.22767063E+04</pdfrwt>
<pdfrwt beam="2">  1       -1 0.16768102E+00 0.22767063E+04</pdfrwt>
<totfact> 0.50974307E+00</totfact>
</mgrwt>
</event>
<event>
12    7  0.2492439E-007  0.1089469E+04  0.7818608E-02  0.9215517E-01
         -1   -1    0    0    0  501 -0.00000000000E+00  0.00000000000E+00  0.12334214843E+03  0.12334214843E+03  0.00000000000E+00 0.  1.
          2   -1    0    0  501    0  0.00000000000E+00 -0.00000000000E+00 -0.24057926733E+04  0.24057926733E+04  0.00000000000E+00 0. -1.
         24    2    1    2    0    0  0.62854580106E+02  0.11029704728E+03 -0.17905380137E+03  0.23788140227E+03  0.91712381283E+02 0.  0.
        254    2    1    2    0    0 -0.62854580106E+02 -0.11029704728E+03 -0.21033967235E+04  0.22912534195E+04  0.89969345831E+03 0.  0.
         23    2    4    4    0    0  0.35467233432E+03 -0.24780486673E+03 -0.12673302401E+04  0.13422880604E+04  0.91714682264E+02 0.  0.
         23    2    4    4    0    0 -0.41752691442E+03  0.13750781945E+03 -0.83606648346E+03  0.94896535911E+03  0.91054727264E+02 0.  0.
          2    1    3    3  502    0 -0.52668025519E+01  0.72734822226E+01 -0.77400270659E+02  0.77919475428E+02  0.00000000000E+00 0. -1.
         -1    1    3    3    0  502  0.68121382658E+02  0.10302356506E+03 -0.10165353071E+03  0.15996192684E+03  0.00000000000E+00 0.  1.
         13    1    5    5    0    0  0.25789314241E+02 -0.25364529330E+02 -0.49081189970E+02  0.60970577216E+02  0.00000000000E+00 0.  1.
        -13    1    5    5    0    0  0.32888302008E+03 -0.22244033740E+03 -0.12182490501E+04  0.12813174832E+04  0.00000000000E+00 0. -1.
          2    1    6    6  503    0 -0.40805200615E+03  0.13424062556E+03 -0.76635273016E+03  0.87853485549E+03  0.00000000000E+00 0. -1.
         -2    1    6    6    0  503 -0.94749082701E+01  0.32671938892E+01 -0.69713753292E+02  0.70430503624E+02  0.00000000000E+00 0.  1.
<mgrwt>
<rscale>  0 0.10894689E+04</rscale>
<asrwt>0</asrwt>
<pdfrwt beam="1">  1        2 0.37012191E+00 0.10894689E+04</pdfrwt>
<pdfrwt beam="2">  1       -1 0.18975717E-01 0.10894689E+04</pdfrwt>
<totfact> 0.10046838E+02</totfact>
</mgrwt>
</event>
<event>
12    7  0.2492439E-007  0.3933350E+04  0.7818608E-02  0.8018129E-01
          2   -1    0    0  501    0  0.00000000000E+00  0.00000000000E+00  0.19645972136E+04  0.19645972136E+04  0.00000000000E+00 0. -1.
         -1   -1    0    0    0  501 -0.00000000000E+00 -0.00000000000E+00 -0.19687547367E+04  0.19687547367E+04  0.00000000000E+00 0.  1.
         24    2    1    2    0    0 -0.62844233120E+03 -0.16574344241E+04  0.56946068113E+03  0.18635190028E+04  0.79931050087E+02 0.  0.
        254    2    1    2    0    0  0.62844233120E+03  0.16574344241E+04 -0.57361820419E+03  0.20698329475E+04  0.90174383977E+03 0.  0.
         23    2    4    4    0    0  0.70783937554E+03  0.17094684913E+04 -0.57350662924E+03  0.19392310129E+04  0.91585823324E+02 0.  0.
         23    2    4    4    0    0 -0.79397044338E+02 -0.52034067238E+02 -0.11157494550E+00  0.13060193464E+03  0.89696254547E+02 0.  0.
          2    1    3    3  502    0 -0.17494199474E+03 -0.39307716811E+03  0.16375567612E+03  0.46035886336E+03  0.00000000000E+00 0. -1.
         -1    1    3    3    0  502 -0.45350033646E+03 -0.12643572560E+04  0.40570500501E+03  0.14031601395E+04  0.00000000000E+00 0.  1.
         13    1    5    5    0    0  0.27109007246E+03  0.70621838666E+03 -0.27690311247E+03  0.80554923545E+03  0.00000000000E+00 0.  1.
        -13    1    5    5    0    0  0.43674930308E+03  0.10032501047E+04 -0.29660351677E+03  0.11336817774E+04  0.00000000000E+00 0. -1.
          3    1    6    6  503    0 -0.40743163338E+02  0.40847853715E+01 -0.35162308665E+02  0.53972944898E+02  0.00000000000E+00 0. -1.
         -3    1    6    6    0  503 -0.38653881001E+02 -0.56118852610E+02  0.35050733719E+02  0.76628989742E+02  0.00000000000E+00 0.  1.
<mgrwt>
<rscale>  0 0.39333498E+04</rscale>
<asrwt>0</asrwt>
<pdfrwt beam="1">  1        2 0.30224573E+00 0.39333498E+04</pdfrwt>
<pdfrwt beam="2">  1       -1 0.30288534E+00 0.39333498E+04</pdfrwt>
<totfact> 0.19954971E-01</totfact>
</mgrwt>
</event>
<event>
12    7  0.2492439E-007  0.2472658E+04  0.7818608E-02  0.8412792E-01
         -1   -1    0    0    0  501 -0.00000000000E+00  0.00000000000E+00  0.81862053299E+03  0.81862053299E+03  0.00000000000E+00 0.  1.
          2   -1    0    0  501    0  0.00000000000E+00 -0.00000000000E+00 -0.18671763196E+04  0.18671763196E+04  0.00000000000E+00 0. -1.
         24    2    1    2    0    0 -0.94895291182E+02  0.90602201644E+03 -0.10676883270E+04  0.14056685461E+04  0.77876102554E+02 0.  0.
        254    2    1    2    0    0  0.94895291182E+02 -0.90602201644E+03  0.19132540394E+02  0.12801283065E+04  0.89915594664E+03 0.  0.
         23    2    4    4    0    0 -0.22124666478E+03 -0.91986838419E+03 -0.21541690721E+01  0.95045378857E+03  0.90828590471E+02 0.  0.
         23    2    4    4    0    0  0.31614195597E+03  0.13846367749E+02  0.21286709466E+02  0.32967451791E+03  0.89970581511E+02 0.  0.
          2    1    3    3  502    0 -0.17524352292E+02  0.51967864546E+03 -0.62555146518E+03  0.81344184368E+03  0.00000000000E+00 0. -1.
         -1    1    3    3    0  502 -0.77370938890E+02  0.38634337098E+03 -0.44213686186E+03  0.59222670246E+03  0.00000000000E+00 0.  1.
         13    1    5    5    0    0 -0.69884502045E+02 -0.48065829108E+03 -0.10327558323E+02  0.48582187567E+03  0.00000000000E+00 0. -1.
        -13    1    5    5    0    0 -0.15136216274E+03 -0.43921009311E+03  0.81733892506E+01  0.46463191290E+03  0.00000000000E+00 0.  1.
          3    1    6    6  503    0  0.11252243123E+03  0.38045222343E+02  0.35942116134E+02  0.12409904184E+03  0.00000000000E+00 0. -1.
         -3    1    6    6    0  503  0.20361952474E+03 -0.24198854593E+02 -0.14655406668E+02  0.20557547607E+03  0.00000000000E+00 0.  1.
<mgrwt>
<rscale>  0 0.24726576E+04</rscale>
<asrwt>0</asrwt>
<pdfrwt beam="1">  1        2 0.28725789E+00 0.24726576E+04</pdfrwt>
<pdfrwt beam="2">  1       -1 0.12594162E+00 0.24726576E+04</pdfrwt>
<totfact> 0.44249162E+00</totfact>
</mgrwt>
</event>
<event>
12    7  0.2492439E-007  0.1266183E+04  0.7818608E-02  0.9056821E-01
         -1   -1    0    0    0  501 -0.00000000000E+00  0.00000000000E+00  0.33697310069E+03  0.33697310069E+03  0.00000000000E+00 0.  1.
          2   -1    0    0  501    0  0.00000000000E+00 -0.00000000000E+00 -0.11894270419E+04  0.11894270419E+04  0.00000000000E+00 0. -1.
         24    2    1    2    0    0 -0.16868518147E+03  0.25456684959E+03 -0.19173611198E+03  0.36907017961E+03  0.78683476550E+02 0.  0.
        254    2    1    2    0    0  0.16868518147E+03 -0.25456684959E+03 -0.66071782919E+03  0.11573299629E+04  0.89978087441E+03 0.  0.
         23    2    4    4    0    0  0.94338821098E+02  0.27990781852E+03 -0.11230636325E+02  0.30802168861E+03  0.86620052117E+02 0.  0.
         23    2    4    4    0    0  0.74346360369E+02 -0.53447466811E+03 -0.64948719286E+03  0.84930827433E+03  0.91106415824E+02 0.  0.
          2    1    3    3  502    0 -0.84193199803E+02  0.18011266260E+03 -0.14965596931E+03  0.24884930233E+03  0.00000000000E+00 0. -1.
         -1    1    3    3    0  502 -0.84491981663E+02  0.74454186989E+02 -0.42080142678E+02  0.12022087728E+03  0.00000000000E+00 0.  1.
         13    1    5    5    0    0 -0.27817241334E+01  0.66777205934E+02 -0.29579591763E+02  0.73088203360E+02  0.00000000000E+00 0. -1.
        -13    1    5    5    0    0  0.97120545231E+02  0.21313061258E+03  0.18348955438E+02  0.23493348525E+03  0.00000000000E+00 0.  1.
          3    1    6    6  503    0  0.25262211020E+02 -0.25541632635E+02 -0.40171614450E+02  0.53891677565E+02  0.00000000000E+00 0. -1.
         -3    1    6    6    0  503  0.49084149349E+02 -0.50893303547E+03 -0.60931557841E+03  0.79541659677E+03  0.00000000000E+00 0.  1.
<mgrwt>
<rscale>  0 0.12661831E+04</rscale>
<asrwt>0</asrwt>
<pdfrwt beam="1">  1        2 0.18298878E+00 0.12661831E+04</pdfrwt>
<pdfrwt beam="2">  1       -1 0.51842015E-01 0.12661831E+04</pdfrwt>
<totfact> 0.80610183E+01</totfact>
</mgrwt>
</event>
<event>
12    7  0.2492439E-007  0.1400462E+04  0.7818608E-02  0.8953484E-01
          2   -1    0    0  501    0  0.00000000000E+00  0.00000000000E+00  0.52914064818E+03  0.52914064818E+03  0.00000000000E+00 0. -1.
         -1   -1    0    0    0  501 -0.00000000000E+00 -0.00000000000E+00 -0.92664138220E+03  0.92664138220E+03  0.00000000000E+00 0.  1.
         24    2    1    2    0    0  0.33658620606E+03 -0.20375701419E+03 -0.22974011396E+03  0.46269683414E+03  0.80626580107E+02 0.  0.
        254    2    1    2    0    0 -0.33658620606E+03  0.20375701419E+03 -0.16776062006E+03  0.99308519623E+03  0.89625185433E+03 0.  0.
         23    2    4    4    0    0 -0.26181255027E+03 -0.23368777313E+03  0.19632839764E+03  0.41192179796E+03  0.89324918850E+02 0.  0.
         23    2    4    4    0    0 -0.74773655790E+02  0.43744478732E+03 -0.36408901770E+03  0.58116339827E+03  0.90780180277E+02 0.  0.
          4    1    3    3  502    0  0.17915289862E+03 -0.14326564081E+03 -0.10160185591E+03  0.25088591440E+03  0.00000000000E+00 0. -1.
         -1    1    3    3    0  502  0.15743330744E+03 -0.60491373380E+02 -0.12813825804E+03  0.21181091974E+03  0.00000000000E+00 0.  1.
         13    1    5    5    0    0 -0.14026418316E+03 -0.18209050676E+03  0.13170862190E+03  0.26491159811E+03  0.00000000000E+00 0.  1.
        -13    1    5    5    0    0 -0.12154836711E+03 -0.51597266363E+02  0.64619775741E+02  0.14701019985E+03  0.00000000000E+00 0. -1.
          1    1    6    6  503    0  0.21319344557E+02  0.70767951355E+02 -0.60878249722E+02  0.95753739773E+02  0.00000000000E+00 0. -1.
         -1    1    6    6    0  503 -0.96093000347E+02  0.36667683596E+03 -0.30321076798E+03  0.48540965850E+03  0.00000000000E+00 0.  1.
<mgrwt>
<rscale>  0 0.14004622E+04</rscale>
<asrwt>0</asrwt>
<pdfrwt beam="1">  1        2 0.81406255E-01 0.14004622E+04</pdfrwt>
<pdfrwt beam="2">  1       -1 0.14256021E+00 0.14004622E+04</pdfrwt>
<totfact> 0.25629440E+01</totfact>
</mgrwt>
</event>
<event>
12    7  0.2492439E-007  0.3174634E+04  0.7818608E-02  0.8195549E-01
          2   -1    0    0  501    0  0.00000000000E+00  0.00000000000E+00  0.25795406892E+04  0.25795406892E+04  0.00000000000E+00 0. -1.
         -1   -1    0    0    0  501 -0.00000000000E+00 -0.00000000000E+00 -0.97675314311E+03  0.97675314311E+03  0.00000000000E+00 0.  1.
         24    2    1    2    0    0  0.38196698533E+03  0.14389891493E+03  0.23035279460E+04  0.23410908468E+04  0.88654831590E+02 0.  0.
        254    2    1    2    0    0 -0.38196698533E+03 -0.14389891493E+03 -0.70074039994E+03  0.12152029855E+04  0.90502790693E+03 0.  0.
         23    2    4    4    0    0  0.15791984865E+03 -0.21068024000E+03  0.50692518677E+02  0.28308625266E+03  0.90792361289E+02 0.  0.
         23    2    4    4    0    0 -0.53988683397E+03  0.66781325072E+02 -0.75143291861E+03  0.93211673287E+03  0.90844007148E+02 0.  0.
          2    1    3    3  502    0  0.23820547132E+03  0.44052250687E+02  0.13882374262E+04  0.14092145326E+04  0.00000000000E+00 0. -1.
         -1    1    3    3    0  502  0.14376151400E+03  0.99846664244E+02  0.91529051984E+03  0.93187631421E+03  0.00000000000E+00 0.  1.
         13    1    5    5    0    0  0.74115490113E+02 -0.16082985236E+03  0.55148679082E+02  0.18547432191E+03  0.00000000000E+00 0.  1.
        -13    1    5    5    0    0  0.83804358536E+02 -0.49850387642E+02 -0.44561604046E+01  0.97611930742E+02  0.00000000000E+00 0. -1.
          3    1    6    6  503    0 -0.53728166041E+02  0.13912158498E+02 -0.38357022368E+02  0.67464991997E+02  0.00000000000E+00 0. -1.
         -3    1    6    6    0  503 -0.48615866793E+03  0.52869166574E+02 -0.71307589625E+03  0.86465174087E+03  0.00000000000E+00 0.  1.
<mgrwt>
<rscale>  0 0.31746335E+04</rscale>
<asrwt>0</asrwt>
<pdfrwt beam="1">  1        2 0.39685241E+00 0.31746335E+04</pdfrwt>
<pdfrwt beam="2">  1       -1 0.15026972E+00 0.31746335E+04</pdfrwt>
<totfact> 0.10413237E+00</totfact>
</mgrwt>
</event>
<event>
12    7  0.2492439E-007  0.2473121E+04  0.7818608E-02  0.8412624E-01
         -1   -1    0    0    0  501 -0.00000000000E+00  0.00000000000E+00  0.44704028989E+03  0.44704028989E+03  0.00000000000E+00 0.  1.
          2   -1    0    0  501    0  0.00000000000E+00 -0.00000000000E+00 -0.34204569990E+04  0.34204569990E+04  0.00000000000E+00 0. -1.
         24    2    1    2    0    0 -0.95390628883E+03 -0.14844141819E+03 -0.56795695160E+03  0.11230289428E+04  0.81528185722E+02 0.  0.
        254    2    1    2    0    0  0.95390628883E+03  0.14844141819E+03 -0.24054597575E+04  0.27444683461E+04  0.90216284283E+03 0.  0.
         23    2    4    4    0    0  0.11046120594E+04  0.65511633970E+02 -0.21743128922E+04  0.24413656823E+04  0.90389522301E+02 0.  0.
         23    2    4    4    0    0 -0.15070577060E+03  0.82929784222E+02 -0.23114686539E+03  0.30310266378E+03  0.94089175820E+02 0.  0.
          4    1    3    3  502    0 -0.81383685774E+03 -0.10234788841E+03 -0.50035777391E+03  0.96081393786E+03  0.00000000000E+00 0. -1.
         -3    1    3    3    0  502 -0.14006943109E+03 -0.46093529778E+02 -0.67599177687E+02  0.16221500497E+03  0.00000000000E+00 0.  1.
         13    1    5    5    0    0  0.59237778325E+03  0.80602464249E+01 -0.10830248644E+04  0.12344712482E+04  0.00000000000E+00 0. -1.
        -13    1    5    5    0    0  0.51223427618E+03  0.57451387545E+02 -0.10912880277E+04  0.12068944341E+04  0.00000000000E+00 0.  1.
          2    1    6    6  503    0 -0.15873345817E+03  0.83184163846E+02 -0.23385621615E+03  0.29462628139E+03  0.00000000000E+00 0. -1.
         -2    1    6    6    0  503  0.80276875724E+01 -0.25437962349E+00  0.27093507584E+01  0.84763823820E+01  0.00000000000E+00 0.  1.
<mgrwt>
<rscale>  0 0.24731212E+04</rscale>
<asrwt>0</asrwt>
<pdfrwt beam="1">  1        2 0.52622415E+00 0.24731212E+04</pdfrwt>
<pdfrwt beam="2">  1       -1 0.68775429E-01 0.24731212E+04</pdfrwt>
<totfact> 0.20100376E+00</totfact>
</mgrwt>
</event>
<event>
12    7  0.2492439E-007  0.2028569E+04  0.7818608E-02  0.8593379E-01
          2   -1    0    0  501    0  0.00000000000E+00  0.00000000000E+00  0.10590810886E+04  0.10590810886E+04  0.00000000000E+00 0. -1.
         -1   -1    0    0    0  501 -0.00000000000E+00 -0.00000000000E+00 -0.97138237844E+03  0.97138237844E+03  0.00000000000E+00 0.  1.
         24    2    1    2    0    0 -0.13414465218E+03  0.77559997905E+03 -0.16589049320E+03  0.80844441061E+03  0.80700645038E+02 0.  0.
        254    2    1    2    0    0  0.13414465218E+03 -0.77559997905E+03  0.25358920337E+03  0.12220190564E+04  0.89970716071E+03 0.  0.
         23    2    4    4    0    0  0.14665039050E+01 -0.71789340884E+03 -0.18780030078E+03  0.74784736783E+03  0.92917358471E+02 0.  0.
         23    2    4    4    0    0  0.13267814828E+03 -0.57706570202E+02  0.44138950415E+03  0.47417168861E+03  0.95291954702E+02 0.  0.
          2    1    3    3  502    0 -0.31187434315E+02  0.32069021675E+03 -0.35542184575E+02  0.32415755130E+03  0.00000000000E+00 0. -1.
         -1    1    3    3    0  502 -0.10295721787E+03  0.45490976230E+03 -0.13034830863E+03  0.48428685932E+03  0.00000000000E+00 0.  1.
         13    1    5    5    0    0  0.31803681232E+02 -0.47510220505E+03 -0.15622870815E+03  0.50113968974E+03  0.00000000000E+00 0. -1.
        -13    1    5    5    0    0 -0.30337177327E+02 -0.24279120380E+03 -0.31571592629E+02  0.24670767809E+03  0.00000000000E+00 0.  1.
          2    1    6    6  503    0  0.13378807567E+03 -0.64773563571E+02  0.44262041040E+03  0.46691293774E+03  0.00000000000E+00 0. -1.
         -2    1    6    6    0  503 -0.11099273857E+01  0.70669933684E+01 -0.12309062448E+01  0.72587508742E+01  0.00000000000E+00 0.  1.
<mgrwt>
<rscale>  0 0.20285687E+04</rscale>
<asrwt>0</asrwt>
<pdfrwt beam="1">  1        2 0.16293555E+00 0.20285687E+04</pdfrwt>
<pdfrwt beam="2">  1       -1 0.14944344E+00 0.20285687E+04</pdfrwt>
<totfact> 0.86076808E+00</totfact>
</mgrwt>
</event>
<event>
12    7  0.2492439E-007  0.2477128E+04  0.7818608E-02  0.8411179E-01
         -1   -1    0    0    0  501 -0.00000000000E+00  0.00000000000E+00  0.68333514147E+03  0.68333514147E+03  0.00000000000E+00 0.  1.
          2   -1    0    0  501    0  0.00000000000E+00 -0.00000000000E+00 -0.22449321458E+04  0.22449321458E+04  0.00000000000E+00 0. -1.
         24    2    1    2    0    0  0.71935065589E+03  0.79456394457E+03 -0.73391992243E+03  0.13013806964E+04  0.78460411722E+02 0.  0.
        254    2    1    2    0    0 -0.71935065589E+03 -0.79456394457E+03 -0.82767708185E+03  0.16268865909E+04  0.90161710250E+03 0.  0.
         23    2    4    4    0    0 -0.90409374659E+03 -0.72561618199E+03 -0.78368236832E+03  0.14028953104E+04  0.10026390845E+03 0.  0.
         23    2    4    4    0    0  0.18474309070E+03 -0.68947762587E+02 -0.43994713530E+02  0.22399128046E+03  0.96709644686E+02 0.  0.
          2    1    3    3  502    0  0.30053970405E+03  0.33201941047E+03 -0.35383951279E+03  0.57075686895E+03  0.00000000000E+00 0. -1.
         -1    1    3    3    0  502  0.41881095184E+03  0.46254453410E+03 -0.38008040964E+03  0.73062382742E+03  0.00000000000E+00 0.  1.
         13    1    5    5    0    0 -0.10872098723E+03 -0.10493620457E+03 -0.14114610709E+03  0.20677060633E+03  0.00000000000E+00 0. -1.
        -13    1    5    5    0    0 -0.79537275936E+03 -0.62067997742E+03 -0.64253626124E+03  0.11961247041E+04  0.00000000000E+00 0.  1.
          2    1    6    6  503    0  0.52101275986E+02 -0.68317061179E+02 -0.65627301962E+01  0.86167472024E+02  0.00000000000E+00 0. -1.
         -2    1    6    6    0  503  0.13264181471E+03 -0.63070140870E+00 -0.37431983334E+02  0.13782380843E+03  0.00000000000E+00 0.  1.
<mgrwt>
<rscale>  0 0.24771282E+04</rscale>
<asrwt>0</asrwt>
<pdfrwt beam="1">  1        2 0.34537418E+00 0.24771282E+04</pdfrwt>
<pdfrwt beam="2">  1       -1 0.10512848E+00 0.24771282E+04</pdfrwt>
<totfact> 0.42028973E+00</totfact>
</mgrwt>
</event>
<event>
12    7  0.2492439E-007  0.1311008E+04  0.7818608E-02  0.9020881E-01
         -1   -1    0    0    0  501 -0.00000000000E+00  0.00000000000E+00  0.19456965812E+03  0.19456965812E+03  0.00000000000E+00 0.  1.
          2   -1    0    0  501    0  0.00000000000E+00 -0.00000000000E+00 -0.22083895660E+04  0.22083895660E+04  0.00000000000E+00 0. -1.
         24    2    1    2    0    0 -0.14365607740E+03  0.29916094474E+03 -0.64094147037E+03  0.72562866821E+03  0.74810803086E+02 0.  0.
        254    2    1    2    0    0  0.14365607740E+03 -0.29916094474E+03 -0.13728784375E+04  0.16773305559E+04  0.90471445780E+03 0.  0.
         23    2    4    4    0    0  0.37701421781E+03  0.15905972297E+03 -0.43514360174E+03  0.60399728137E+03  0.89571456770E+02 0.  0.
         23    2    4    4    0    0 -0.23335814041E+03 -0.45822066771E+03 -0.93773483578E+03  0.10733332745E+04  0.90969742195E+02 0.  0.
          4    1    3    3  502    0 -0.75194825866E+02  0.14382090775E+03 -0.39249670378E+03  0.42472623867E+03  0.00000000000E+00 0. -1.
         -3    1    3    3    0  502 -0.68461251535E+02  0.15534003699E+03 -0.24844476660E+03  0.30090242954E+03  0.00000000000E+00 0.  1.
         13    1    5    5    0    0 -0.45092788832E+01  0.47602013160E+01 -0.12320810097E+02  0.13956914919E+02  0.00000000000E+00 0. -1.
        -13    1    5    5    0    0  0.38152349669E+03  0.15429952165E+03 -0.42282279165E+03  0.59004036645E+03  0.00000000000E+00 0.  1.
          3    1    6    6  503    0 -0.61527445751E+02 -0.21685854266E+03 -0.38187385738E+03  0.44344210113E+03  0.00000000000E+00 0. -1.
         -3    1    6    6    0  503 -0.17183069466E+03 -0.24136212505E+03 -0.55586097840E+03  0.62989117341E+03  0.00000000000E+00 0.  1.
<mgrwt>
<rscale>  0 0.13110082E+04</rscale>
<asrwt>0</asrwt>
<pdfrwt beam="1">  1        2 0.33975224E+00 0.13110082E+04</pdfrwt>
<pdfrwt beam="2">  1       -1 0.29933794E-01 0.13110082E+04</pdfrwt>
<totfact> 0.58495536E+01</totfact>
</mgrwt>
</event>
<event>
12    7  0.2492439E-007  0.1356703E+04  0.7818608E-02  0.8985770E-01
         -1   -1    0    0    0  501 -0.00000000000E+00  0.00000000000E+00  0.51453942037E+03  0.51453942037E+03  0.00000000000E+00 0.  1.
          2   -1    0    0  501    0  0.00000000000E+00 -0.00000000000E+00 -0.89431540526E+03  0.89431540526E+03  0.00000000000E+00 0. -1.
         24    2    1    2    0    0  0.31230385127E+03  0.15800935906E+03 -0.24348926465E+03  0.43361175671E+03  0.78939726932E+02 0.  0.
        254    2    1    2    0    0 -0.31230385127E+03 -0.15800935906E+03 -0.13628672024E+03  0.97524306892E+03  0.90001351117E+03 0.  0.
         23    2    4    4    0    0 -0.61524037663E+03 -0.14646900490E+03 -0.23181104297E+02  0.63889432845E+03  0.87605415873E+02 0.  0.
         23    2    4    4    0    0  0.30293652536E+03 -0.11540354159E+02 -0.11310561594E+03  0.33634874047E+03  0.91836140411E+02 0.  0.
          4    1    3    3  502    0  0.74409056183E+02  0.12202275377E+02 -0.81260455372E+02  0.11085515222E+03  0.00000000000E+00 0. -1.
         -3    1    3    3    0  502  0.23789479509E+03  0.14580708369E+03 -0.16222880928E+03  0.32275660449E+03  0.00000000000E+00 0.  1.
         13    1    5    5    0    0 -0.19423825229E+03 -0.87742893474E+02 -0.16318897280E+02  0.21376066152E+03  0.00000000000E+00 0. -1.
        -13    1    5    5    0    0 -0.42100212435E+03 -0.58726111429E+02 -0.68622070167E+01  0.42513366693E+03  0.00000000000E+00 0.  1.
          2    1    6    6  503    0  0.87880694349E+02  0.38144279572E+02 -0.40265008477E+02  0.10391955259E+03  0.00000000000E+00 0. -1.
         -2    1    6    6    0  503  0.21505583101E+03 -0.49684633731E+02 -0.72840607463E+02  0.23242918788E+03  0.00000000000E+00 0.  1.
<mgrwt>
<rscale>  0 0.13567027E+04</rscale>
<asrwt>0</asrwt>
<pdfrwt beam="1">  1        2 0.13758698E+00 0.13567027E+04</pdfrwt>
<pdfrwt beam="2">  1       -1 0.79159911E-01 0.13567027E+04</pdfrwt>
<totfact> 0.52605875E+01</totfact>
</mgrwt>
</event>
<event>
12    7  0.2492439E-007  0.1245195E+04  0.7818608E-02  0.9074192E-01
          2   -1    0    0  501    0  0.00000000000E+00  0.00000000000E+00  0.15213279383E+04  0.15213279383E+04  0.00000000000E+00 0. -1.
         -1   -1    0    0    0  501 -0.00000000000E+00 -0.00000000000E+00 -0.25479565843E+03  0.25479565843E+03  0.00000000000E+00 0.  1.
         24    2    1    2    0    0 -0.16810002484E+03  0.97404791184E+02 -0.51695651160E+01  0.20905037101E+03  0.77006632965E+02 0.  0.
        254    2    1    2    0    0  0.16810002484E+03 -0.97404791184E+02  0.12717018449E+04  0.15670732257E+04  0.89484501479E+03 0.  0.
         23    2    4    4    0    0  0.27538454320E+03  0.23836195935E+03  0.17727463602E+03  0.41358924502E+03  0.83526622841E+02 0.  0.
         23    2    4    4    0    0 -0.10728451837E+03 -0.33576675053E+03  0.10944272089E+04  0.11534839806E+04  0.92223095459E+02 0.  0.
          2    1    3    3  502    0 -0.71580776471E+02  0.60073013456E+02  0.32472929398E+02  0.98929599462E+02  0.00000000000E+00 0. -1.
         -1    1    3    3    0  502 -0.96519248364E+02  0.37331777728E+02 -0.37642494514E+02  0.11012077155E+03  0.00000000000E+00 0.  1.
         13    1    5    5    0    0  0.14515564413E+03  0.15460389554E+03  0.63257790729E+02  0.22130086676E+03  0.00000000000E+00 0.  1.
        -13    1    5    5    0    0  0.13022889907E+03  0.83758063807E+02  0.11401684529E+03  0.19228837826E+03  0.00000000000E+00 0. -1.
          1    1    6    6  503    0  0.10778411539E+02 -0.14234089149E+02  0.10349501053E+03  0.10502380994E+03  0.00000000000E+00 0. -1.
         -1    1    6    6    0  503 -0.11806292991E+03 -0.32153266138E+03  0.99093219839E+03  0.10484601707E+04  0.00000000000E+00 0.  1.
<mgrwt>
<rscale>  0 0.12451952E+04</rscale>
<asrwt>0</asrwt>
<pdfrwt beam="1">  1        2 0.23405045E+00 0.12451952E+04</pdfrwt>
<pdfrwt beam="2">  1       -1 0.39199333E-01 0.12451952E+04</pdfrwt>
<totfact> 0.87445032E+01</totfact>
</mgrwt>
</event>
<event>
12    7  0.2492439E-007  0.1507203E+04  0.7818608E-02  0.8879677E-01
          2   -1    0    0  501    0  0.00000000000E+00  0.00000000000E+00  0.11256181893E+04  0.11256181893E+04  0.00000000000E+00 0. -1.
         -1   -1    0    0    0  501 -0.00000000000E+00 -0.00000000000E+00 -0.50453656646E+03  0.50453656646E+03  0.00000000000E+00 0.  1.
         24    2    1    2    0    0 -0.27790853194E+03  0.24573113726E+03 -0.13008315919E+03  0.40105500838E+03  0.79413774001E+02 0.  0.
        254    2    1    2    0    0  0.27790853194E+03 -0.24573113726E+03  0.75116478205E+03  0.12290997474E+04  0.89934460320E+03 0.  0.
         23    2    4    4    0    0 -0.20953619527E+03 -0.27246986989E+03  0.33065290550E+02  0.35605350706E+03  0.86807484251E+02 0.  0.
         23    2    4    4    0    0  0.48744472721E+03  0.26738732632E+02  0.71809949150E+03  0.87304624033E+03  0.90694741647E+02 0.  0.
          4    1    3    3  502    0 -0.13816990847E+03  0.16066338904E+03 -0.44893770598E+02  0.21660816887E+03  0.00000000000E+00 0. -1.
         -3    1    3    3    0  502 -0.13973862347E+03  0.85067748217E+02 -0.85189388592E+02  0.18444683951E+03  0.00000000000E+00 0.  1.
         13    1    5    5    0    0 -0.10036695471E+03 -0.64525598472E+02  0.38165995963E+01  0.11938025335E+03  0.00000000000E+00 0.  1.
        -13    1    5    5    0    0 -0.10916924056E+03 -0.20794427142E+03  0.29248690954E+02  0.23667325371E+03  0.00000000000E+00 0. -1.
          4    1    6    6  503    0  0.28099094756E+03  0.44761129787E+02  0.35485523472E+03  0.45484251007E+03  0.00000000000E+00 0. -1.
         -4    1    6    6    0  503  0.20645377964E+03 -0.18022397155E+02  0.36324425677E+03  0.41820373026E+03  0.00000000000E+00 0.  1.
<mgrwt>
<rscale>  0 0.15072034E+04</rscale>
<asrwt>0</asrwt>
<pdfrwt beam="1">  1        2 0.17317203E+00 0.15072034E+04</pdfrwt>
<pdfrwt beam="2">  1       -1 0.77621010E-01 0.15072034E+04</pdfrwt>
<totfact> 0.38489909E+01</totfact>
</mgrwt>
</event>
<event>
12    7  0.2492439E-007  0.2576708E+04  0.7818608E-02  0.8376156E-01
         -1   -1    0    0    0  501 -0.00000000000E+00  0.00000000000E+00  0.96242118394E+03  0.96242118394E+03  0.00000000000E+00 0.  1.
          2   -1    0    0  501    0  0.00000000000E+00 -0.00000000000E+00 -0.17246666067E+04  0.17246666067E+04  0.00000000000E+00 0. -1.
         24    2    1    2    0    0 -0.68286754210E+03 -0.80446000448E+03 -0.75297130557E+03  0.12986158343E+04  0.77287251980E+02 0.  0.
        254    2    1    2    0    0  0.68286754210E+03  0.80446000448E+03 -0.92741171845E+01  0.13884719563E+04  0.90238815668E+03 0.  0.
         23    2    4    4    0    0 -0.14818538488E+03  0.43892073934E+03  0.47003944237E+02  0.47430730941E+03  0.90264773163E+02 0.  0.
         23    2    4    4    0    0  0.83105292697E+03  0.36553926514E+03 -0.56278061422E+02  0.91416464688E+03  0.90894772268E+02 0.  0.
          2    1    3    3  502    0 -0.12767504180E+03 -0.15579495983E+03 -0.18204843617E+03  0.27150436261E+03  0.00000000000E+00 0. -1.
         -1    1    3    3    0  502 -0.55519250029E+03 -0.64866504465E+03 -0.57092286940E+03  0.10271114717E+04  0.00000000000E+00 0.  1.
         13    1    5    5    0    0 -0.58060738902E+02  0.68286194155E+02 -0.25376235596E+01  0.89668797513E+02  0.00000000000E+00 0.  1.
        -13    1    5    5    0    0 -0.90124645975E+02  0.37063454519E+03  0.49541567797E+02  0.38463851190E+03  0.00000000000E+00 0. -1.
          1    1    6    6  503    0  0.74861764216E+03  0.30974539023E+03 -0.72118437462E+02  0.81337054897E+03  0.00000000000E+00 0. -1.
         -1    1    6    6    0  503  0.82435284816E+02  0.55793874912E+02  0.15840376040E+02  0.10079409791E+03  0.00000000000E+00 0.  1.
<mgrwt>
<rscale>  0 0.25767077E+04</rscale>
<asrwt>0</asrwt>
<pdfrwt beam="1">  1        2 0.26533332E+00 0.25767077E+04</pdfrwt>
<pdfrwt beam="2">  1       -1 0.14806480E+00 0.25767077E+04</pdfrwt>
<totfact> 0.34638303E+00</totfact>
</mgrwt>
</event>
<event>
12    7  0.2492439E-007  0.3923759E+04  0.7818608E-02  0.8020106E-01
          2   -1    0    0  501    0  0.00000000000E+00  0.00000000000E+00  0.15911573239E+04  0.15911573239E+04  0.00000000000E+00 0. -1.
         -1   -1    0    0    0  501 -0.00000000000E+00 -0.00000000000E+00 -0.24189756770E+04  0.24189756770E+04  0.00000000000E+00 0.  1.
         24    2    1    2    0    0 -0.51019511159E+03 -0.12875472261E+04  0.87214591669E+03  0.16386629787E+04  0.80628447091E+02 0.  0.
        254    2    1    2    0    0  0.51019511159E+03  0.12875472261E+04 -0.16999642698E+04  0.23714700222E+04  0.90327993224E+03 0.  0.
         23    2    4    4    0    0  0.11196835892E+02  0.73591160194E+03 -0.33149510858E+03  0.81124700592E+03  0.80879185194E+02 0.  0.
         23    2    4    4    0    0  0.49899827570E+03  0.55163562416E+03 -0.13684691613E+04  0.15602230163E+04  0.91032269574E+02 0.  0.
          4    1    3    3  502    0 -0.32776433317E+03 -0.74668225687E+03  0.54407281100E+03  0.98029540165E+03  0.00000000000E+00 0. -1.
         -3    1    3    3    0  502 -0.18243077843E+03 -0.54086496923E+03  0.32807310569E+03  0.65836757706E+03  0.00000000000E+00 0.  1.
         13    1    5    5    0    0 -0.99290816800E+00  0.46213646402E+03 -0.24955315389E+03  0.52521221793E+03  0.00000000000E+00 0.  1.
        -13    1    5    5    0    0  0.12189744060E+02  0.27377513793E+03 -0.81941954689E+02  0.28603478800E+03  0.00000000000E+00 0. -1.
          2    1    6    6  503    0  0.32779116485E+03  0.41065409927E+03 -0.90642187178E+03  0.10477043699E+04  0.00000000000E+00 0. -1.
         -2    1    6    6    0  503  0.17120711085E+03  0.14098152489E+03 -0.46204728949E+03  0.51251864638E+03  0.00000000000E+00 0.  1.
<mgrwt>
<rscale>  0 0.39237588E+04</rscale>
<asrwt>0</asrwt>
<pdfrwt beam="1">  1        2 0.24479343E+00 0.39237588E+04</pdfrwt>
<pdfrwt beam="2">  1       -1 0.37215010E+00 0.39237588E+04</pdfrwt>
<totfact> 0.11261160E-01</totfact>
</mgrwt>
</event>
<event>
12    7  0.2492439E-007  0.1415889E+04  0.7818608E-02  0.8942397E-01
          2   -1    0    0  501    0  0.00000000000E+00  0.00000000000E+00  0.13477367666E+04  0.13477367666E+04  0.00000000000E+00 0. -1.
         -1   -1    0    0    0  501 -0.00000000000E+00 -0.00000000000E+00 -0.37187190796E+03  0.37187190796E+03  0.00000000000E+00 0.  1.
         24    2    1    2    0    0 -0.35749656515E+03 -0.18763262679E+03  0.39977349238E+03  0.57342648307E+03  0.77390500315E+02 0.  0.
        254    2    1    2    0    0  0.35749656515E+03  0.18763262679E+03  0.57609136625E+03  0.11461821915E+04  0.90489919719E+03 0.  0.
         23    2    4    4    0    0 -0.27487752003E+02  0.38846420616E+03  0.57844288926E+03  0.70260571687E+03  0.86015122285E+02 0.  0.
         23    2    4    4    0    0  0.38498431716E+03 -0.20083157937E+03 -0.23515230131E+01  0.44357647462E+03  0.90599732033E+02 0.  0.
          4    1    3    3  502    0 -0.25607770901E+03 -0.13475509929E+03  0.33229150773E+03  0.44062725285E+03  0.00000000000E+00 0. -1.
         -3    1    3    3    0  502 -0.10141885614E+03 -0.52877527501E+02  0.67481984648E+02  0.13279923022E+03  0.00000000000E+00 0.  1.
         13    1    5    5    0    0 -0.52701878491E+02  0.30028586668E+03  0.47431902904E+03  0.56385071697E+03  0.00000000000E+00 0. -1.
        -13    1    5    5    0    0  0.25214126488E+02  0.88178339480E+02  0.10412386022E+03  0.13875499989E+03  0.00000000000E+00 0.  1.
          1    1    6    6  503    0  0.35737960507E+03 -0.18284624916E+03  0.22861862913E+02  0.40208904203E+03  0.00000000000E+00 0. -1.
         -1    1    6    6    0  503  0.27604712092E+02 -0.17985330212E+02 -0.25213385926E+02  0.41487432584E+02  0.00000000000E+00 0.  1.
<mgrwt>
<rscale>  0 0.14158890E+04</rscale>
<asrwt>0</asrwt>
<pdfrwt beam="1">  1        2 0.20734412E+00 0.14158890E+04</pdfrwt>
<pdfrwt beam="2">  1       -1 0.57211063E-01 0.14158890E+04</pdfrwt>
<totfact> 0.53162044E+01</totfact>
</mgrwt>
</event>
<event>
12    7  0.2492439E-007  0.1229149E+04  0.7818608E-02  0.9087718E-01
         -1   -1    0    0    0  501 -0.00000000000E+00  0.00000000000E+00  0.22057160198E+04  0.22057160198E+04  0.00000000000E+00 0.  1.
          2   -1    0    0  501    0  0.00000000000E+00 -0.00000000000E+00 -0.17123783870E+03  0.17123783870E+03  0.00000000000E+00 0. -1.
         24    2    1    2    0    0  0.53750471238E+02  0.23703399829E+03  0.73536466373E+03  0.77864898303E+03  0.80366788022E+02 0.  0.
        254    2    1    2    0    0 -0.53750471238E+02 -0.23703399829E+03  0.12991135174E+04  0.15983048755E+04  0.89878157214E+03 0.  0.
         23    2    4    4    0    0 -0.23432122213E+03 -0.27414826754E+03  0.10692379209E+03  0.38855695364E+03  0.97365811113E+02 0.  0.
         23    2    4    4    0    0  0.18057075089E+03  0.37114269246E+02  0.11921897253E+04  0.12097479218E+04  0.90500984637E+02 0.  0.
          4    1    3    3  502    0  0.57244289928E+02  0.20678066698E+03  0.54238255004E+03  0.58327865001E+03  0.00000000000E+00 0. -1.
         -3    1    3    3    0  502 -0.34938186899E+01  0.30253331318E+02  0.19298211368E+03  0.19537033302E+03  0.00000000000E+00 0.  1.
         13    1    5    5    0    0 -0.15916481711E+03 -0.13675271105E+03  0.23614584123E+02  0.21116910657E+03  0.00000000000E+00 0. -1.
        -13    1    5    5    0    0 -0.75156405022E+02 -0.13739555649E+03  0.83309207964E+02  0.17738784707E+03  0.00000000000E+00 0.  1.
          4    1    6    6  503    0  0.18995786533E+03  0.42294042520E+02  0.11250451477E+04  0.11417527583E+04  0.00000000000E+00 0. -1.
         -4    1    6    6    0  503 -0.93871144402E+01 -0.51797732742E+01  0.67144577560E+02  0.67995163536E+02  0.00000000000E+00 0.  1.
<mgrwt>
<rscale>  0 0.12291494E+04</rscale>
<asrwt>0</asrwt>
<pdfrwt beam="1">  1        2 0.26344285E-01 0.12291494E+04</pdfrwt>
<pdfrwt beam="2">  1       -1 0.33934090E+00 0.12291494E+04</pdfrwt>
<totfact> 0.43081985E+00</totfact>
</mgrwt>
</event>
<event>
12    7  0.2492439E-007  0.1911076E+04  0.7818608E-02  0.8649363E-01
          2   -1    0    0  501    0  0.00000000000E+00  0.00000000000E+00  0.15187049781E+04  0.15187049781E+04  0.00000000000E+00 0. -1.
         -1   -1    0    0    0  501 -0.00000000000E+00 -0.00000000000E+00 -0.60120480740E+03  0.60120480740E+03  0.00000000000E+00 0.  1.
         24    2    1    2    0    0 -0.52534344738E+03 -0.48369823973E+03  0.13981901565E+03  0.73214013249E+03  0.80808982484E+02 0.  0.
        254    2    1    2    0    0  0.52534344738E+03  0.48369823973E+03  0.77768115506E+03  0.13877696530E+04  0.90064804782E+03 0.  0.
         23    2    4    4    0    0  0.10831097390E+03 -0.13009186430E+03 -0.11307088499E+03  0.22485587202E+03  0.95498575519E+02 0.  0.
         23    2    4    4    0    0  0.41703247348E+03  0.61379010403E+03  0.89075204005E+03  0.11629137810E+04  0.90966419013E+02 0.  0.
          2    1    3    3  502    0 -0.22770740421E+03 -0.18955016284E+03  0.95747448270E+02  0.31136393499E+03  0.00000000000E+00 0. -1.
         -1    1    3    3    0  502 -0.29763604317E+03 -0.29414807689E+03  0.44071567376E+02  0.42077619750E+03  0.00000000000E+00 0.  1.
         13    1    5    5    0    0 -0.54790886781E+00 -0.65557538991E+02 -0.22809680945E+02  0.69414498972E+02  0.00000000000E+00 0.  1.
        -13    1    5    5    0    0  0.10885888276E+03 -0.64534325313E+02 -0.90261204048E+02  0.15544137305E+03  0.00000000000E+00 0. -1.
          4    1    6    6  503    0  0.40940910666E+03  0.61092654834E+03  0.86229066091E+03  0.11333103052E+04  0.00000000000E+00 0. -1.
         -4    1    6    6    0  503  0.76233668267E+01  0.28635556948E+01  0.28461379146E+02  0.29603475740E+02  0.00000000000E+00 0.  1.
<mgrwt>
<rscale>  0 0.19110759E+04</rscale>
<asrwt>0</asrwt>
<pdfrwt beam="1">  1        2 0.23364692E+00 0.19110759E+04</pdfrwt>
<pdfrwt beam="2">  1       -1 0.92493048E-01 0.19110759E+04</pdfrwt>
<totfact> 0.15016007E+01</totfact>
</mgrwt>
</event>
<event>
12    7  0.2492439E-007  0.3380488E+04  0.7818608E-02  0.8142712E-01
          2   -1    0    0  501    0  0.00000000000E+00  0.00000000000E+00  0.21558440993E+04  0.21558440993E+04  0.00000000000E+00 0. -1.
         -1   -1    0    0    0  501 -0.00000000000E+00 -0.00000000000E+00 -0.13251999192E+04  0.13251999192E+04  0.00000000000E+00 0.  1.
         24    2    1    2    0    0  0.12160127034E+04  0.23500674696E+03  0.13787919679E+04  0.18550707152E+04  0.79404039057E+02 0.  0.
        254    2    1    2    0    0 -0.12160127034E+04 -0.23500674696E+03 -0.54814778779E+03  0.16259733033E+04  0.89967111752E+03 0.  0.
         23    2    4    4    0    0 -0.85436897898E+03  0.16620935122E+03 -0.62142665388E+03  0.10733997359E+04  0.91891273363E+02 0.  0.
         23    2    4    4    0    0 -0.36164372446E+03 -0.40121609818E+03  0.73278866092E+02  0.55257356742E+03  0.90593677037E+02 0.  0.
          4    1    3    3  502    0  0.54013609282E+03  0.80893414973E+02  0.65559878629E+03  0.85328805918E+03  0.00000000000E+00 0. -1.
         -3    1    3    3    0  502  0.67587661062E+03  0.15411333199E+03  0.72319318165E+03  0.10017826560E+04  0.00000000000E+00 0.  1.
         13    1    5    5    0    0 -0.78298271113E+03  0.14571270977E+03 -0.53495948149E+03  0.95941428306E+03  0.00000000000E+00 0. -1.
        -13    1    5    5    0    0 -0.71386267859E+02  0.20496641455E+02 -0.86467172387E+02  0.11398545280E+03  0.00000000000E+00 0.  1.
          4    1    6    6  503    0 -0.28638693923E+03 -0.34667247009E+03  0.31784604716E+02  0.45078769013E+03  0.00000000000E+00 0. -1.
         -4    1    6    6    0  503 -0.75256785231E+02 -0.54543628092E+02  0.41494261376E+02  0.10178587729E+03  0.00000000000E+00 0.  1.
<mgrwt>
<rscale>  0 0.33804878E+04</rscale>
<asrwt>0</asrwt>
<pdfrwt beam="1">  1        2 0.33166832E+00 0.33804878E+04</pdfrwt>
<pdfrwt beam="2">  1       -1 0.20387691E+00 0.33804878E+04</pdfrwt>
<totfact> 0.73015311E-01</totfact>
</mgrwt>
</event>
<event>
12    7  0.2492439E-007  0.1850748E+04  0.7818608E-02  0.8679768E-01
         -1   -1    0    0    0  501 -0.00000000000E+00  0.00000000000E+00  0.57760769451E+03  0.57760769451E+03  0.00000000000E+00 0.  1.
          2   -1    0    0  501    0  0.00000000000E+00 -0.00000000000E+00 -0.14825235583E+04  0.14825235583E+04  0.00000000000E+00 0. -1.
         24    2    1    2    0    0 -0.10687428731E+03 -0.52212301383E+03  0.16499066117E+03  0.56334480287E+03  0.78108218406E+02 0.  0.
        254    2    1    2    0    0  0.10687428731E+03  0.52212301383E+03 -0.10699065250E+04  0.14967864500E+04  0.90090795853E+03 0.  0.
         23    2    4    4    0    0  0.22908755452E+03  0.15056938504E+03 -0.10556059152E+04  0.10942996934E+04  0.89642197225E+02 0.  0.
         23    2    4    4    0    0 -0.12221326721E+03  0.37155362880E+03 -0.14300609834E+02  0.40248675656E+03  0.93823771036E+02 0.  0.
          4    1    3    3  502    0 -0.19066787619E+02 -0.12084033490E+03  0.47742600436E+01  0.12242843823E+03  0.00000000000E+00 0. -1.
         -3    1    3    3    0  502 -0.87807499691E+02 -0.40128267893E+03  0.16021640113E+03  0.44091636464E+03  0.00000000000E+00 0.  1.
         13    1    5    5    0    0  0.14484781802E+02  0.83928887606E+00 -0.17597354815E+03  0.17657067412E+03  0.00000000000E+00 0.  1.
        -13    1    5    5    0    0  0.21460277272E+03  0.14973009616E+03 -0.87963236701E+03  0.91772901929E+03  0.00000000000E+00 0. -1.
          3    1    6    6  503    0 -0.13539042961E+03  0.32864748362E+03 -0.25079189986E+02  0.35632667973E+03  0.00000000000E+00 0. -1.
         -3    1    6    6    0  503  0.13177162396E+02  0.42906145180E+02  0.10778580153E+02  0.46160076832E+02  0.00000000000E+00 0.  1.
<mgrwt>
<rscale>  0 0.18507480E+04</rscale>
<asrwt>0</asrwt>
<pdfrwt beam="1">  1        2 0.22808055E+00 0.18507480E+04</pdfrwt>
<pdfrwt beam="2">  1       -1 0.88862723E-01 0.18507480E+04</pdfrwt>
<totfact> 0.17284888E+01</totfact>
</mgrwt>
</event>
<event>
12    7  0.2492439E-007  0.3511585E+04  0.7818608E-02  0.8111050E-01
         -1   -1    0    0    0  501 -0.00000000000E+00  0.00000000000E+00  0.66947321161E+03  0.66947321161E+03  0.00000000000E+00 0.  1.
          2   -1    0    0  501    0  0.00000000000E+00 -0.00000000000E+00 -0.46048267867E+04  0.46048267867E+04  0.00000000000E+00 0. -1.
         24    2    1    2    0    0 -0.77106303078E+02 -0.15446165235E+04 -0.26588029740E+04  0.30774462487E+04  0.98267860379E+02 0.  0.
        254    2    1    2    0    0  0.77106303078E+02  0.15446165235E+04 -0.12765506010E+04  0.21968537495E+04  0.89710611029E+03 0.  0.
         23    2    4    4    0    0  0.75021167090E+02  0.62163114255E+03 -0.16762702927E+02  0.63258502056E+03  0.88483711126E+02 0.  0.
         23    2    4    4    0    0  0.20851359882E+01  0.92298538099E+03 -0.12597878981E+04  0.15642687290E+04  0.89245430879E+02 0.  0.
          4    1    3    3  502    0  0.19194942395E+02 -0.51366548708E+03 -0.90518042871E+03  0.10409477830E+04  0.00000000000E+00 0. -1.
         -3    1    3    3    0  502 -0.96301245474E+02 -0.10309510365E+04 -0.17536225453E+04  0.20364984657E+04  0.00000000000E+00 0.  1.
         13    1    5    5    0    0  0.52564310681E+02  0.42425144437E+03 -0.52620081493E+02  0.43072168251E+03  0.00000000000E+00 0. -1.
        -13    1    5    5    0    0  0.22456856409E+02  0.19737969818E+03  0.35857378567E+02  0.20186333806E+03  0.00000000000E+00 0.  1.
          4    1    6    6  503    0 -0.13723304014E+02  0.61231084751E+03 -0.90025874264E+03  0.10888428292E+04  0.00000000000E+00 0. -1.
         -4    1    6    6    0  503  0.15808440002E+02  0.31067453348E+03 -0.35952915547E+03  0.47542589975E+03  0.00000000000E+00 0.  1.
<mgrwt>
<rscale>  0 0.35115855E+04</rscale>
<asrwt>0</asrwt>
<pdfrwt beam="1">  1        2 0.70843486E+00 0.35115855E+04</pdfrwt>
<pdfrwt beam="2">  1       -1 0.10299588E+00 0.35115855E+04</pdfrwt>
<totfact> 0.79714935E-02</totfact>
</mgrwt>
</event>
<event>
12    7  0.2492439E-007  0.2832587E+04  0.7818608E-02  0.8293222E-01
         -1   -1    0    0    0  501 -0.00000000000E+00  0.00000000000E+00  0.88886373351E+03  0.88886373351E+03  0.00000000000E+00 0.  1.
          2   -1    0    0  501    0  0.00000000000E+00 -0.00000000000E+00 -0.22566870906E+04  0.22566870906E+04  0.00000000000E+00 0. -1.
         24    2    1    2    0    0  0.81915260588E+03  0.30992797074E+03  0.40821019494E+03  0.97049374206E+03  0.90311690024E+02 0.  0.
        254    2    1    2    0    0 -0.81915260588E+03 -0.30992797074E+03 -0.17760335520E+04  0.21750570820E+04  0.89972873328E+03 0.  0.
         23    2    4    4    0    0 -0.85533294629E+03  0.65730298984E+02 -0.13091821948E+04  0.15678188531E+04  0.90460024232E+02 0.  0.
         23    2    4    4    0    0  0.36180340413E+02 -0.37565826973E+03 -0.46685135726E+03  0.60723822890E+03  0.91432621196E+02 0.  0.
          4    1    3    3  502    0  0.35136635593E+02  0.28285695396E+02  0.63094540864E+01  0.45546382246E+02  0.00000000000E+00 0. -1.
         -3    1    3    3    0  502  0.78401597028E+03  0.28164227535E+03  0.40190074086E+03  0.92494735981E+03  0.00000000000E+00 0.  1.
         13    1    5    5    0    0 -0.25695383860E+02  0.15960745107E+02 -0.32147529646E+02  0.44141384193E+02  0.00000000000E+00 0.  1.
        -13    1    5    5    0    0 -0.82963756243E+03  0.49769553876E+02 -0.12770346651E+04  0.15236774690E+04  0.00000000000E+00 0. -1.
          3    1    6    6  503    0  0.62305523416E+02 -0.19200747101E+03 -0.22201800161E+03  0.30006805930E+03  0.00000000000E+00 0. -1.
         -3    1    6    6    0  503 -0.26125183003E+02 -0.18365079872E+03 -0.24483335565E+03  0.30717016960E+03  0.00000000000E+00 0.  1.
<mgrwt>
<rscale>  0 0.28325870E+04</rscale>
<asrwt>0</asrwt>
<pdfrwt beam="1">  1        2 0.34718262E+00 0.28325870E+04</pdfrwt>
<pdfrwt beam="2">  1       -1 0.13674827E+00 0.28325870E+04</pdfrwt>
<totfact> 0.21094262E+00</totfact>
</mgrwt>
</event>
<event>
12    7  0.2492439E-007  0.3101833E+04  0.7818608E-02  0.8215235E-01
          2   -1    0    0  501    0  0.00000000000E+00  0.00000000000E+00  0.24313058689E+04  0.24313058689E+04  0.00000000000E+00 0. -1.
         -1   -1    0    0    0  501 -0.00000000000E+00 -0.00000000000E+00 -0.98932121676E+03  0.98932121676E+03  0.00000000000E+00 0.  1.
         24    2    1    2    0    0  0.11067867651E+04  0.85260983766E+03  0.38659438829E+03  0.14520268286E+04  0.83703113672E+02 0.  0.
        254    2    1    2    0    0 -0.11067867651E+04 -0.85260983766E+03  0.10553902639E+04  0.19686002571E+04  0.89978768853E+03 0.  0.
         23    2    4    4    0    0 -0.73287587509E+03 -0.14815450102E+02  0.47419899701E+03  0.87877517767E+03  0.10027251998E+03 0.  0.
         23    2    4    4    0    0 -0.37391089001E+03 -0.83779438755E+03  0.58119126685E+03  0.10898250794E+04  0.90700747319E+02 0.  0.
          4    1    3    3  502    0  0.72273786271E+03  0.56165259860E+03  0.29414734245E+03  0.96141890910E+03  0.00000000000E+00 0. -1.
         -3    1    3    3    0  502  0.38404890239E+03  0.29095723905E+03  0.92447045840E+02  0.49060791949E+03  0.00000000000E+00 0.  1.
         13    1    5    5    0    0 -0.50591336150E+03  0.36634709555E+01  0.37815783207E+03  0.63163683895E+03  0.00000000000E+00 0. -1.
        -13    1    5    5    0    0 -0.22696251360E+03 -0.18478921058E+02  0.96041164940E+02  0.24713833872E+03  0.00000000000E+00 0.  1.
          3    1    6    6  503    0 -0.31233820235E+03 -0.63912454770E+03  0.48285195608E+03  0.85975656532E+03  0.00000000000E+00 0. -1.
         -3    1    6    6    0  503 -0.61572687663E+02 -0.19866983985E+03  0.98339310769E+02  0.23006851409E+03  0.00000000000E+00 0.  1.
<mgrwt>
<rscale>  0 0.31018333E+04</rscale>
<asrwt>0</asrwt>
<pdfrwt beam="1">  1        2 0.37404705E+00 0.31018333E+04</pdfrwt>
<pdfrwt beam="2">  1       -1 0.15220326E+00 0.31018333E+04</pdfrwt>
<totfact> 0.12341075E+00</totfact>
</mgrwt>
</event>
<event>
12    7  0.2492439E-007  0.2089914E+04  0.7818608E-02  0.8565700E-01
         -3   -1    0    0    0  501 -0.00000000000E+00  0.00000000000E+00  0.16879167555E+04  0.16879167555E+04  0.00000000000E+00 0.  1.
          4   -1    0    0  501    0  0.00000000000E+00 -0.00000000000E+00 -0.64691262074E+03  0.64691262074E+03  0.00000000000E+00 0. -1.
         24    2    1    2    0    0  0.71633480751E+03 -0.27399093204E+03  0.18398579577E+02  0.77175477734E+03  0.84025837276E+02 0.  0.
        254    2    1    2    0    0 -0.71633480751E+03  0.27399093204E+03  0.10226055552E+04  0.15630745989E+04  0.89959629444E+03 0.  0.
         23    2    4    4    0    0 -0.72536124861E+03  0.52436425315E+03  0.89069275378E+03  0.12655836077E+04  0.85214291997E+02 0.  0.
         23    2    4    4    0    0  0.90264411001E+01 -0.25037332111E+03  0.13191280144E+03  0.29749099120E+03  0.91277741525E+02 0.  0.
          4    1    3    3  502    0  0.29098625709E+03 -0.11431777744E+03 -0.33693844303E+02  0.31444686546E+03  0.00000000000E+00 0. -1.
         -3    1    3    3    0  502  0.42534855042E+03 -0.15967315461E+03  0.52092423879E+02  0.45730791188E+03  0.00000000000E+00 0.  1.
         13    1    5    5    0    0 -0.92467305576E+02  0.55782294783E+02  0.72966119659E+02  0.13033004884E+03  0.00000000000E+00 0.  1.
        -13    1    5    5    0    0 -0.63289394303E+03  0.46858195837E+03  0.81772663412E+03  0.11352535589E+04  0.00000000000E+00 0. -1.
          3    1    6    6  503    0 -0.36849354514E+02 -0.16470179516E+03  0.93925754192E+02  0.19314917436E+03  0.00000000000E+00 0. -1.
         -3    1    6    6    0  503  0.45875795614E+02 -0.85671525952E+02  0.37987047252E+02  0.10434181684E+03  0.00000000000E+00 0.  1.
<mgrwt>
<rscale>  0 0.20899135E+04</rscale>
<asrwt>0</asrwt>
<pdfrwt beam="1">  1        4 0.99525019E-01 0.20899135E+04</pdfrwt>
<pdfrwt beam="2">  1       -3 0.25967950E+00 0.20899135E+04</pdfrwt>
<totfact> 0.11333922E-01</totfact>
</mgrwt>
</event>
<event>
12    7  0.2492439E-007  0.1957275E+04  0.7818608E-02  0.8626860E-01
         -1   -1    0    0    0  501 -0.00000000000E+00  0.00000000000E+00  0.15854335493E+04  0.15854335493E+04  0.00000000000E+00 0.  1.
          2   -1    0    0  501    0  0.00000000000E+00 -0.00000000000E+00 -0.60408188832E+03  0.60408188832E+03  0.00000000000E+00 0. -1.
         24    2    1    2    0    0  0.30809902218E+03 -0.66505396112E+03  0.12554946336E+03  0.74796874968E+03  0.80453738779E+02 0.  0.
        254    2    1    2    0    0 -0.30809902218E+03  0.66505396112E+03  0.85580219764E+03  0.14415466880E+04  0.89913162184E+03 0.  0.
         23    2    4    4    0    0 -0.60923692194E+03  0.54735347953E+03  0.59730676443E+03  0.10178916150E+04  0.92533834414E+02 0.  0.
         23    2    4    4    0    0  0.30113789976E+03  0.11770048160E+03  0.25849543322E+03  0.42365507293E+03  0.90145958205E+02 0.  0.
          4    1    3    3  502    0  0.21076507687E+03 -0.38129461773E+03  0.99236910554E+02  0.44682823047E+03  0.00000000000E+00 0. -1.
         -3    1    3    3    0  502  0.97333945310E+02 -0.28375934340E+03  0.26312552808E+02  0.30114051921E+03  0.00000000000E+00 0.  1.
         13    1    5    5    0    0 -0.60947196422E+02  0.95570925697E+02  0.71208298259E+02  0.13386181058E+03  0.00000000000E+00 0. -1.
        -13    1    5    5    0    0 -0.54828972552E+03  0.45178255383E+03  0.52609846617E+03  0.88402980445E+03  0.00000000000E+00 0.  1.
          4    1    6    6  503    0  0.46319812898E+02  0.30575076740E+02  0.83958717031E+01  0.56132442012E+02  0.00000000000E+00 0. -1.
         -4    1    6    6    0  503  0.25481808687E+03  0.87125404855E+02  0.25009956152E+03  0.36752263092E+03  0.00000000000E+00 0.  1.
<mgrwt>
<rscale>  0 0.19572753E+04</rscale>
<asrwt>0</asrwt>
<pdfrwt beam="1">  1        2 0.92935676E-01 0.19572753E+04</pdfrwt>
<pdfrwt beam="2">  1       -1 0.24391285E+00 0.19572753E+04</pdfrwt>
<totfact> 0.40018893E+00</totfact>
</mgrwt>
</event>
<event>
12    7  0.2492439E-007  0.1948262E+04  0.7818608E-02  0.8631199E-01
          2   -1    0    0  501    0  0.00000000000E+00  0.00000000000E+00  0.72566734926E+03  0.72566734926E+03  0.00000000000E+00 0. -1.
         -1   -1    0    0    0  501 -0.00000000000E+00 -0.00000000000E+00 -0.13076665561E+04  0.13076665561E+04  0.00000000000E+00 0.  1.
         24    2    1    2    0    0 -0.64411939583E+03  0.31305514450E+01  0.19936501294E+03  0.67897711844E+03  0.79774197211E+02 0.  0.
        254    2    1    2    0    0  0.64411939583E+03 -0.31305514450E+01 -0.78136421978E+03  0.13543567869E+04  0.89936236629E+03 0.  0.
         23    2    4    4    0    0  0.67095387955E+03 -0.20527193377E+03 -0.86233484397E+03  0.11153950307E+04  0.90382609446E+02 0.  0.
         23    2    4    4    0    0 -0.26834483711E+02  0.20214138232E+03  0.80970624194E+02  0.23896175624E+03  0.94685009363E+02 0.  0.
          2    1    3    3  502    0 -0.61592687639E+03 -0.13897185082E+02  0.19064404261E+03  0.64490634963E+03  0.00000000000E+00 0. -1.
         -1    1    3    3    0  502 -0.28192519449E+02  0.17027736527E+02  0.87209703234E+01  0.34070768813E+02  0.00000000000E+00 0.  1.
         13    1    5    5    0    0  0.62847468128E+03 -0.16740972872E+03 -0.78641771706E+03  0.10205191169E+04  0.00000000000E+00 0.  1.
        -13    1    5    5    0    0  0.42479198261E+02 -0.37862205045E+02 -0.75917126913E+02  0.94875913775E+02  0.00000000000E+00 0. -1.
          1    1    6    6  503    0  0.60724243787E+01 -0.85443601766E+01 -0.95418050208E+00  0.10525725110E+02  0.00000000000E+00 0. -1.
         -1    1    6    6    0  503 -0.32906908090E+02  0.21068574250E+03  0.81924804696E+02  0.22843603113E+03  0.00000000000E+00 0.  1.
<mgrwt>
<rscale>  0 0.19482617E+04</rscale>
<asrwt>0</asrwt>
<pdfrwt beam="1">  1        2 0.11164113E+00 0.19482617E+04</pdfrwt>
<pdfrwt beam="2">  1       -1 0.20117947E+00 0.19482617E+04</pdfrwt>
<totfact> 0.61552821E+00</totfact>
</mgrwt>
</event>
<event>
12    7  0.2492439E-007  0.1633504E+04  0.7818608E-02  0.8800225E-01
         -1   -1    0    0    0  501 -0.00000000000E+00  0.00000000000E+00  0.57830352063E+03  0.57830352063E+03  0.00000000000E+00 0.  1.
          2   -1    0    0  501    0  0.00000000000E+00 -0.00000000000E+00 -0.11535189622E+04  0.11535189622E+04  0.00000000000E+00 0. -1.
         24    2    1    2    0    0 -0.76982127714E+02  0.50158259452E+03 -0.46147018825E+03  0.69110738674E+03  0.84636506606E+02 0.  0.
        254    2    1    2    0    0  0.76982127714E+02 -0.50158259452E+03 -0.11374525333E+03  0.10407150961E+04  0.90146468676E+03 0.  0.
         23    2    4    4    0    0  0.32439700725E+03 -0.17363740851E+02  0.21348991921E+03  0.39926979331E+03  0.91123566862E+02 0.  0.
         23    2    4    4    0    0 -0.24741487953E+03 -0.48421885367E+03 -0.32723517254E+03  0.64144530279E+03  0.93205136412E+02 0.  0.
          2    1    3    3  502    0 -0.12372456791E+02  0.21508942690E+03 -0.24505262177E+03  0.32629331389E+03  0.00000000000E+00 0. -1.
         -3    1    3    3    0  502 -0.64609670923E+02  0.28649316763E+03 -0.21641756648E+03  0.36481407286E+03  0.00000000000E+00 0.  1.
         13    1    5    5    0    0  0.18515860677E+03 -0.42537527000E+01  0.17357576001E+03  0.25383133876E+03  0.00000000000E+00 0. -1.
        -13    1    5    5    0    0  0.13923840048E+03 -0.13109988151E+02  0.39914159196E+02  0.14543845455E+03  0.00000000000E+00 0.  1.
          1    1    6    6  503    0 -0.96649779097E+02 -0.24939827309E+03 -0.11640990025E+03  0.29170523358E+03  0.00000000000E+00 0. -1.
         -1    1    6    6    0  503 -0.15076510044E+03 -0.23482058058E+03 -0.21082527229E+03  0.34974006921E+03  0.00000000000E+00 0.  1.
<mgrwt>
<rscale>  0 0.16335043E+04</rscale>
<asrwt>0</asrwt>
<pdfrwt beam="1">  1        2 0.17746445E+00 0.16335043E+04</pdfrwt>
<pdfrwt beam="2">  1       -1 0.88969773E-01 0.16335043E+04</pdfrwt>
<totfact> 0.27307943E+01</totfact>
</mgrwt>
</event>
<event>
12    7  0.2492439E-007  0.2386099E+04  0.7818608E-02  0.8444726E-01
          2   -1    0    0  501    0  0.00000000000E+00  0.00000000000E+00  0.13266746192E+04  0.13266746192E+04  0.00000000000E+00 0. -1.
         -1   -1    0    0    0  501 -0.00000000000E+00 -0.00000000000E+00 -0.10728837815E+04  0.10728837815E+04  0.00000000000E+00 0.  1.
         24    2    1    2    0    0 -0.40737920096E+03 -0.90491821844E+03  0.35207530528E+03  0.10558906055E+04  0.78186665897E+02 0.  0.
        254    2    1    2    0    0  0.40737920096E+03  0.90491821844E+03 -0.98284467628E+02  0.13436677953E+04  0.90052679694E+03 0.  0.
         23    2    4    4    0    0  0.43010217556E+03  0.60809997159E+02 -0.20288768725E+03  0.48791809827E+03  0.90636194830E+02 0.  0.
         23    2    4    4    0    0 -0.22722974599E+02  0.84410822128E+03  0.10460321962E+03  0.85574969699E+03  0.91272600131E+02 0.  0.
          2    1    3    3  502    0 -0.95388877340E+02 -0.27832689523E+03  0.79966165702E+02  0.30489258139E+03  0.00000000000E+00 0. -1.
         -1    1    3    3    0  502 -0.31199032362E+03 -0.62659132320E+03  0.27210913958E+03  0.75099802409E+03  0.00000000000E+00 0.  1.
         13    1    5    5    0    0  0.64608102079E+02 -0.22396599607E+02 -0.39912760442E+02  0.79176025249E+02  0.00000000000E+00 0. -1.
        -13    1    5    5    0    0  0.36549407348E+03  0.83206596767E+02 -0.16297492681E+03  0.40874207303E+03  0.00000000000E+00 0.  1.
          4    1    6    6  503    0  0.25537187322E+02  0.94299437727E+02  0.50965410723E+01  0.97828966175E+02  0.00000000000E+00 0. -1.
         -4    1    6    6    0  503 -0.48260161921E+02  0.74980878355E+03  0.99506678547E+02  0.75792073081E+03  0.00000000000E+00 0.  1.
<mgrwt>
<rscale>  0 0.23860995E+04</rscale>
<asrwt>0</asrwt>
<pdfrwt beam="1">  1        2 0.20410379E+00 0.23860995E+04</pdfrwt>
<pdfrwt beam="2">  1       -1 0.16505904E+00 0.23860995E+04</pdfrwt>
<totfact> 0.43807898E+00</totfact>
</mgrwt>
</event>
<event>
12    7  0.2492439E-007  0.2945202E+04  0.7818608E-02  0.8259554E-01
         -1   -1    0    0    0  501 -0.00000000000E+00  0.00000000000E+00  0.21578254767E+04  0.21578254767E+04  0.00000000000E+00 0.  1.
          2   -1    0    0  501    0  0.00000000000E+00 -0.00000000000E+00 -0.10049714457E+04  0.10049714457E+04  0.00000000000E+00 0. -1.
         24    2    1    2    0    0  0.68518317993E+03 -0.10680289887E+04  0.96509740095E+03  0.15963169579E+04  0.81565470171E+02 0.  0.
        254    2    1    2    0    0 -0.68518317993E+03  0.10680289887E+04  0.18775663009E+03  0.15664799645E+04  0.89913570522E+03 0.  0.
         23    2    4    4    0    0  0.12453417060E+03  0.53369272821E+03 -0.66105223568E+02  0.55958046834E+03  0.91780783272E+02 0.  0.
         23    2    4    4    0    0 -0.80971735053E+03  0.53433626049E+03  0.25386185365E+03  0.10068994962E+04  0.90792773293E+02 0.  0.
          4    1    3    3  502    0  0.47577871690E+03 -0.69797760479E+03  0.60333696485E+03  0.10380528009E+04  0.00000000000E+00 0. -1.
         -3    1    3    3    0  502  0.20940446303E+03 -0.37005138391E+03  0.36176043609E+03  0.55826415700E+03  0.00000000000E+00 0.  1.
         13    1    5    5    0    0  0.18714433950E+02  0.88364592465E+02  0.23121189951E+02  0.93236906128E+02  0.00000000000E+00 0. -1.
        -13    1    5    5    0    0  0.10581973665E+03  0.44532813574E+03 -0.89226413519E+02  0.46634356221E+03  0.00000000000E+00 0.  1.
          1    1    6    6  503    0 -0.17708698768E+03  0.91106087529E+02  0.21750161539E+02  0.20033269807E+03  0.00000000000E+00 0. -1.
         -1    1    6    6    0  503 -0.63263036285E+03  0.44323017296E+03  0.23211169211E+03  0.80656679812E+03  0.00000000000E+00 0.  1.
<mgrwt>
<rscale>  0 0.29452015E+04</rscale>
<asrwt>0</asrwt>
<pdfrwt beam="1">  1        2 0.15461099E+00 0.29452015E+04</pdfrwt>
<pdfrwt beam="2">  1       -1 0.33197315E+00 0.29452015E+04</pdfrwt>
<totfact> 0.50058696E-01</totfact>
</mgrwt>
</event>
<event>
12    7  0.2492439E-007  0.1429135E+04  0.7818608E-02  0.8932995E-01
          2   -1    0    0  501    0  0.00000000000E+00  0.00000000000E+00  0.19063635824E+04  0.19063635824E+04  0.00000000000E+00 0. -1.
         -1   -1    0    0    0  501 -0.00000000000E+00 -0.00000000000E+00 -0.26784332470E+03  0.26784332470E+03  0.00000000000E+00 0.  1.
         24    2    1    2    0    0 -0.39338196214E+03  0.13139845417E+03  0.34787696918E+03  0.54711025074E+03  0.79349347070E+02 0.  0.
        254    2    1    2    0    0  0.39338196214E+03 -0.13139845417E+03  0.12906432885E+04  0.16270966564E+04  0.89981581951E+03 0.  0.
         23    2    4    4    0    0  0.52086821097E+03  0.23885937403E+03  0.66544743798E+03  0.88302828549E+03  0.92526571812E+02 0.  0.
         23    2    4    4    0    0 -0.12748624883E+03 -0.37025782820E+03  0.62519585053E+03  0.74406837087E+03  0.97078761950E+02 0.  0.
          4    1    3    3  502    0 -0.39126846238E+03  0.12482965809E+03  0.32656099377E+03  0.52470518946E+03  0.00000000000E+00 0. -1.
         -3    1    3    3    0  502 -0.21134997586E+01  0.65687960796E+01  0.21315975412E+02  0.22405061279E+02  0.00000000000E+00 0.  1.
         13    1    5    5    0    0  0.50217928915E+03  0.24598751306E+03  0.65187144562E+03  0.85885404851E+03  0.00000000000E+00 0. -1.
        -13    1    5    5    0    0  0.18688921817E+02 -0.71281390262E+01  0.13575992368E+02  0.24174236977E+02  0.00000000000E+00 0.  1.
          1    1    6    6  503    0 -0.10953804663E+03 -0.36742976294E+03  0.60946435078E+03  0.72003472779E+03  0.00000000000E+00 0. -1.
         -1    1    6    6    0  503 -0.17948202193E+02 -0.28280652634E+01  0.15731499742E+02  0.24033643070E+02  0.00000000000E+00 0.  1.
<mgrwt>
<rscale>  0 0.14291351E+04</rscale>
<asrwt>0</asrwt>
<pdfrwt beam="1">  1        2 0.29328670E+00 0.14291351E+04</pdfrwt>
<pdfrwt beam="2">  1       -1 0.41206667E-01 0.14291351E+04</pdfrwt>
<totfact> 0.48072941E+01</totfact>
</mgrwt>
</event>
<event>
12    7  0.2492439E-007  0.1921498E+04  0.7818608E-02  0.8644229E-01
         -1   -1    0    0    0  501 -0.00000000000E+00  0.00000000000E+00  0.39507086312E+03  0.39507086312E+03  0.00000000000E+00 0.  1.
          2   -1    0    0  501    0  0.00000000000E+00 -0.00000000000E+00 -0.23363885052E+04  0.23363885052E+04  0.00000000000E+00 0. -1.
         24    2    1    2    0    0 -0.74749873397E+03  0.16446562740E+02 -0.72844279110E+03  0.10464656998E+04  0.73734078428E+02 0.  0.
        254    2    1    2    0    0  0.74749873397E+03 -0.16446562740E+02 -0.12128748510E+04  0.16849936685E+04  0.89950731625E+03 0.  0.
         23    2    4    4    0    0  0.70922885460E+03 -0.93984352335E+02 -0.13335969794E+04  0.15161020099E+04  0.90806246049E+02 0.  0.
         23    2    4    4    0    0  0.38269879366E+02  0.77537789596E+02  0.12072212843E+03  0.16889165856E+03  0.80460347736E+02 0.  0.
          2    1    3    3  502    0 -0.38323493793E+03  0.39436751699E+02 -0.34626931808E+03  0.51800262131E+03  0.00000000000E+00 0. -1.
         -1    1    3    3    0  502 -0.36426379604E+03 -0.22990188960E+02 -0.38217347302E+03  0.52846307854E+03  0.00000000000E+00 0.  1.
         13    1    5    5    0    0  0.25972240127E+02 -0.11644092822E+02 -0.94780101116E+02  0.98961657840E+02  0.00000000000E+00 0. -1.
        -13    1    5    5    0    0  0.68325661448E+03 -0.82340259513E+02 -0.12388168783E+04  0.14171403521E+04  0.00000000000E+00 0.  1.
          1    1    6    6  503    0  0.10443888034E+02 -0.40375562449E+01 -0.81530184615E+01  0.13850933822E+02  0.00000000000E+00 0. -1.
         -1    1    6    6    0  503  0.27825991332E+02  0.81575345841E+02  0.12887514689E+03  0.15504072474E+03  0.00000000000E+00 0.  1.
<mgrwt>
<rscale>  0 0.19214984E+04</rscale>
<asrwt>0</asrwt>
<pdfrwt beam="1">  1        2 0.35944439E+00 0.19214984E+04</pdfrwt>
<pdfrwt beam="2">  1       -1 0.60780133E-01 0.19214984E+04</pdfrwt>
<totfact> 0.12635737E+01</totfact>
</mgrwt>
</event>
<event>
12    7  0.2492439E-007  0.1630485E+04  0.7818608E-02  0.8802036E-01
         -1   -1    0    0    0  501 -0.00000000000E+00  0.00000000000E+00  0.88539732733E+03  0.88539732733E+03  0.00000000000E+00 0.  1.
          2   -1    0    0  501    0  0.00000000000E+00 -0.00000000000E+00 -0.75064646745E+03  0.75064646745E+03  0.00000000000E+00 0. -1.
         24    2    1    2    0    0 -0.41896147160E+03  0.21048351290E+03 -0.26536327643E+03  0.54431443389E+03  0.77643483764E+02 0.  0.
        254    2    1    2    0    0  0.41896147160E+03 -0.21048351290E+03  0.40011413631E+03  0.10917293609E+04  0.90108248871E+03 0.  0.
         23    2    4    4    0    0  0.25898662859E+02 -0.19976004433E+03  0.59972098245E+03  0.63936571978E+03  0.92457832522E+02 0.  0.
         23    2    4    4    0    0  0.39306280874E+03 -0.10723468571E+02 -0.19960684613E+03  0.45236364111E+03  0.10087916722E+03 0.  0.
          2    1    3    3  502    0 -0.82960557364E+02  0.73589455114E+02 -0.81106495508E+02  0.13739041304E+03  0.00000000000E+00 0. -1.
         -1    1    3    3    0  502 -0.33600091424E+03  0.13689405779E+03 -0.18425678092E+03  0.40692402085E+03  0.00000000000E+00 0.  1.
         13    1    5    5    0    0  0.57184235457E+02 -0.11818838740E+03  0.30731550903E+03  0.33418760269E+03  0.00000000000E+00 0.  1.
        -13    1    5    5    0    0 -0.31285572598E+02 -0.81571656932E+02  0.29240547342E+03  0.30517811709E+03  0.00000000000E+00 0. -1.
          2    1    6    6  503    0  0.39820028769E+03 -0.14405373128E+02 -0.20035878543E+03  0.44599846053E+03  0.00000000000E+00 0. -1.
         -2    1    6    6    0  503 -0.51374789507E+01  0.36819045578E+01  0.75193929293E+00  0.63651805821E+01  0.00000000000E+00 0.  1.
<mgrwt>
<rscale>  0 0.16304851E+04</rscale>
<asrwt>0</asrwt>
<pdfrwt beam="1">  1        2 0.11548407E+00 0.16304851E+04</pdfrwt>
<pdfrwt beam="2">  1       -1 0.13621497E+00 0.16304851E+04</pdfrwt>
<totfact> 0.18422423E+01</totfact>
</mgrwt>
</event>
<event>
12    7  0.2492439E-007  0.3738399E+04  0.7818608E-02  0.8059505E-01
         -1   -1    0    0    0  501 -0.00000000000E+00  0.00000000000E+00  0.71821965621E+03  0.71821965621E+03  0.00000000000E+00 0.  1.
          2   -1    0    0  501    0  0.00000000000E+00 -0.00000000000E+00 -0.48646782005E+04  0.48646782005E+04  0.00000000000E+00 0. -1.
         24    2    1    2    0    0  0.72437895904E+03  0.15802748899E+04 -0.15472568612E+04  0.23286156032E+04  0.80331991104E+02 0.  0.
        254    2    1    2    0    0 -0.72437895904E+03 -0.15802748899E+04 -0.25992016831E+04  0.32542822535E+04  0.90139336147E+03 0.  0.
         23    2    4    4    0    0 -0.76846562429E+03 -0.72284162158E+03 -0.11160498615E+04  0.15381896051E+04  0.86142569832E+02 0.  0.
         23    2    4    4    0    0  0.44086665242E+02 -0.85743326836E+03 -0.14831518216E+04  0.17160926484E+04  0.89995601429E+02 0.  0.
          4    1    3    3  502    0  0.49001810435E+03  0.10782602540E+04 -0.11033891598E+04  0.16187126230E+04  0.00000000000E+00 0. -1.
         -3    1    3    3    0  502  0.23436085470E+03  0.50201463595E+03 -0.44386770143E+03  0.70990298020E+03  0.00000000000E+00 0.  1.
         13    1    5    5    0    0 -0.42329711336E+03 -0.44050189858E+03 -0.68745344873E+03  0.91968179986E+03  0.00000000000E+00 0.  1.
        -13    1    5    5    0    0 -0.34516851093E+03 -0.28233972300E+03 -0.42859641279E+03  0.61850780527E+03  0.00000000000E+00 0. -1.
          2    1    6    6  503    0  0.16434487460E+02 -0.40579651502E+03 -0.79085971659E+03  0.88904442820E+03  0.00000000000E+00 0. -1.
         -2    1    6    6    0  503  0.27652177782E+02 -0.45163675334E+03 -0.69229210498E+03  0.82704822019E+03  0.00000000000E+00 0.  1.
<mgrwt>
<rscale>  0 0.37383994E+04</rscale>
<asrwt>0</asrwt>
<pdfrwt beam="1">  1        2 0.74841201E+00 0.37383994E+04</pdfrwt>
<pdfrwt beam="2">  1       -1 0.11049534E+00 0.37383994E+04</pdfrwt>
<totfact> 0.34318596E-02</totfact>
</mgrwt>
</event>
<event>
12    7  0.2492439E-007  0.2370082E+04  0.7818608E-02  0.8450790E-01
         -1   -1    0    0    0  501 -0.00000000000E+00  0.00000000000E+00  0.60057140389E+03  0.60057140389E+03  0.00000000000E+00 0.  1.
          2   -1    0    0  501    0  0.00000000000E+00 -0.00000000000E+00 -0.23383101590E+04  0.23383101590E+04  0.00000000000E+00 0. -1.
         24    2    1    2    0    0 -0.89315619226E+03 -0.37825865700E+03 -0.11022758356E+04  0.14703290050E+04  0.77767408197E+02 0.  0.
        254    2    1    2    0    0  0.89315619226E+03  0.37825865700E+03 -0.63546291954E+03  0.14685525579E+04  0.90112479600E+03 0.  0.
         23    2    4    4    0    0 -0.39186395477E+01  0.17870620516E+03  0.15507658205E+03  0.25320021941E+03  0.90057433420E+02 0.  0.
         23    2    4    4    0    0  0.89707483180E+03  0.19955245184E+03 -0.79053950159E+03  0.12153523385E+04  0.86972227224E+02 0.  0.
          4    1    3    3  502    0 -0.63597127683E+03 -0.23532075702E+03 -0.74248285214E+03  0.10055426939E+04  0.00000000000E+00 0. -1.
         -3    1    3    3    0  502 -0.25718491543E+03 -0.14293789998E+03 -0.35979298345E+03  0.46478631102E+03  0.00000000000E+00 0.  1.
         13    1    5    5    0    0 -0.42562366419E+02  0.10216076970E+03  0.62861689718E+02  0.12727910250E+03  0.00000000000E+00 0. -1.
        -13    1    5    5    0    0  0.38643726871E+02  0.76545435458E+02  0.92214892328E+02  0.12592111691E+03  0.00000000000E+00 0.  1.
          3    1    6    6  503    0  0.21250301991E+03  0.43838101773E+02 -0.13996703668E+03  0.25820550729E+03  0.00000000000E+00 0. -1.
         -3    1    6    6    0  503  0.68457181189E+03  0.15571435007E+03 -0.65057246491E+03  0.95714683124E+03  0.00000000000E+00 0.  1.
<mgrwt>
<rscale>  0 0.23700820E+04</rscale>
<asrwt>0</asrwt>
<pdfrwt beam="1">  1        2 0.35974003E+00 0.23700820E+04</pdfrwt>
<pdfrwt beam="2">  1       -1 0.92395598E-01 0.23700820E+04</pdfrwt>
<totfact> 0.50382836E+00</totfact>
</mgrwt>
</event>
<event>
12    7  0.2492439E-007  0.1903970E+04  0.7818608E-02  0.8652883E-01
          2   -1    0    0  501    0  0.00000000000E+00  0.00000000000E+00  0.18301186887E+04  0.18301186887E+04  0.00000000000E+00 0. -1.
         -1   -1    0    0    0  501 -0.00000000000E+00 -0.00000000000E+00 -0.49520011715E+03  0.49520011715E+03  0.00000000000E+00 0.  1.
         24    2    1    2    0    0 -0.16748955430E+03 -0.65233056064E+03  0.15572549457E+03  0.69305191527E+03  0.49825861446E+02 0.  0.
        254    2    1    2    0    0  0.16748955430E+03  0.65233056064E+03  0.11791930770E+04  0.16322668906E+04  0.90565499951E+03 0.  0.
         23    2    4    4    0    0  0.62406077034E+02 -0.14244746787E+03 -0.29095517915E+02  0.17937610015E+03  0.84518853461E+02 0.  0.
         23    2    4    4    0    0  0.10508347727E+03  0.79477802851E+03  0.12082885949E+04  0.14528907904E+04  0.90640325216E+02 0.  0.
          4    1    3    3  502    0 -0.43066298079E+02 -0.24171906087E+03  0.72496528343E+02  0.25600499417E+03  0.00000000000E+00 0. -1.
         -1    1    3    3    0  502 -0.12442325622E+03 -0.41061149977E+03  0.83228966224E+02  0.43704692111E+03  0.00000000000E+00 0.  1.
         13    1    5    5    0    0  0.63743077983E+02 -0.14367036330E+03 -0.71319391411E+01  0.15733790973E+03  0.00000000000E+00 0. -1.
        -13    1    5    5    0    0 -0.13370009494E+01  0.12228954281E+01 -0.21963578774E+02  0.22038190428E+02  0.00000000000E+00 0.  1.
          4    1    6    6  503    0  0.86351168423E+02  0.76682120273E+03  0.11379808196E+04  0.13749442269E+04  0.00000000000E+00 0. -1.
         -4    1    6    6    0  503  0.18732308844E+02  0.27956825773E+02  0.70307775268E+02  0.77946563524E+02  0.00000000000E+00 0.  1.
<mgrwt>
<rscale>  0 0.19039695E+04</rscale>
<asrwt>0</asrwt>
<pdfrwt beam="1">  1        2 0.28155672E+00 0.19039695E+04</pdfrwt>
<pdfrwt beam="2">  1       -1 0.76184634E-01 0.19039695E+04</pdfrwt>
<totfact> 0.15315251E+01</totfact>
</mgrwt>
</event>
<event>
12    7  0.2492439E-007  0.2762702E+04  0.7818608E-02  0.8314942E-01
          2   -1    0    0  501    0  0.00000000000E+00  0.00000000000E+00  0.16440464230E+04  0.16440464230E+04  0.00000000000E+00 0. -1.
         -1   -1    0    0    0  501 -0.00000000000E+00 -0.00000000000E+00 -0.11606310150E+04  0.11606310150E+04  0.00000000000E+00 0.  1.
         24    2    1    2    0    0  0.99495827517E+03 -0.67032724579E+03 -0.73082698528E+02  0.12044568057E+04  0.78067472700E+02 0.  0.
        254    2    1    2    0    0 -0.99495827517E+03  0.67032724579E+03  0.55649810649E+03  0.16002206323E+04  0.90096356404E+03 0.  0.
         23    2    4    4    0    0 -0.77151483382E+03  0.36678311063E+03 -0.71382765219E+02  0.86206418784E+03  0.91072365465E+02 0.  0.
         23    2    4    4    0    0 -0.22344344135E+03  0.30354413516E+03  0.62788087171E+03  0.73815644445E+03  0.92598779437E+02 0.  0.
          4    1    3    3  502    0  0.93270157047E+03 -0.61740144043E+03 -0.50464741568E+02  0.11196711340E+04  0.00000000000E+00 0. -1.
         -3    1    3    3    0  502  0.62256704693E+02 -0.52925805353E+02 -0.22617956961E+02  0.84785671718E+02  0.00000000000E+00 0.  1.
         13    1    5    5    0    0 -0.77210661516E+03  0.35957295733E+03 -0.72203349817E+02  0.85478339978E+03  0.00000000000E+00 0. -1.
        -13    1    5    5    0    0  0.59178134155E+00  0.72101532998E+01  0.82058459792E+00  0.72807880648E+01  0.00000000000E+00 0.  1.
          1    1    6    6  503    0  0.23882355160E+01 -0.33915778112E+01  0.22122336665E+02  0.22507870812E+02  0.00000000000E+00 0.  1.
         -1    1    6    6    0  503 -0.22583167686E+03  0.30693571297E+03  0.60575853504E+03  0.71564857364E+03  0.00000000000E+00 0. -1.
<mgrwt>
<rscale>  0 0.27627025E+04</rscale>
<asrwt>0</asrwt>
<pdfrwt beam="1">  1        2 0.25293022E+00 0.27627025E+04</pdfrwt>
<pdfrwt beam="2">  1       -1 0.17855862E+00 0.27627025E+04</pdfrwt>
<totfact> 0.22318228E+00</totfact>
</mgrwt>
</event>
<event>
12    7  0.2492439E-007  0.1868449E+04  0.7818608E-02  0.8670723E-01
         -1   -1    0    0    0  501 -0.00000000000E+00  0.00000000000E+00  0.63854893412E+03  0.63854893412E+03  0.00000000000E+00 0.  1.
          2   -1    0    0  501    0  0.00000000000E+00 -0.00000000000E+00 -0.13668103392E+04  0.13668103392E+04  0.00000000000E+00 0. -1.
         24    2    1    2    0    0 -0.37022300624E+03 -0.48560226576E+03 -0.67715126774E+03  0.91526822116E+03  0.79419408129E+02 0.  0.
        254    2    1    2    0    0  0.37022300624E+03  0.48560226576E+03 -0.51110137362E+02  0.10900910522E+04  0.90156065856E+03 0.  0.
         23    2    4    4    0    0  0.22819162959E+03  0.63660472786E+03 -0.30719573417E+03  0.74821080424E+03  0.90073243219E+02 0.  0.
         23    2    4    4    0    0  0.14203137665E+03 -0.15100246209E+03  0.25608559681E+03  0.34188024795E+03  0.91255769877E+02 0.  0.
          4    1    3    3  502    0 -0.19570632295E+03 -0.30435137863E+03 -0.35988168643E+03  0.51033866671E+03  0.00000000000E+00 0. -1.
         -3    1    3    3    0  502 -0.17451668330E+03 -0.18125088713E+03 -0.31726958131E+03  0.40492955444E+03  0.00000000000E+00 0.  1.
         13    1    5    5    0    0  0.12171486801E+03  0.45390132884E+03 -0.19458357967E+03  0.50862923126E+03  0.00000000000E+00 0. -1.
        -13    1    5    5    0    0  0.10647676158E+03  0.18270339901E+03 -0.11261215450E+03  0.23958157297E+03  0.00000000000E+00 0.  1.
          3    1    6    6  503    0  0.42363908740E+02 -0.58297395110E+02  0.30165408684E+02  0.78123229077E+02  0.00000000000E+00 0. -1.
         -3    1    6    6    0  503  0.99667467912E+02 -0.92705066984E+02  0.22592018812E+03  0.26375701888E+03  0.00000000000E+00 0.  1.
<mgrwt>
<rscale>  0 0.18684489E+04</rscale>
<asrwt>0</asrwt>
<pdfrwt beam="1">  1        2 0.21027851E+00 0.18684489E+04</pdfrwt>
<pdfrwt beam="2">  1       -1 0.98238300E-01 0.18684489E+04</pdfrwt>
<totfact> 0.16061797E+01</totfact>
</mgrwt>
</event>
<event>
12    7  0.2492439E-007  0.2743487E+04  0.7818608E-02  0.8321031E-01
          2   -1    0    0  501    0  0.00000000000E+00  0.00000000000E+00  0.18743426176E+04  0.18743426176E+04  0.00000000000E+00 0. -1.
         -1   -1    0    0    0  501 -0.00000000000E+00 -0.00000000000E+00 -0.10039146469E+04  0.10039146469E+04  0.00000000000E+00 0.  1.
         24    2    1    2    0    0 -0.61608745930E+03 -0.53353458564E+03 -0.56764842830E+03  0.99597839668E+03  0.74332475448E+02 0.  0.
        254    2    1    2    0    0  0.61608745930E+03  0.53353458564E+03  0.14380763990E+04  0.18822788679E+04  0.90038163885E+03 0.  0.
         23    2    4    4    0    0  0.82359378050E+03  0.42151766373E+03  0.93614890207E+03  0.13197873295E+04  0.97365148891E+02 0.  0.
         23    2    4    4    0    0 -0.20750632119E+03  0.11201692191E+03  0.50192749689E+03  0.56249153834E+03  0.94121487653E+02 0.  0.
          4    1    3    3  502    0 -0.53775722540E+03 -0.48927325812E+03 -0.52254942026E+03  0.89533739517E+03  0.00000000000E+00 0. -1.
         -3    1    3    3    0  502 -0.78330233902E+02 -0.44261327525E+02 -0.45099008040E+02  0.10064100150E+03  0.00000000000E+00 0.  1.
         13    1    5    5    0    0  0.10079857415E+03  0.68324228896E+02  0.16789297232E+03  0.20740444296E+03  0.00000000000E+00 0. -1.
        -13    1    5    5    0    0  0.72279520634E+03  0.35319343483E+03  0.76825592974E+03  0.11123828866E+04  0.00000000000E+00 0.  1.
          2    1    6    6  503    0 -0.84159652035E+02  0.51850621491E+01  0.11532599635E+03  0.14286293198E+03  0.00000000000E+00 0. -1.
         -2    1    6    6    0  503 -0.12334666916E+03  0.10683185976E+03  0.38660150054E+03  0.41962860636E+03  0.00000000000E+00 0.  1.
<mgrwt>
<rscale>  0 0.27434868E+04</rscale>
<asrwt>0</asrwt>
<pdfrwt beam="1">  1        2 0.28836040E+00 0.27434868E+04</pdfrwt>
<pdfrwt beam="2">  1       -1 0.15444841E+00 0.27434868E+04</pdfrwt>
<totfact> 0.25154521E+00</totfact>
</mgrwt>
</event>
<event>
12    7  0.2492439E-007  0.1556927E+04  0.7818608E-02  0.8847455E-01
         -1   -1    0    0    0  501 -0.00000000000E+00  0.00000000000E+00  0.37698520311E+03  0.37698520311E+03  0.00000000000E+00 0.  1.
          2   -1    0    0  501    0  0.00000000000E+00 -0.00000000000E+00 -0.16075053437E+04  0.16075053437E+04  0.00000000000E+00 0. -1.
         24    2    1    2    0    0 -0.48102330011E+03 -0.13305776165E+03 -0.27453416212E+03  0.57513621008E+03  0.79529056297E+02 0.  0.
        254    2    1    2    0    0  0.48102330011E+03  0.13305776165E+03 -0.95598597849E+03  0.14093543367E+04  0.90734925595E+03 0.  0.
         23    2    4    4    0    0  0.28115881679E+03  0.29591817976E+02  0.10971215038E+03  0.31633664009E+03  0.90034204472E+02 0.  0.
         23    2    4    4    0    0  0.19986448332E+03  0.10346594367E+03 -0.10656981289E+04  0.10930176967E+04  0.91236890325E+02 0.  0.
          2    1    3    3  502    0 -0.36662120262E+03 -0.13336987439E+03 -0.19801932283E+03  0.43750460777E+03  0.00000000000E+00 0. -1.
         -1    1    3    3    0  502 -0.11440209749E+03  0.31211273939E+00 -0.76514839285E+02  0.13763160232E+03  0.00000000000E+00 0.  1.
         13    1    5    5    0    0  0.90815462630E+02  0.37010220383E+02  0.73216763175E+02  0.12238422723E+03  0.00000000000E+00 0. -1.
        -13    1    5    5    0    0  0.19034335416E+03 -0.74184024076E+01  0.36495387200E+02  0.19395241286E+03  0.00000000000E+00 0.  1.
          4    1    6    6  503    0  0.10850187517E+03  0.19067778614E+02 -0.36127526361E+03  0.37769836271E+03  0.00000000000E+00 0. -1.
         -4    1    6    6    0  503  0.91362608156E+02  0.84398165060E+02 -0.70442286525E+03  0.71531933395E+03  0.00000000000E+00 0.  1.
<mgrwt>
<rscale>  0 0.15569274E+04</rscale>
<asrwt>0</asrwt>
<pdfrwt beam="1">  1        2 0.24730851E+00 0.15569274E+04</pdfrwt>
<pdfrwt beam="2">  1       -1 0.57997724E-01 0.15569274E+04</pdfrwt>
<totfact> 0.36459459E+01</totfact>
</mgrwt>
</event>
<event>
12    7  0.2492439E-007  0.1659361E+04  0.7818608E-02  0.8784888E-01
         -1   -1    0    0    0  501 -0.00000000000E+00  0.00000000000E+00  0.39660821258E+03  0.39660821258E+03  0.00000000000E+00 0.  1.
          2   -1    0    0  501    0  0.00000000000E+00 -0.00000000000E+00 -0.17356415751E+04  0.17356415751E+04  0.00000000000E+00 0. -1.
         24    2    1    2    0    0 -0.28857137316E+03  0.46211015119E+03 -0.73407507355E+03  0.91799148285E+03  0.83802862365E+02 0.  0.
        254    2    1    2    0    0  0.28857137316E+03 -0.46211015119E+03 -0.60495828893E+03  0.12142583048E+04  0.90090480639E+03 0.  0.
         23    2    4    4    0    0  0.32544558010E+03  0.12694023815E+03  0.40095950843E+01  0.36158761373E+03  0.93278485656E+02 0.  0.
         23    2    4    4    0    0 -0.36874206936E+02 -0.58905038933E+03 -0.60896788401E+03  0.85267069106E+03  0.88686838472E+02 0.  0.
          4    1    3    3  502    0 -0.28459232278E+03  0.42787558833E+03 -0.70770630324E+03  0.87459620449E+03  0.00000000000E+00 0. -1.
         -3    1    3    3    0  502 -0.39790503875E+01  0.34234562858E+02 -0.26368770315E+02  0.43395278360E+02  0.00000000000E+00 0.  1.
         13    1    5    5    0    0  0.18884780334E+02  0.12611125777E+02 -0.24202093834E+02  0.33187599606E+02  0.00000000000E+00 0.  1.
        -13    1    5    5    0    0  0.30656079977E+03  0.11432911237E+03  0.28211688919E+02  0.32840001413E+03  0.00000000000E+00 0. -1.
          1    1    6    6  503    0 -0.34019834152E+02 -0.49952936009E+03 -0.55766703987E+03  0.74945277240E+03  0.00000000000E+00 0. -1.
         -1    1    6    6    0  503 -0.28543727841E+01 -0.89521029248E+02 -0.51300844138E+02  0.10321791865E+03  0.00000000000E+00 0.  1.
<mgrwt>
<rscale>  0 0.16593610E+04</rscale>
<asrwt>0</asrwt>
<pdfrwt beam="1">  1        2 0.26702177E+00 0.16593610E+04</pdfrwt>
<pdfrwt beam="2">  1       -1 0.61016650E-01 0.16593610E+04</pdfrwt>
<totfact> 0.27752032E+01</totfact>
</mgrwt>
</event>
<event>
12    7  0.2492439E-007  0.1857195E+04  0.7818608E-02  0.8676461E-01
          2   -1    0    0  501    0  0.00000000000E+00  0.00000000000E+00  0.10033978194E+04  0.10033978194E+04  0.00000000000E+00 0. -1.
         -1   -1    0    0    0  501 -0.00000000000E+00 -0.00000000000E+00 -0.85937364129E+03  0.85937364129E+03  0.00000000000E+00 0.  1.
         24    2    1    2    0    0 -0.57186389658E+03  0.37780973569E+03  0.23332566499E+03  0.72831062984E+03  0.78911310962E+02 0.  0.
        254    2    1    2    0    0  0.57186389658E+03 -0.37780973569E+03 -0.89301486921E+02  0.11344608308E+04  0.89958774363E+03 0.  0.
         23    2    4    4    0    0  0.60289298321E+03 -0.50453794912E+03 -0.32107726124E+03  0.85404056203E+03  0.90863538397E+02 0.  0.
         23    2    4    4    0    0 -0.31029086629E+02  0.12672821343E+03  0.23177577432E+03  0.28042026878E+03  0.88840718617E+02 0.  0.
          2    1    3    3  502    0 -0.27859928010E+03  0.14130474052E+03  0.88431299768E+02  0.32466087437E+03  0.00000000000E+00 0. -1.
         -1    1    3    3    0  502 -0.29326461648E+03  0.23650499517E+03  0.14489436522E+03  0.40364975547E+03  0.00000000000E+00 0.  1.
         13    1    5    5    0    0  0.12613106983E+03 -0.11764606797E+03 -0.11096272849E+03  0.20509112902E+03  0.00000000000E+00 0. -1.
        -13    1    5    5    0    0  0.47676191338E+03 -0.38689188114E+03 -0.21011453275E+03  0.64894943302E+03  0.00000000000E+00 0.  1.
          4    1    6    6  503    0 -0.91029890167E+00 -0.13219016611E+02  0.10637879175E+02  0.16992219325E+02  0.00000000000E+00 0. -1.
         -4    1    6    6    0  503 -0.30118787727E+02  0.13994723004E+03  0.22113789514E+03  0.26342804945E+03  0.00000000000E+00 0.  1.
<mgrwt>
<rscale>  0 0.18571953E+04</rscale>
<asrwt>0</asrwt>
<pdfrwt beam="1">  1        2 0.15436890E+00 0.18571953E+04</pdfrwt>
<pdfrwt beam="2">  1       -1 0.13221133E+00 0.18571953E+04</pdfrwt>
<totfact> 0.13056829E+01</totfact>
</mgrwt>
</event>
<event>
12    7  0.2492439E-007  0.1425801E+04  0.7818608E-02  0.8935352E-01
         -1   -1    0    0    0  501 -0.00000000000E+00  0.00000000000E+00  0.80246622100E+03  0.80246622100E+03  0.00000000000E+00 0.  1.
          2   -1    0    0  501    0  0.00000000000E+00 -0.00000000000E+00 -0.63333118337E+03  0.63333118337E+03  0.00000000000E+00 0. -1.
         24    2    1    2    0    0  0.39456532533E+03 -0.28363695645E+02  0.20212949211E+03  0.45264782196E+03  0.86875911254E+02 0.  0.
        254    2    1    2    0    0 -0.39456532533E+03  0.28363695645E+02 -0.32994454490E+02  0.98314958241E+03  0.89944881577E+03 0.  0.
         23    2    4    4    0    0 -0.28296203136E+03 -0.26825056143E+03  0.31070682348E+03  0.50668835819E+03  0.90379683957E+02 0.  0.
         23    2    4    4    0    0 -0.11160329397E+03  0.29661425707E+03 -0.34370127797E+03  0.47646122422E+03  0.91920710327E+02 0.  0.
          2    1    3    3  502    0  0.37758535315E+03 -0.46160828804E+02  0.18887508707E+03  0.42470615670E+03  0.00000000000E+00 0. -1.
         -1    1    3    3    0  502  0.16979972184E+02  0.17797133159E+02  0.13254405047E+02  0.27941665255E+02  0.00000000000E+00 0.  1.
         13    1    5    5    0    0 -0.95096032348E+02 -0.47133622376E+02  0.11619789599E+03  0.15737466365E+03  0.00000000000E+00 0. -1.
        -13    1    5    5    0    0 -0.18786599901E+03 -0.22111693905E+03  0.19450892749E+03  0.34931369454E+03  0.00000000000E+00 0.  1.
          1    1    6    6  503    0 -0.46545129139E+02  0.23764296368E+03 -0.25395030619E+03  0.35090081967E+03  0.00000000000E+00 0. -1.
         -1    1    6    6    0  503 -0.65058164832E+02  0.58971293394E+02 -0.89750971780E+02  0.12556040455E+03  0.00000000000E+00 0.  1.
<mgrwt>
<rscale>  0 0.14258007E+04</rscale>
<asrwt>0</asrwt>
<pdfrwt beam="1">  1        2 0.97435566E-01 0.14258007E+04</pdfrwt>
<pdfrwt beam="2">  1       -1 0.12345634E+00 0.14258007E+04</pdfrwt>
<totfact> 0.29754822E+01</totfact>
</mgrwt>
</event>
<event>
12    7  0.2492439E-007  0.1910564E+04  0.7818608E-02  0.8649616E-01
         -1   -1    0    0    0  501 -0.00000000000E+00  0.00000000000E+00  0.36999842325E+03  0.36999842325E+03  0.00000000000E+00 0.  1.
          2   -1    0    0  501    0  0.00000000000E+00 -0.00000000000E+00 -0.24663988961E+04  0.24663988961E+04  0.00000000000E+00 0. -1.
         24    2    1    2    0    0  0.31407678050E+03  0.59822337749E+03 -0.12696243496E+04  0.14403716789E+04  0.78798164985E+02 0.  0.
        254    2    1    2    0    0 -0.31407678050E+03 -0.59822337749E+03 -0.82677612324E+03  0.13960256405E+04  0.89934053474E+03 0.  0.
         23    2    4    4    0    0 -0.15437824131E+03 -0.85596319100E+01  0.15398410349E+03  0.23692102409E+03  0.92274367172E+02 0.  0.
         23    2    4    4    0    0 -0.15969853919E+03 -0.58966374558E+03 -0.98076022674E+03  0.11591046164E+04  0.91792881424E+02 0.  0.
          4    1    3    3  502    0  0.91739912463E+02  0.20641134438E+03 -0.49868195604E+03  0.54745369476E+03  0.00000000000E+00 0. -1.
         -3    1    3    3    0  502  0.22233686804E+03  0.39181203311E+03 -0.77094239353E+03  0.89291798409E+03  0.00000000000E+00 0.  1.
         13    1    5    5    0    0 -0.12002790938E+03  0.33404004353E+02  0.11963277575E+03  0.17272674249E+03  0.00000000000E+00 0. -1.
        -13    1    5    5    0    0 -0.34350331932E+02 -0.41963636263E+02  0.34351327738E+02  0.64194281596E+02  0.00000000000E+00 0.  1.
          2    1    6    6  503    0 -0.14209500098E+03 -0.54266069135E+03 -0.84389411475E+03  0.10133256595E+04  0.00000000000E+00 0. -1.
         -2    1    6    6    0  503 -0.17603538206E+02 -0.47003054233E+02 -0.13686611199E+03  0.14577895690E+03  0.00000000000E+00 0.  1.
<mgrwt>
<rscale>  0 0.19105640E+04</rscale>
<asrwt>0</asrwt>
<pdfrwt beam="1">  1        2 0.37944598E+00 0.19105640E+04</pdfrwt>
<pdfrwt beam="2">  1       -1 0.56922835E-01 0.19105640E+04</pdfrwt>
<totfact> 0.12126728E+01</totfact>
</mgrwt>
</event>
<event>
12    7  0.2492439E-007  0.1219946E+04  0.7818608E-02  0.9095575E-01
         -1   -1    0    0    0  501 -0.00000000000E+00  0.00000000000E+00  0.62537162791E+03  0.62537162791E+03  0.00000000000E+00 0.  1.
          2   -1    0    0  501    0  0.00000000000E+00 -0.00000000000E+00 -0.59495324933E+03  0.59495324933E+03  0.00000000000E+00 0. -1.
         24    2    1    2    0    0  0.23814435658E+03 -0.48893695052E+02 -0.96465004595E+02  0.27972734642E+03  0.99189531901E+02 0.  0.
        254    2    1    2    0    0 -0.23814435658E+03  0.48893695052E+02  0.12688338318E+03  0.94059753082E+03  0.89973384624E+03 0.  0.
         23    2    4    4    0    0  0.14046130486E+03  0.20872855632E+03 -0.25627270844E+03  0.37119827197E+03  0.93890721781E+02 0.  0.
         23    2    4    4    0    0 -0.37860566144E+03 -0.15983486127E+03  0.38315609162E+03  0.56939925885E+03  0.92290279452E+02 0.  0.
          2    1    3    3  502    0  0.18194867990E+03 -0.40109032344E+02 -0.11613015846E+03  0.21954559959E+03  0.00000000000E+00 0. -1.
         -1    1    3    3    0  502  0.56195676678E+02 -0.87846627078E+01  0.19665153862E+02  0.60181746839E+02  0.00000000000E+00 0.  1.
         13    1    5    5    0    0  0.13720503712E+03  0.13079831066E+03 -0.19557333109E+03  0.27236436646E+03  0.00000000000E+00 0.  1.
        -13    1    5    5    0    0  0.32562677376E+01  0.77930245657E+02 -0.60699377354E+02  0.98833905513E+02  0.00000000000E+00 0. -1.
          4    1    6    6  503    0 -0.29416991976E+03 -0.84620278895E+02  0.30370468972E+03  0.43119957311E+03  0.00000000000E+00 0.  1.
         -4    1    6    6    0  503 -0.84435741684E+02 -0.75214582375E+02  0.79451401901E+02  0.13819968574E+03  0.00000000000E+00 0. -1.
<mgrwt>
<rscale>  0 0.12199457E+04</rscale>
<asrwt>0</asrwt>
<pdfrwt beam="1">  1        2 0.91531269E-01 0.12199457E+04</pdfrwt>
<pdfrwt beam="2">  1       -1 0.96211020E-01 0.12199457E+04</pdfrwt>
<totfact> 0.58757394E+01</totfact>
</mgrwt>
</event>
<event>
12    7  0.2492439E-007  0.2213492E+04  0.7818608E-02  0.8512833E-01
          2   -1    0    0  501    0  0.00000000000E+00  0.00000000000E+00  0.85471648010E+03  0.85471648010E+03  0.00000000000E+00 0. -1.
         -1   -1    0    0    0  501 -0.00000000000E+00 -0.00000000000E+00 -0.14330909646E+04  0.14330909646E+04  0.00000000000E+00 0.  1.
         24    2    1    2    0    0 -0.59667203417E+03 -0.69393625079E+03 -0.34836881802E+03  0.98247397209E+03  0.79556495362E+02 0.  0.
        254    2    1    2    0    0  0.59667203417E+03  0.69393625079E+03 -0.23000566648E+03  0.13053334726E+04  0.90190234038E+03 0.  0.
         23    2    4    4    0    0 -0.58189230309E+02  0.22118154686E+03 -0.40456619307E+03  0.47399297963E+03  0.93210927323E+02 0.  0.
         23    2    4    4    0    0  0.65486126448E+03  0.47275470392E+03  0.17456052658E+03  0.83134049298E+03  0.91188552052E+02 0.  0.
          2    1    3    3  502    0 -0.42064562021E+03 -0.53963378825E+03 -0.24782096970E+03  0.72771051679E+03  0.00000000000E+00 0. -1.
         -1    1    3    3    0  502 -0.17602641396E+03 -0.15430246254E+03 -0.10054784832E+03  0.25476345531E+03  0.00000000000E+00 0.  1.
         13    1    5    5    0    0 -0.11591504615E+02  0.13875955195E+02 -0.10604540012E+03  0.10757570357E+03  0.00000000000E+00 0. -1.
        -13    1    5    5    0    0 -0.46597725694E+02  0.20730559167E+03 -0.29852079294E+03  0.36641727606E+03  0.00000000000E+00 0.  1.
          3    1    6    6  503    0  0.42414117530E+02  0.34069683402E+02 -0.10931242208E+02  0.55490474400E+02  0.00000000000E+00 0. -1.
         -3    1    6    6    0  503  0.61244714695E+03  0.43868502052E+03  0.18549176879E+03  0.77585001858E+03  0.00000000000E+00 0.  1.
<mgrwt>
<rscale>  0 0.22134918E+04</rscale>
<asrwt>0</asrwt>
<pdfrwt beam="1">  1        2 0.13149484E+00 0.22134918E+04</pdfrwt>
<pdfrwt beam="2">  1       -1 0.22047553E+00 0.22134918E+04</pdfrwt>
<totfact> 0.35839365E+00</totfact>
</mgrwt>
</event>
<event>
12    7  0.2492439E-007  0.2057149E+04  0.7818608E-02  0.8580358E-01
          2   -1    0    0  501    0  0.00000000000E+00  0.00000000000E+00  0.17858555808E+04  0.17858555808E+04  0.00000000000E+00 0. -1.
         -1   -1    0    0    0  501 -0.00000000000E+00 -0.00000000000E+00 -0.59241380379E+03  0.59241380379E+03  0.00000000000E+00 0.  1.
         24    2    1    2    0    0 -0.68233215199E+03 -0.38204533140E+03  0.16618247114E+03  0.80337376041E+03  0.79101101871E+02 0.  0.
        254    2    1    2    0    0  0.68233215199E+03  0.38204533140E+03  0.10272593059E+04  0.15748956242E+04  0.90194165259E+03 0.  0.
         23    2    4    4    0    0  0.15483432319E+03  0.13366182249E+03 -0.14264942412E+03  0.26425229654E+03  0.87414344322E+02 0.  0.
         23    2    4    4    0    0  0.52749782879E+03  0.24838350891E+03  0.11699087300E+04  0.13106433276E+04  0.95661742022E+02 0.  0.
          4    1    3    3  502    0 -0.11803630823E+03 -0.46930791695E+02  0.51797930163E+02  0.13717906122E+03  0.00000000000E+00 0. -1.
         -3    1    3    3    0  502 -0.56429584376E+03 -0.33511453970E+03  0.11438454098E+03  0.66619469918E+03  0.00000000000E+00 0.  1.
         13    1    5    5    0    0 -0.86583427992E+01  0.18720027890E+02 -0.39900253846E+01  0.21007775865E+02  0.00000000000E+00 0. -1.
        -13    1    5    5    0    0  0.16349266599E+03  0.11494179460E+03 -0.13865939874E+03  0.24324452067E+03  0.00000000000E+00 0.  1.
          4    1    6    6  503    0  0.29620221218E+03  0.18728695205E+03  0.73535995681E+03  0.81459586237E+03  0.00000000000E+00 0. -1.
         -4    1    6    6    0  503  0.23129561662E+03  0.61096556861E+02  0.43454877319E+03  0.49604746527E+03  0.00000000000E+00 0.  1.
<mgrwt>
<rscale>  0 0.20571490E+04</rscale>
<asrwt>0</asrwt>
<pdfrwt beam="1">  1        2 0.27474701E+00 0.20571490E+04</pdfrwt>
<pdfrwt beam="2">  1       -1 0.91140586E-01 0.20571490E+04</pdfrwt>
<totfact> 0.10868709E+01</totfact>
</mgrwt>
</event>
<event>
12    7  0.2492439E-007  0.1464013E+04  0.7818608E-02  0.8908743E-01
         -1   -1    0    0    0  501 -0.00000000000E+00  0.00000000000E+00  0.26675601596E+03  0.26675601596E+03  0.00000000000E+00 0.  1.
          2   -1    0    0  501    0  0.00000000000E+00 -0.00000000000E+00 -0.20087034461E+04  0.20087034461E+04  0.00000000000E+00 0. -1.
         24    2    1    2    0    0 -0.20207345768E+03 -0.12236797791E+03  0.51557432544E+02  0.25466428055E+03  0.79925731889E+02 0.  0.
        254    2    1    2    0    0  0.20207345768E+03  0.12236797791E+03 -0.17935048627E+04  0.20207951815E+04  0.90063636879E+03 0.  0.
         23    2    4    4    0    0 -0.18281400177E+03 -0.26124692806E+03 -0.38697829039E+03  0.51020489615E+03  0.94265169365E+02 0.  0.
         23    2    4    4    0    0  0.38488745945E+03  0.38361490597E+03 -0.14065265723E+04  0.15105902853E+04  0.90924469335E+02 0.  0.
          2    1    3    3  502    0 -0.95355800667E+02 -0.60659174190E+02 -0.15919881075E+02  0.11413021838E+03  0.00000000000E+00 0. -1.
         -1    1    3    3    0  502 -0.10671765702E+03 -0.61708803724E+02  0.67477313619E+02  0.14053406217E+03  0.00000000000E+00 0.  1.
         13    1    5    5    0    0 -0.78555365287E+02 -0.56551066820E+02 -0.16171430140E+03  0.18846878747E+03  0.00000000000E+00 0. -1.
        -13    1    5    5    0    0 -0.10425863648E+03 -0.20469586124E+03 -0.22526398899E+03  0.32173610868E+03  0.00000000000E+00 0.  1.
          2    1    6    6  503    0  0.55862391178E+02  0.59659759415E+02 -0.13490146645E+03  0.15772856207E+03  0.00000000000E+00 0. -1.
         -2    1    6    6    0  503  0.32902506827E+03  0.32395514656E+03 -0.12716251058E+04  0.13528617233E+04  0.00000000000E+00 0.  1.
<mgrwt>
<rscale>  0 0.14640133E+04</rscale>
<asrwt>0</asrwt>
<pdfrwt beam="1">  1        2 0.30903130E+00 0.14640133E+04</pdfrwt>
<pdfrwt beam="2">  1       -1 0.41039387E-01 0.14640133E+04</pdfrwt>
<totfact> 0.42385656E+01</totfact>
</mgrwt>
</event>
<event>
12    7  0.2492439E-007  0.1505232E+04  0.7818608E-02  0.8880981E-01
         -3   -1    0    0    0  501 -0.00000000000E+00  0.00000000000E+00  0.14287070248E+04  0.14287070248E+04  0.00000000000E+00 0.  1.
          2   -1    0    0  501    0  0.00000000000E+00 -0.00000000000E+00 -0.39646376054E+03  0.39646376054E+03  0.00000000000E+00 0. -1.
         24    2    1    2    0    0 -0.47077931361E+03 -0.30905345696E+02  0.42203590969E+03  0.63874451841E+03  0.85392904956E+02 0.  0.
        254    2    1    2    0    0  0.47077931361E+03  0.30905345696E+02  0.61020735457E+03  0.11864262669E+04  0.90147987709E+03 0.  0.
         23    2    4    4    0    0  0.42621794973E+02 -0.52266663251E+02 -0.21873414341E+03  0.24567485326E+03  0.89236127977E+02 0.  0.
         23    2    4    4    0    0  0.42815751863E+03  0.83172008947E+02  0.82894149798E+03  0.94075141367E+03  0.87365733687E+02 0.  0.
          4    1    3    3  502    0 -0.15601104870E+03  0.13911751250E+02  0.97920478103E+02  0.18471979908E+03  0.00000000000E+00 0. -1.
         -3    1    3    3    0  502 -0.31476826491E+03 -0.44817096946E+02  0.32411543159E+03  0.45402471933E+03  0.00000000000E+00 0.  1.
         13    1    5    5    0    0  0.54829135816E+02 -0.30424126454E+01 -0.15362543790E+03  0.16314492201E+03  0.00000000000E+00 0.  1.
        -13    1    5    5    0    0 -0.12207340843E+02 -0.49224250605E+02 -0.65108705513E+02  0.82529931247E+02  0.00000000000E+00 0. -1.
          3    1    6    6  503    0  0.28764103509E+03  0.69728571075E+02  0.47455918668E+03  0.55929049729E+03  0.00000000000E+00 0. -1.
         -3    1    6    6    0  503  0.14051648354E+03  0.13443437872E+02  0.35438231130E+03  0.38146091639E+03  0.00000000000E+00 0.  1.
<mgrwt>
<rscale>  0 0.15052316E+04</rscale>
<asrwt>0</asrwt>
<pdfrwt beam="1">  1        2 0.60994425E-01 0.15052316E+04</pdfrwt>
<pdfrwt beam="2">  1       -3 0.21980108E+00 0.15052316E+04</pdfrwt>
<totfact> 0.53460138E+00</totfact>
</mgrwt>
</event>
<event>
12    7  0.2492439E-007  0.4302629E+04  0.7818608E-02  0.7946132E-01
          2   -1    0    0  501    0  0.00000000000E+00  0.00000000000E+00  0.27193725782E+04  0.27193725782E+04  0.00000000000E+00 0. -1.
         -1   -1    0    0    0  501 -0.00000000000E+00 -0.00000000000E+00 -0.17019200745E+04  0.17019200745E+04  0.00000000000E+00 0.  1.
         24    2    1    2    0    0 -0.17506028226E+04 -0.72469692100E+03  0.13078371107E+04  0.23036285166E+04  0.80439820687E+02 0.  0.
        254    2    1    2    0    0  0.17506028226E+04  0.72469692100E+03 -0.29038460691E+03  0.21176641361E+04  0.90021236582E+03 0.  0.
         23    2    4    4    0    0  0.87467434996E+03  0.32773611934E+03 -0.58721593141E+03  0.11071385750E+04  0.92016801585E+02 0.  0.
         23    2    4    4    0    0  0.87592847261E+03  0.39696080167E+03  0.29683132450E+03  0.10105255611E+04  0.90689068637E+02 0.  0.
          2    1    3    3  502    0 -0.73577377451E+03 -0.33562968878E+03  0.52455608360E+03  0.96393434428E+03  0.00000000000E+00 0. -1.
         -1    1    3    3    0  502 -0.10148290481E+04 -0.38906723223E+03  0.78328102707E+03  0.13396941723E+04  0.00000000000E+00 0.  1.
         13    1    5    5    0    0  0.77609348019E+03  0.30074438962E+03 -0.55327746600E+03  0.99944196043E+03  0.00000000000E+00 0. -1.
        -13    1    5    5    0    0  0.98580869768E+02  0.26991729718E+02 -0.33938465411E+02  0.10769661458E+03  0.00000000000E+00 0.  1.
          2    1    6    6  503    0  0.81700064495E+03  0.38907284236E+03  0.29207825546E+03  0.95088245216E+03  0.00000000000E+00 0. -1.
         -2    1    6    6    0  503  0.58927827659E+02  0.78879593103E+01  0.47530690420E+01  0.59643108907E+02  0.00000000000E+00 0.  1.
<mgrwt>
<rscale>  0 0.43026293E+04</rscale>
<asrwt>0</asrwt>
<pdfrwt beam="1">  1        2 0.41836501E+00 0.43026293E+04</pdfrwt>
<pdfrwt beam="2">  1       -1 0.26183386E+00 0.43026293E+04</pdfrwt>
<totfact> 0.13204382E-01</totfact>
</mgrwt>
</event>
<event>
12    7  0.2492439E-007  0.1237256E+04  0.7818608E-02  0.9080857E-01
          2   -1    0    0  501    0  0.00000000000E+00  0.00000000000E+00  0.14735009537E+04  0.14735009537E+04  0.00000000000E+00 0. -1.
         -1   -1    0    0    0  501 -0.00000000000E+00 -0.00000000000E+00 -0.25972192108E+03  0.25972192108E+03  0.00000000000E+00 0.  1.
         24    2    1    2    0    0 -0.22777031352E+02 -0.25670118731E+03  0.12439550039E+03  0.29710999389E+03  0.79911295995E+02 0.  0.
        254    2    1    2    0    0  0.22777031352E+02  0.25670118731E+03  0.10893835323E+04  0.14361128809E+04  0.89958292207E+03 0.  0.
         23    2    4    4    0    0 -0.27204105310E+02 -0.32578994780E+03  0.46719244656E+03  0.57730489309E+03  0.90183169342E+02 0.  0.
         23    2    4    4    0    0  0.49981136663E+02  0.58249113511E+03  0.62219108570E+03  0.85880798784E+03  0.92926725714E+02 0.  0.
          2    1    3    3  502    0  0.12600641368E+02 -0.11708363027E+03  0.92113215560E+02  0.14950651197E+03  0.00000000000E+00 0. -1.
         -1    1    3    3    0  502 -0.35377672720E+02 -0.13961755704E+03  0.32282284826E+02  0.14760348192E+03  0.00000000000E+00 0.  1.
         13    1    5    5    0    0 -0.11286198000E+02 -0.98155335555E+02  0.76907842020E+02  0.12520648676E+03  0.00000000000E+00 0. -1.
        -13    1    5    5    0    0 -0.15917907310E+02 -0.22763461224E+03  0.39028460454E+03  0.45209840633E+03  0.00000000000E+00 0.  1.
          1    1    6    6  503    0  0.13712726989E+02  0.41888011797E+03  0.49391591674E+03  0.64776656669E+03  0.00000000000E+00 0. -1.
         -1    1    6    6    0  503  0.36268409674E+02  0.16361101714E+03  0.12827516896E+03  0.21104142115E+03  0.00000000000E+00 0.  1.
<mgrwt>
<rscale>  0 0.12372558E+04</rscale>
<asrwt>0</asrwt>
<pdfrwt beam="1">  1        2 0.22669245E+00 0.12372558E+04</pdfrwt>
<pdfrwt beam="2">  1       -1 0.39957220E-01 0.12372558E+04</pdfrwt>
<totfact> 0.89906847E+01</totfact>
</mgrwt>
</event>
<event>
12    7  0.2492439E-007  0.1517334E+04  0.7818608E-02  0.8873007E-01
         -1   -1    0    0    0  501 -0.00000000000E+00  0.00000000000E+00  0.45799314123E+03  0.45799314123E+03  0.00000000000E+00 0.  1.
          2   -1    0    0  501    0  0.00000000000E+00 -0.00000000000E+00 -0.12567338018E+04  0.12567338018E+04  0.00000000000E+00 0. -1.
         24    2    1    2    0    0 -0.43852914010E+03 -0.57581111853E+02 -0.28624631072E+02  0.45046006925E+03  0.80445716606E+02 0.  0.
        254    2    1    2    0    0  0.43852914010E+03  0.57581111853E+02 -0.77011602952E+03  0.12642668738E+04  0.89981589122E+03 0.  0.
         23    2    4    4    0    0  0.17284845057E+03 -0.40563413330E+03 -0.25785038761E+03  0.51842296046E+03  0.88656114166E+02 0.  0.
         23    2    4    4    0    0  0.26568068953E+03  0.46321524515E+03 -0.51226564191E+03  0.74584391334E+03  0.93340575583E+02 0.  0.
          2    1    3    3  502    0 -0.35144644796E+03 -0.60648005435E+02 -0.51576992853E+02  0.36035117946E+03  0.00000000000E+00 0. -1.
         -1    1    3    3    0  502 -0.87082692144E+02  0.30668935826E+01  0.22952361782E+02  0.90108889787E+02  0.00000000000E+00 0.  1.
         13    1    5    5    0    0  0.17580584679E+03 -0.35130821933E+03 -0.20742009828E+03  0.44423896487E+03  0.00000000000E+00 0. -1.
        -13    1    5    5    0    0 -0.29573962115E+01 -0.54325913967E+02 -0.50430289326E+02  0.74183995593E+02  0.00000000000E+00 0.  1.
          3    1    6    6  503    0  0.67870980180E+02  0.17023069992E+03 -0.12698409608E+03  0.22295721967E+03  0.00000000000E+00 0. -1.
         -3    1    6    6    0  503  0.19780970935E+03  0.29298454524E+03 -0.38528154583E+03  0.52288669367E+03  0.00000000000E+00 0.  1.
<mgrwt>
<rscale>  0 0.15173338E+04</rscale>
<asrwt>0</asrwt>
<pdfrwt beam="1">  1        2 0.19334366E+00 0.15173338E+04</pdfrwt>
<pdfrwt beam="2">  1       -1 0.70460484E-01 0.15173338E+04</pdfrwt>
<totfact> 0.39250212E+01</totfact>
</mgrwt>
</event>
<event>
12    7  0.2492439E-007  0.1346995E+04  0.7818608E-02  0.8993106E-01
          2   -1    0    0  501    0  0.00000000000E+00  0.00000000000E+00  0.52701182332E+03  0.52701182332E+03  0.00000000000E+00 0. -1.
         -1   -1    0    0    0  501 -0.00000000000E+00 -0.00000000000E+00 -0.86069941855E+03  0.86069941855E+03  0.00000000000E+00 0.  1.
         24    2    1    2    0    0 -0.15059580366E+03  0.10977100210E+03 -0.41637256849E+03  0.46251781606E+03  0.76340326147E+02 0.  0.
        254    2    1    2    0    0  0.15059580366E+03 -0.10977100210E+03  0.82684973254E+02  0.92519342581E+03  0.90245071964E+03 0.  0.
         23    2    4    4    0    0  0.97534498005E+02  0.11587126123E+02 -0.39712538158E+03  0.41907523845E+03  0.90929901546E+02 0.  0.
         23    2    4    4    0    0  0.53061305658E+02 -0.12135812823E+03  0.47981035483E+03  0.50611818736E+03  0.91620661038E+02 0.  0.
          2    1    3    3  502    0 -0.11243687805E+02  0.46349802828E+02 -0.84496254157E+02  0.97027530651E+02  0.00000000000E+00 0. -1.
         -1    1    3    3    0  502 -0.13935211586E+03  0.63421199275E+02 -0.33187631433E+03  0.36549028541E+03  0.00000000000E+00 0.  1.
         13    1    5    5    0    0  0.58477927498E+02 -0.82559557250E+01 -0.82755315014E+02  0.10166745287E+03  0.00000000000E+00 0. -1.
        -13    1    5    5    0    0  0.39056570507E+02  0.19843081848E+02 -0.31437006656E+03  0.31740778558E+03  0.00000000000E+00 0.  1.
          4    1    6    6  503    0  0.72401256370E+02 -0.53522177413E+02  0.28816621051E+03  0.30190450523E+03  0.00000000000E+00 0.  1.
         -4    1    6    6    0  503 -0.19339950712E+02 -0.67835950812E+02  0.19164414432E+03  0.20421368213E+03  0.00000000000E+00 0. -1.
<mgrwt>
<rscale>  0 0.13469948E+04</rscale>
<asrwt>0</asrwt>
<pdfrwt beam="1">  1        2 0.81078742E-01 0.13469948E+04</pdfrwt>
<pdfrwt beam="2">  1       -1 0.13241529E+00 0.13469948E+04</pdfrwt>
<totfact> 0.31309494E+01</totfact>
</mgrwt>
</event>
<event>
12    7  0.2492439E-007  0.2608694E+04  0.7818608E-02  0.8365254E-01
          4   -1    0    0  501    0  0.00000000000E+00  0.00000000000E+00  0.10277909827E+04  0.10277909827E+04  0.00000000000E+00 0. -1.
         -1   -1    0    0    0  501 -0.00000000000E+00 -0.00000000000E+00 -0.16553186787E+04  0.16553186787E+04  0.00000000000E+00 0.  1.
         24    2    1    2    0    0 -0.10176643526E+04 -0.22660813382E+03 -0.76996437926E+03  0.12984493446E+04  0.78317139318E+02 0.  0.
        254    2    1    2    0    0  0.10176643526E+04  0.22660813382E+03  0.14243668325E+03  0.13846603168E+04  0.90000222405E+03 0.  0.
         23    2    4    4    0    0  0.61876773297E+03  0.53609861107E+03 -0.76195781263E+02  0.82719393668E+03  0.90381323509E+02 0.  0.
         23    2    4    4    0    0  0.39889661966E+03 -0.30949047725E+03  0.21863246452E+03  0.55746638013E+03  0.89809474748E+02 0.  0.
          2    1    3    3  502    0 -0.24292067377E+03 -0.80042859959E+02 -0.16150609459E+03  0.30249220116E+03  0.00000000000E+00 0. -1.
         -1    1    3    3    0  502 -0.77474367886E+03 -0.14656527386E+03 -0.60845828467E+03  0.99595714346E+03  0.00000000000E+00 0.  1.
         13    1    5    5    0    0  0.21351964827E+03  0.13448692789E+03 -0.40115008827E+02  0.25551240264E+03  0.00000000000E+00 0.  1.
        -13    1    5    5    0    0  0.40524808471E+03  0.40161168318E+03 -0.36080772436E+02  0.57168153404E+03  0.00000000000E+00 0. -1.
          4    1    6    6  503    0  0.39871503344E+03 -0.29094123589E+03  0.20505975307E+03  0.53448104079E+03  0.00000000000E+00 0. -1.
         -4    1    6    6    0  503  0.18158621291E+00 -0.18549241363E+02  0.13572711447E+02  0.22985339343E+02  0.00000000000E+00 0.  1.
<mgrwt>
<rscale>  0 0.26086944E+04</rscale>
<asrwt>0</asrwt>
<pdfrwt beam="1">  1        4 0.15812169E+00 0.26086944E+04</pdfrwt>
<pdfrwt beam="2">  1       -1 0.25466441E+00 0.26086944E+04</pdfrwt>
<totfact> 0.61462023E-02</totfact>
</mgrwt>
</event>
<event>
12    7  0.2492439E-007  0.5021428E+04  0.7818608E-02  0.7825210E-01
         -1   -1    0    0    0  501 -0.00000000000E+00  0.00000000000E+00  0.21207979755E+04  0.21207979755E+04  0.00000000000E+00 0.  1.
          2   -1    0    0  501    0  0.00000000000E+00 -0.00000000000E+00 -0.29723170758E+04  0.29723170758E+04  0.00000000000E+00 0. -1.
         24    2    1    2    0    0  0.22840157827E+04 -0.55349526285E+03  0.21147621915E+03  0.23609900163E+04  0.80414949796E+02 0.  0.
        254    2    1    2    0    0 -0.22840157827E+04  0.55349526285E+03 -0.10629953195E+04  0.27321250350E+04  0.90081244215E+03 0.  0.
         23    2    4    4    0    0 -0.42503042187E+03 -0.12065480597E+03  0.61360608473E+02  0.45560921400E+03  0.92769552597E+02 0.  0.
         23    2    4    4    0    0 -0.18589853608E+04  0.67415006883E+03 -0.11243559279E+04  0.22765158210E+04  0.89683573755E+02 0.  0.
          2    1    3    3  502    0  0.55491561987E+03 -0.11523358097E+03  0.22044275168E+02  0.56718257504E+03  0.00000000000E+00 0. -1.
         -1    1    3    3    0  502  0.17291001628E+04 -0.43826168188E+03  0.18943194399E+03  0.17938074413E+04  0.00000000000E+00 0.  1.
         13    1    5    5    0    0 -0.27936109594E+03 -0.33326426878E+02  0.30536549192E+02  0.28299426406E+03  0.00000000000E+00 0. -1.
        -13    1    5    5    0    0 -0.14566932593E+03 -0.87328379095E+02  0.30824059281E+02  0.17261494994E+03  0.00000000000E+00 0.  1.
          4    1    6    6  503    0 -0.33065566461E+03  0.13349666452E+03 -0.16650737059E+03  0.39354698886E+03  0.00000000000E+00 0.  1.
         -4    1    6    6    0  503 -0.15283296962E+04  0.54065340431E+03 -0.95784855736E+03  0.18829688321E+04  0.00000000000E+00 0. -1.
<mgrwt>
<rscale>  0 0.50214277E+04</rscale>
<asrwt>0</asrwt>
<pdfrwt beam="1">  1        2 0.45727955E+00 0.50214277E+04</pdfrwt>
<pdfrwt beam="2">  1       -1 0.32627661E+00 0.50214277E+04</pdfrwt>
<totfact> 0.33322674E-02</totfact>
</mgrwt>
</event>
<event>
12    7  0.2492439E-007  0.2385644E+04  0.7818608E-02  0.8444898E-01
         -1   -1    0    0    0  501 -0.00000000000E+00  0.00000000000E+00  0.88045051410E+03  0.88045051410E+03  0.00000000000E+00 0.  1.
          2   -1    0    0  501    0  0.00000000000E+00 -0.00000000000E+00 -0.16160180685E+04  0.16160180685E+04  0.00000000000E+00 0. -1.
         24    2    1    2    0    0 -0.40048071732E+03 -0.89181487146E+03 -0.62514741919E+03  0.11630334884E+04  0.78224225830E+02 0.  0.
        254    2    1    2    0    0  0.40048071732E+03  0.89181487146E+03 -0.11042013521E+03  0.13334350942E+04  0.90007664913E+03 0.  0.
         23    2    4    4    0    0  0.59548523651E+02  0.86481943778E+02 -0.38735218764E+03  0.41163918642E+03  0.91542062809E+02 0.  0.
         23    2    4    4    0    0  0.34093219367E+03  0.80533292768E+03  0.27693205243E+03  0.92179590779E+03  0.90666691073E+02 0.  0.
          2    1    3    3  502    0 -0.33317269351E+03 -0.79963109846E+03 -0.56185159434E+03  0.10325169013E+04  0.00000000000E+00 0. -1.
         -1    1    3    3    0  502 -0.67308023816E+02 -0.92183772993E+02 -0.63295824857E+02  0.13051658714E+03  0.00000000000E+00 0.  1.
         13    1    5    5    0    0  0.43966114453E+02 -0.69340363728E+01 -0.11718481499E+03  0.12535302527E+03  0.00000000000E+00 0. -1.
        -13    1    5    5    0    0  0.15582409198E+02  0.93415980151E+02 -0.27016737265E+03  0.28628616115E+03  0.00000000000E+00 0.  1.
          3    1    6    6  503    0  0.26263702768E+03  0.67522116285E+03  0.20017328156E+03  0.75164564105E+03  0.00000000000E+00 0. -1.
         -3    1    6    6    0  503  0.78295165994E+02  0.13011176483E+03  0.76758770861E+02  0.17015026673E+03  0.00000000000E+00 0.  1.
<mgrwt>
<rscale>  0 0.23856437E+04</rscale>
<asrwt>0</asrwt>
<pdfrwt beam="1">  1        2 0.24861816E+00 0.23856437E+04</pdfrwt>
<pdfrwt beam="2">  1       -1 0.13545393E+00 0.23856437E+04</pdfrwt>
<totfact> 0.51149753E+00</totfact>
</mgrwt>
</event>
<event>
12    7  0.2832552E-007  0.2766155E+04  0.7818608E-02  0.8313854E-01
         -1   -1    0    0    0  501 -0.00000000000E+00  0.00000000000E+00  0.11762478741E+04  0.11762478741E+04  0.00000000000E+00 0.  1.
          2   -1    0    0  501    0  0.00000000000E+00 -0.00000000000E+00 -0.16262758248E+04  0.16262758248E+04  0.00000000000E+00 0. -1.
         24    2    1    2    0    0 -0.96058015677E+02 -0.95683976563E+03  0.58438282883E+03  0.11281097127E+04  0.79741794949E+02 0.  0.
        254    2    1    2    0    0  0.96058015677E+02  0.95683976563E+03 -0.10344107795E+04  0.16744139861E+04  0.89938148558E+03 0.  0.
         23    2    4    4    0    0  0.20220234804E+03 -0.50477149771E+01 -0.54008070816E+03  0.58395561069E+03  0.91682686182E+02 0.  0.
         23    2    4    4    0    0 -0.10614433236E+03  0.96188748061E+03 -0.49433007139E+03  0.10904583754E+04  0.90791543824E+02 0.  0.
          2    1    3    3  502    0 -0.81058299435E+02 -0.74604558929E+03  0.41691027589E+03  0.85846878065E+03  0.00000000000E+00 0. -1.
         -1    1    3    3    0  502 -0.14999716243E+02 -0.21079417634E+03  0.16747255294E+03  0.26964093208E+03  0.00000000000E+00 0.  1.
         13    1    5    5    0    0  0.52477577324E+02 -0.25494125203E+02 -0.25178469181E+03  0.25845575554E+03  0.00000000000E+00 0.  1.
        -13    1    5    5    0    0  0.14972477071E+03  0.20446410226E+02 -0.28829601635E+03  0.32549985515E+03  0.00000000000E+00 0. -1.
          1    1    6    6  503    0 -0.13247966244E+02  0.53011560448E+03 -0.26461766837E+03  0.59263865309E+03  0.00000000000E+00 0.  1.
         -1    1    6    6    0  503 -0.92896366117E+02  0.43177187612E+03 -0.22971240302E+03  0.49781972234E+03  0.00000000000E+00 0. -1.
<mgrwt>
<rscale>  0 0.27661551E+04</rscale>
<asrwt>0</asrwt>
<pdfrwt beam="1">  1        2 0.25019628E+00 0.27661551E+04</pdfrwt>
<pdfrwt beam="2">  1       -1 0.18096121E+00 0.27661551E+04</pdfrwt>
<totfact> 0.21937791E+00</totfact>
</mgrwt>
</event>
<event>
12    7  0.2492439E-007  0.2665285E+04  0.7818608E-02  0.8346358E-01
         -1   -1    0    0    0  501 -0.00000000000E+00  0.00000000000E+00  0.11840928997E+04  0.11840928997E+04  0.00000000000E+00 0.  1.
          2   -1    0    0  501    0  0.00000000000E+00 -0.00000000000E+00 -0.14998278662E+04  0.14998278662E+04  0.00000000000E+00 0. -1.
         24    2    1    2    0    0  0.61683137943E+03 -0.22900281835E+03 -0.11226336697E+04  0.13037519774E+04  0.80867922602E+02 0.  0.
        254    2    1    2    0    0 -0.61683137943E+03  0.22900281835E+03  0.80689870316E+03  0.13801687884E+04  0.90601165878E+03 0.  0.
         23    2    4    4    0    0 -0.21328643242E+03  0.50815823147E+03  0.19712404645E+03  0.59245047365E+03  0.91781172206E+02 0.  0.
         23    2    4    4    0    0 -0.40354494701E+03 -0.27915541312E+03  0.60977465671E+03  0.78771831475E+03  0.88874869859E+02 0.  0.
          2    1    3    3  502    0  0.24870340724E+03 -0.12543529573E+03 -0.52303922114E+03  0.59258537363E+03  0.00000000000E+00 0. -1.
         -1    1    3    3    0  502  0.36812797219E+03 -0.10356752262E+03 -0.59959444851E+03  0.71116660379E+03  0.00000000000E+00 0.  1.
         13    1    5    5    0    0 -0.53947558058E+02  0.15978657035E+03  0.10426155039E+03  0.19827394678E+03  0.00000000000E+00 0.  1.
        -13    1    5    5    0    0 -0.15933887436E+03  0.34837166112E+03  0.92862496061E+02  0.39417652686E+03  0.00000000000E+00 0. -1.
          2    1    6    6  503    0 -0.16152600305E+03 -0.81861719546E+02  0.28102070505E+03  0.33431217066E+03  0.00000000000E+00 0. -1.
         -2    1    6    6    0  503 -0.24201894397E+03 -0.19729369357E+03  0.32875395166E+03  0.45340614409E+03  0.00000000000E+00 0.  1.
<mgrwt>
<rscale>  0 0.26652846E+04</rscale>
<asrwt>0</asrwt>
<pdfrwt beam="1">  1        2 0.23074275E+00 0.26652846E+04</pdfrwt>
<pdfrwt beam="2">  1       -1 0.18216814E+00 0.26652846E+04</pdfrwt>
<totfact> 0.25545339E+00</totfact>
</mgrwt>
</event>
<event>
12    7  0.2492439E-007  0.3763417E+04  0.7818608E-02  0.8054051E-01
          2   -1    0    0  501    0  0.00000000000E+00  0.00000000000E+00  0.28489344694E+04  0.28489344694E+04  0.00000000000E+00 0. -1.
         -1   -1    0    0    0  501 -0.00000000000E+00 -0.00000000000E+00 -0.12428599749E+04  0.12428599749E+04  0.00000000000E+00 0.  1.
         24    2    1    2    0    0  0.17184018493E+04  0.30889233991E+03  0.42322658198E+03  0.17983871202E+04  0.82195504802E+02 0.  0.
        254    2    1    2    0    0 -0.17184018493E+04 -0.30889233991E+03  0.11828479125E+04  0.22934073242E+04  0.90125943939E+03 0.  0.
         23    2    4    4    0    0 -0.56765259570E+03  0.19018687494E+03  0.74862697846E+03  0.96301475144E+03  0.92490766019E+02 0.  0.
         23    2    4    4    0    0 -0.11507492536E+04 -0.49907921485E+03  0.43422093405E+03  0.13303925727E+04  0.89959272267E+02 0.  0.
          4    1    3    3  502    0  0.91552481822E+03  0.16588143674E+03  0.26768377009E+03  0.96817196025E+03  0.00000000000E+00 0. -1.
         -3    1    3    3    0  502  0.80287703106E+03  0.14301090316E+03  0.15554281189E+03  0.83021515992E+03  0.00000000000E+00 0.  1.
         13    1    5    5    0    0 -0.41451522203E+03  0.10097473053E+03  0.56269960083E+03  0.70615126303E+03  0.00000000000E+00 0. -1.
        -13    1    5    5    0    0 -0.15313737367E+03  0.89212144410E+02  0.18592737763E+03  0.25686348841E+03  0.00000000000E+00 0.  1.
          4    1    6    6  503    0 -0.11339665352E+04 -0.49632541333E+03  0.41697836095E+03  0.13061737911E+04  0.00000000000E+00 0. -1.
         -4    1    6    6    0  503 -0.16782718347E+02 -0.27538015163E+01  0.17242573102E+02  0.24218781660E+02  0.00000000000E+00 0.  1.
<mgrwt>
<rscale>  0 0.37634169E+04</rscale>
<asrwt>0</asrwt>
<pdfrwt beam="1">  1        2 0.43829761E+00 0.37634169E+04</pdfrwt>
<pdfrwt beam="2">  1       -1 0.19120923E+00 0.37634169E+04</pdfrwt>
<totfact> 0.34163664E-01</totfact>
</mgrwt>
</event>
<event>
12    7  0.2492439E-007  0.1465697E+04  0.7818608E-02  0.8907590E-01
         -1   -1    0    0    0  501 -0.00000000000E+00  0.00000000000E+00  0.18872290990E+03  0.18872290990E+03  0.00000000000E+00 0.  1.
          2   -1    0    0  501    0  0.00000000000E+00 -0.00000000000E+00 -0.28457942397E+04  0.28457942397E+04  0.00000000000E+00 0. -1.
         24    2    1    2    0    0 -0.31658986282E+03 -0.12877315830E+03 -0.14397755539E+04  0.14819107013E+04  0.79334819012E+02 0.  0.
        254    2    1    2    0    0  0.31658986282E+03  0.12877315830E+03 -0.12172957759E+04  0.15526064483E+04  0.90109162114E+03 0.  0.
         23    2    4    4    0    0  0.50353865519E+03  0.29419621603E+03 -0.46111557719E+03  0.75053661068E+03  0.10283500204E+03 0.  0.
         23    2    4    4    0    0 -0.18694879237E+03 -0.16542305772E+03 -0.75618019870E+03  0.80206983760E+03  0.95879572788E+02 0.  0.
          2    1    3    3  502    0 -0.31868772620E+03 -0.13290539602E+03 -0.14039878589E+04  0.14458242006E+04  0.00000000000E+00 0. -1.
         -1    1    3    3    0  502  0.20978633888E+01  0.41322377216E+01 -0.35787694995E+02  0.36086500696E+02  0.00000000000E+00 0.  1.
         13    1    5    5    0    0  0.33802580963E+03  0.15805600345E+03 -0.33745083803E+03  0.50310656554E+03  0.00000000000E+00 0. -1.
        -13    1    5    5    0    0  0.16551284556E+03  0.13614021257E+03 -0.12366473916E+03  0.24743004514E+03  0.00000000000E+00 0.  1.
          2    1    6    6  503    0 -0.15971222669E+03 -0.10704669226E+03 -0.45286341650E+03  0.49198807271E+03  0.00000000000E+00 0. -1.
         -2    1    6    6    0  503 -0.27236565685E+02 -0.58376365465E+02 -0.30331678220E+03  0.31008176489E+03  0.00000000000E+00 0.  1.
<mgrwt>
<rscale>  0 0.14656965E+04</rscale>
<asrwt>0</asrwt>
<pdfrwt beam="1">  1        2 0.43781450E+00 0.14656965E+04</pdfrwt>
<pdfrwt beam="2">  1       -1 0.29034294E-01 0.14656965E+04</pdfrwt>
<totfact> 0.26015086E+01</totfact>
</mgrwt>
</event>
<event>
12    7  0.2492439E-007  0.2340539E+04  0.7818608E-02  0.8462107E-01
          2   -1    0    0  501    0  0.00000000000E+00  0.00000000000E+00  0.26746795166E+04  0.26746795166E+04  0.00000000000E+00 0. -1.
         -1   -1    0    0    0  501 -0.00000000000E+00 -0.00000000000E+00 -0.51203535707E+03  0.51203535707E+03  0.00000000000E+00 0.  1.
         24    2    1    2    0    0  0.79694268743E+02  0.85243804705E+03  0.23212103526E+03  0.89071041077E+03  0.80517453445E+02 0.  0.
        254    2    1    2    0    0 -0.79694268743E+02 -0.85243804705E+03  0.19305231243E+04  0.22960044629E+04  0.90095236266E+03 0.  0.
         23    2    4    4    0    0 -0.23538813934E+03 -0.56534122151E+03  0.42034988776E+03  0.74817544483E+03  0.89745168210E+02 0.  0.
         23    2    4    4    0    0  0.15569387059E+03 -0.28709682554E+03  0.15101732365E+04  0.15478290181E+04  0.92121096081E+02 0.  0.
          4    1    3    3  502    0  0.93243219606E+02  0.80876139836E+03  0.22255752664E+03  0.84399120264E+03  0.00000000000E+00 0. -1.
         -3    1    3    3    0  502 -0.13548950863E+02  0.43676648693E+02  0.95635086111E+01  0.46719208121E+02  0.00000000000E+00 0.  1.
         13    1    5    5    0    0 -0.13561341493E+03 -0.27771391321E+03  0.16228317447E+03  0.34907283569E+03  0.00000000000E+00 0. -1.
        -13    1    5    5    0    0 -0.99774724409E+02 -0.28762730831E+03  0.25806671329E+03  0.39910260914E+03  0.00000000000E+00 0.  1.
          3    1    6    6  503    0  0.57938117807E+02 -0.17316954797E+03  0.67458341461E+03  0.69886143198E+03  0.00000000000E+00 0. -1.
         -3    1    6    6    0  503  0.97755752787E+02 -0.11392727757E+03  0.83558982192E+03  0.84896758611E+03  0.00000000000E+00 0.  1.
<mgrwt>
<rscale>  0 0.23405388E+04</rscale>
<asrwt>0</asrwt>
<pdfrwt beam="1">  1        2 0.41148915E+00 0.23405388E+04</pdfrwt>
<pdfrwt beam="2">  1       -1 0.78774672E-01 0.23405388E+04</pdfrwt>
<totfact> 0.45562538E+00</totfact>
</mgrwt>
</event>
<event>
12    7  0.2492439E-007  0.1450480E+04  0.7818608E-02  0.8918068E-01
         -1   -1    0    0    0  501 -0.00000000000E+00  0.00000000000E+00  0.11759793205E+04  0.11759793205E+04  0.00000000000E+00 0.  1.
          2   -1    0    0  501    0  0.00000000000E+00 -0.00000000000E+00 -0.44726395941E+03  0.44726395941E+03  0.00000000000E+00 0. -1.
         24    2    1    2    0    0  0.29522378065E+03 -0.91093553692E+02  0.57896919120E+03  0.66115030504E+03  0.80369679028E+02 0.  0.
        254    2    1    2    0    0 -0.29522378065E+03  0.91093553692E+02  0.14974616983E+03  0.96209297482E+03  0.89874571522E+03 0.  0.
         23    2    4    4    0    0  0.12776122565E+03  0.60622130574E+02  0.41833504313E+03  0.45162621796E+03  0.94678714320E+02 0.  0.
         23    2    4    4    0    0 -0.42298500630E+03  0.30471423118E+02 -0.26858887329E+03  0.51046675686E+03  0.92690365311E+02 0.  0.
          2    1    3    3  502    0  0.14419739099E+03 -0.69953610825E+02  0.23018211630E+03  0.28048208838E+03  0.00000000000E+00 0. -1.
         -1    1    3    3    0  502  0.15102638966E+03 -0.21139942866E+02  0.34878707490E+03  0.38066821666E+03  0.00000000000E+00 0.  1.
         13    1    5    5    0    0  0.11770326241E+02  0.35550972777E+02  0.19658043419E+03  0.20011566494E+03  0.00000000000E+00 0. -1.
        -13    1    5    5    0    0  0.11599089941E+03  0.25071157797E+02  0.22175460893E+03  0.25151055302E+03  0.00000000000E+00 0.  1.
          2    1    6    6  503    0 -0.30440166254E+03  0.35582338632E+02 -0.23761600334E+03  0.38779871071E+03  0.00000000000E+00 0. -1.
         -2    1    6    6    0  503 -0.11858334376E+03 -0.51109155141E+01 -0.30972869949E+02  0.12266804615E+03  0.00000000000E+00 0.  1.
<mgrwt>
<rscale>  0 0.14504802E+04</rscale>
<asrwt>0</asrwt>
<pdfrwt beam="1">  1        2 0.68809840E-01 0.14504802E+04</pdfrwt>
<pdfrwt beam="2">  1       -1 0.18091989E+00 0.14504802E+04</pdfrwt>
<totfact> 0.15919736E+01</totfact>
</mgrwt>
</event>
<event>
12    7  0.2492439E-007  0.2836698E+04  0.7818608E-02  0.8291965E-01
         -3   -1    0    0    0  501 -0.00000000000E+00  0.00000000000E+00  0.60781446316E+03  0.60781446316E+03  0.00000000000E+00 0.  1.
          2   -1    0    0  501    0  0.00000000000E+00 -0.00000000000E+00 -0.33097489598E+04  0.33097489598E+04  0.00000000000E+00 0. -1.
         24    2    1    2    0    0 -0.93683651883E+03  0.83749392303E+03 -0.89852551257E+03  0.15468195034E+04  0.79017373675E+02 0.  0.
        254    2    1    2    0    0  0.93683651883E+03 -0.83749392303E+03 -0.18034089841E+04  0.23707439195E+04  0.88830402115E+03 0.  0.
         23    2    4    4    0    0  0.92500640758E+03 -0.57583848611E+03 -0.87018618552E+03  0.13974700221E+04  0.92041561858E+02 0.  0.
         23    2    4    4    0    0  0.11830111257E+02 -0.26165543692E+03 -0.93322279854E+03  0.97327389739E+03  0.88055484978E+02 0.  0.
          4    1    3    3  502    0 -0.38832053783E+03  0.32276227916E+03 -0.40319756877E+03  0.64617072699E+03  0.00000000000E+00 0. -1.
         -3    1    3    3    0  502 -0.54851598100E+03  0.51473164386E+03 -0.49532794379E+03  0.90064877644E+03  0.00000000000E+00 0.  1.
         13    1    5    5    0    0  0.25926944484E+03 -0.11399538350E+03 -0.22751830041E+03  0.36329075065E+03  0.00000000000E+00 0. -1.
        -13    1    5    5    0    0  0.66573696273E+03 -0.46184310261E+03 -0.64266788511E+03  0.10341792715E+04  0.00000000000E+00 0.  1.
          3    1    6    6  503    0  0.19966993614E+02 -0.19127948727E+03 -0.52865665392E+03  0.56255166946E+03  0.00000000000E+00 0. -1.
         -3    1    6    6    0  503 -0.81368823575E+01 -0.70375949652E+02 -0.40456614462E+03  0.41072222793E+03  0.00000000000E+00 0.  1.
<mgrwt>
<rscale>  0 0.28366976E+04</rscale>
<asrwt>0</asrwt>
<pdfrwt beam="1">  1        2 0.50919215E+00 0.28366976E+04</pdfrwt>
<pdfrwt beam="2">  1       -3 0.93509916E-01 0.28366976E+04</pdfrwt>
<totfact> 0.62293159E-01</totfact>
</mgrwt>
</event>
<event>
12    7  0.2492439E-007  0.1219719E+04  0.7818608E-02  0.9095770E-01
         -1   -1    0    0    0  501 -0.00000000000E+00  0.00000000000E+00  0.22042740359E+03  0.22042740359E+03  0.00000000000E+00 0.  1.
          2   -1    0    0  501    0  0.00000000000E+00 -0.00000000000E+00 -0.16873059413E+04  0.16873059413E+04  0.00000000000E+00 0. -1.
         24    2    1    2    0    0  0.17316452553E+03  0.17326849985E+03 -0.16276575593E+03  0.30484252868E+03  0.80176991999E+02 0.  0.
        254    2    1    2    0    0 -0.17316452553E+03 -0.17326849985E+03 -0.13041127817E+04  0.16028908162E+04  0.89918902081E+03 0.  0.
         23    2    4    4    0    0  0.17232577605E+02 -0.10649467754E+03 -0.13656624978E+04  0.13729962272E+04  0.91904863185E+02 0.  0.
         23    2    4    4    0    0 -0.19039710314E+03 -0.66773822313E+02  0.61549716057E+02  0.22989458900E+03  0.91396686354E+02 0.  0.
          2    1    3    3  502    0  0.10745317189E+02  0.51398407420E+02 -0.50328226259E+02  0.72733681917E+02  0.00000000000E+00 0. -1.
         -1    1    3    3    0  502  0.16241920834E+03  0.12187009243E+03 -0.11243752967E+03  0.23210884677E+03  0.00000000000E+00 0.  1.
         13    1    5    5    0    0  0.25852487733E+01 -0.12063739471E+03 -0.11158026061E+04  0.11223081219E+04  0.00000000000E+00 0. -1.
        -13    1    5    5    0    0  0.14647328832E+02  0.14142717170E+02 -0.24985989165E+03  0.25068810532E+03  0.00000000000E+00 0.  1.
          3    1    6    6  503    0 -0.21103373072E+02  0.19780836593E+02 -0.30458999760E+01  0.29084555317E+02  0.00000000000E+00 0. -1.
         -3    1    6    6    0  503 -0.16929373007E+03 -0.86554658906E+02  0.64595616033E+02  0.20081003369E+03  0.00000000000E+00 0.  1.
<mgrwt>
<rscale>  0 0.12197188E+04</rscale>
<asrwt>0</asrwt>
<pdfrwt beam="1">  1        2 0.25958553E+00 0.12197188E+04</pdfrwt>
<pdfrwt beam="2">  1       -1 0.33911908E-01 0.12197188E+04</pdfrwt>
<totfact> 0.91882541E+01</totfact>
</mgrwt>
</event>
<event>
12    7  0.2749686E-007  0.1761887E+04  0.7818608E-02  0.8726834E-01
         -1   -1    0    0    0  501 -0.00000000000E+00  0.00000000000E+00  0.92451246073E+03  0.92451246073E+03  0.00000000000E+00 0.  1.
          2   -1    0    0  501    0  0.00000000000E+00 -0.00000000000E+00 -0.83942749265E+03  0.83942749265E+03  0.00000000000E+00 0. -1.
         24    2    1    2    0    0  0.52174000633E+03  0.38190714563E+03 -0.50179558229E+01  0.65214242760E+03  0.84846118982E+02 0.  0.
        254    2    1    2    0    0 -0.52174000633E+03 -0.38190714563E+03  0.90102923895E+02  0.11117975258E+04  0.89994972045E+03 0.  0.
         23    2    4    4    0    0 -0.10666404193E+03  0.13812679262E+03 -0.28196637407E+03  0.34405188677E+03  0.91708429311E+02 0.  0.
         23    2    4    4    0    0 -0.41507596440E+03 -0.52003393825E+03  0.37206929796E+03  0.76774563901E+03  0.90964007050E+02 0.  0.
          2    1    3    3  502    0  0.24079593968E+03  0.14825324664E+03 -0.37689959991E+02  0.28527573116E+03  0.00000000000E+00 0. -1.
         -1    1    3    3    0  502  0.28094406665E+03  0.23365389899E+03  0.32672004169E+02  0.36686669644E+03  0.00000000000E+00 0.  1.
         13    1    5    5    0    0 -0.18501033922E+02  0.24401108162E+02 -0.13476879986E+03  0.13820394984E+03  0.00000000000E+00 0. -1.
        -13    1    5    5    0    0 -0.88163008010E+02  0.11372568445E+03 -0.14719757420E+03  0.20584793693E+03  0.00000000000E+00 0.  1.
          3    1    6    6  503    0 -0.29246954858E+03 -0.36063521789E+03  0.30594196407E+03  0.55605456801E+03  0.00000000000E+00 0. -1.
         -3    1    6    6    0  503 -0.12260641582E+03 -0.15939872036E+03  0.66127333895E+02  0.21169107100E+03  0.00000000000E+00 0.  1.
<mgrwt>
<rscale>  0 0.17618867E+04</rscale>
<asrwt>0</asrwt>
<pdfrwt beam="1">  1        2 0.12914269E+00 0.17618867E+04</pdfrwt>
<pdfrwt beam="2">  1       -1 0.14223269E+00 0.17618867E+04</pdfrwt>
<totfact> 0.14032160E+01</totfact>
</mgrwt>
</event>
<event>
12    7  0.2492439E-007  0.2322869E+04  0.7818608E-02  0.8468959E-01
         -1   -1    0    0    0  501 -0.00000000000E+00  0.00000000000E+00  0.96325286545E+03  0.96325286545E+03  0.00000000000E+00 0.  1.
          2   -1    0    0  501    0  0.00000000000E+00 -0.00000000000E+00 -0.14003900626E+04  0.14003900626E+04  0.00000000000E+00 0. -1.
         24    2    1    2    0    0 -0.92608357066E+03  0.19873945434E+03 -0.46278419833E+03  0.10571922886E+04  0.79738135335E+02 0.  0.
        254    2    1    2    0    0  0.92608357066E+03 -0.19873945434E+03  0.25647001228E+02  0.13064506394E+04  0.89945947883E+03 0.  0.
         23    2    4    4    0    0  0.82277082888E+03 -0.20460576904E+03 -0.33802571543E+03  0.91715687003E+03  0.89999902073E+02 0.  0.
         23    2    4    4    0    0  0.10331274178E+03  0.58663146958E+01  0.36367271665E+03  0.38929376941E+03  0.92649111180E+02 0.  0.
          2    1    3    3  502    0 -0.26223558101E+03  0.20038234477E+02 -0.12376351875E+03  0.29066551113E+03  0.00000000000E+00 0. -1.
         -1    1    3    3    0  502 -0.66384798965E+03  0.17870121986E+03 -0.33902067958E+03  0.76652677744E+03  0.00000000000E+00 0.  1.
         13    1    5    5    0    0  0.72458651601E+03 -0.20895544927E+03 -0.29266604892E+03  0.80891372541E+03  0.00000000000E+00 0. -1.
        -13    1    5    5    0    0  0.98184312864E+02  0.43496802328E+01 -0.45359666510E+02  0.10824314462E+03  0.00000000000E+00 0.  1.
          2    1    6    6  503    0  0.34479910183E+02  0.24325060655E+02  0.26053488783E+03  0.26392991600E+03  0.00000000000E+00 0. -1.
         -2    1    6    6    0  503  0.68832831601E+02 -0.18458745960E+02  0.10313782882E+03  0.12536385342E+03  0.00000000000E+00 0.  1.
<mgrwt>
<rscale>  0 0.23228687E+04</rscale>
<asrwt>0</asrwt>
<pdfrwt beam="1">  1        2 0.21544463E+00 0.23228687E+04</pdfrwt>
<pdfrwt beam="2">  1       -1 0.14819275E+00 0.23228687E+04</pdfrwt>
<totfact> 0.53757897E+00</totfact>
</mgrwt>
</event>
<event>
12    7  0.2492439E-007  0.1783376E+04  0.7818608E-02  0.8715190E-01
          2   -1    0    0  501    0  0.00000000000E+00  0.00000000000E+00  0.26930371740E+04  0.26930371740E+04  0.00000000000E+00 0. -1.
         -1   -1    0    0    0  501 -0.00000000000E+00 -0.00000000000E+00 -0.29524576807E+03  0.29524576807E+03  0.00000000000E+00 0.  1.
         24    2    1    2    0    0 -0.30154739705E+03  0.75066205954E+02 -0.82892441807E+02  0.33128856674E+03  0.79468167211E+02 0.  0.
        254    2    1    2    0    0  0.30154739705E+03 -0.75066205954E+02  0.24806838478E+04  0.26569943754E+04  0.89958934530E+03 0.  0.
         23    2    4    4    0    0  0.41799144256E+03  0.21423421487E+03  0.69992905805E+03  0.84683565986E+03  0.81343737609E+02 0.  0.
         23    2    4    4    0    0 -0.11644404551E+03 -0.28930042083E+03  0.17807547897E+04  0.18101587155E+04  0.91285294232E+02 0.  0.
          2    1    3    3  502    0 -0.17458643422E+03  0.29075389197E+02 -0.86768128642E+01  0.17720352241E+03  0.00000000000E+00 0. -1.
         -1    1    3    3    0  502 -0.12696096283E+03  0.45990816757E+02 -0.74215628943E+02  0.15408504434E+03  0.00000000000E+00 0.  1.
         13    1    5    5    0    0  0.21975132650E+03  0.15753278327E+03  0.40622665292E+03  0.48798290631E+03  0.00000000000E+00 0.  1.
        -13    1    5    5    0    0  0.19824011606E+03  0.56701431599E+02  0.29370240512E+03  0.35885275356E+03  0.00000000000E+00 0. -1.
          4    1    6    6  503    0 -0.95470092277E+02 -0.18347914209E+03  0.93835946489E+03  0.96088377000E+03  0.00000000000E+00 0.  1.
         -4    1    6    6    0  503 -0.20973953228E+02 -0.10582127874E+03  0.84239532483E+03  0.84927494550E+03  0.00000000000E+00 0. -1.
<mgrwt>
<rscale>  0 0.17833764E+04</rscale>
<asrwt>0</asrwt>
<pdfrwt beam="1">  1        2 0.41431340E+00 0.17833764E+04</pdfrwt>
<pdfrwt beam="2">  1       -1 0.45422427E-01 0.17833764E+04</pdfrwt>
<totfact> 0.13916522E+01</totfact>
</mgrwt>
</event>
<event>
12    7  0.2492439E-007  0.1630559E+04  0.7818608E-02  0.8801991E-01
         -1   -1    0    0    0  501 -0.00000000000E+00  0.00000000000E+00  0.51049370827E+03  0.51049370827E+03  0.00000000000E+00 0.  1.
          2   -1    0    0  501    0  0.00000000000E+00 -0.00000000000E+00 -0.13020355497E+04  0.13020355497E+04  0.00000000000E+00 0. -1.
         24    2    1    2    0    0  0.37868185610E+03  0.17774634518E+03 -0.69278776580E+03  0.81325776873E+03  0.80247109489E+02 0.  0.
        254    2    1    2    0    0 -0.37868185610E+03 -0.17774634518E+03 -0.98754075611E+02  0.99927148923E+03  0.90210721668E+03 0.  0.
         23    2    4    4    0    0  0.64165132065E+02  0.30536494346E+03  0.24963908047E+02  0.32509953338E+03  0.87758743337E+02 0.  0.
         23    2    4    4    0    0 -0.44284698817E+03 -0.48311128863E+03 -0.12371798366E+03  0.67417195586E+03  0.98446505513E+02 0.  0.
          2    1    3    3  502    0  0.31492751205E+03  0.11414868258E+03 -0.52326675435E+03  0.62130295009E+03  0.00000000000E+00 0. -1.
         -1    1    3    3    0  502  0.63754344048E+02  0.63597662603E+02 -0.16952101145E+03  0.19195481864E+03  0.00000000000E+00 0.  1.
         13    1    5    5    0    0  0.30045400796E+02  0.14466911838E+03 -0.32081249681E+02  0.15119883102E+03  0.00000000000E+00 0. -1.
        -13    1    5    5    0    0  0.34119731269E+02  0.16069582508E+03  0.57045157728E+02  0.17390070235E+03  0.00000000000E+00 0.  1.
          3    1    6    6  503    0 -0.11671808347E+03 -0.69384243126E+02 -0.30709466071E+02  0.13921334530E+03  0.00000000000E+00 0. -1.
         -3    1    6    6    0  503 -0.32612890469E+03 -0.41372704551E+03 -0.93008517587E+02  0.53495861055E+03  0.00000000000E+00 0.  1.
<mgrwt>
<rscale>  0 0.16305594E+04</rscale>
<asrwt>0</asrwt>
<pdfrwt beam="1">  1        2 0.20031316E+00 0.16305594E+04</pdfrwt>
<pdfrwt beam="2">  1       -1 0.78537495E-01 0.16305594E+04</pdfrwt>
<totfact> 0.29171730E+01</totfact>
</mgrwt>
</event>
<event>
12    7  0.2492439E-007  0.1827038E+04  0.7818608E-02  0.8692052E-01
         -1   -1    0    0    0  501 -0.00000000000E+00  0.00000000000E+00  0.10222574444E+04  0.10222574444E+04  0.00000000000E+00 0.  1.
          2   -1    0    0  501    0  0.00000000000E+00 -0.00000000000E+00 -0.81634707954E+03  0.81634707954E+03  0.00000000000E+00 0. -1.
         24    2    1    2    0    0  0.65149460236E+03  0.93826707149E+01  0.30168841891E+03  0.72254772142E+03  0.80784009575E+02 0.  0.
        254    2    1    2    0    0 -0.65149460236E+03 -0.93826707149E+01 -0.95778054101E+02  0.11160568025E+04  0.90104167456E+03 0.  0.
         23    2    4    4    0    0  0.31666286552E+02 -0.29095397905E+03  0.13639359877E+03  0.33557865139E+03  0.91393904940E+02 0.  0.
         23    2    4    4    0    0 -0.68316088892E+03  0.28157130833E+03 -0.23217165287E+03  0.78047815109E+03  0.96183502248E+02 0.  0.
          4    1    3    3  502    0  0.50307718823E+03  0.17563323981E+02  0.19615651422E+03  0.54025226121E+03  0.00000000000E+00 0. -1.
         -3    1    3    3    0  502  0.14841741413E+03 -0.81806532664E+01  0.10553190470E+03  0.18229546021E+03  0.00000000000E+00 0.  1.
         13    1    5    5    0    0  0.15759043245E+02 -0.78750231677E+02 -0.43790122915E+01  0.80430853420E+02  0.00000000000E+00 0. -1.
        -13    1    5    5    0    0  0.15907243308E+02 -0.21220374737E+03  0.14077261106E+03  0.25514779798E+03  0.00000000000E+00 0.  1.
          3    1    6    6  503    0 -0.98197217643E+02  0.25228990245E+02 -0.13930299969E+01  0.10139593697E+03  0.00000000000E+00 0. -1.
         -3    1    6    6    0  503 -0.58496367127E+03  0.25634231809E+03 -0.23077862287E+03  0.67908221411E+03  0.00000000000E+00 0.  1.
<mgrwt>
<rscale>  0 0.18270379E+04</rscale>
<asrwt>0</asrwt>
<pdfrwt beam="1">  1        2 0.12559186E+00 0.18270379E+04</pdfrwt>
<pdfrwt beam="2">  1       -1 0.15727038E+00 0.18270379E+04</pdfrwt>
<totfact> 0.11051762E+01</totfact>
</mgrwt>
</event>
<event>
12    7  0.2492439E-007  0.2354384E+04  0.7818608E-02  0.8456782E-01
         -1   -1    0    0    0  501 -0.00000000000E+00  0.00000000000E+00  0.13004637140E+04  0.13004637140E+04  0.00000000000E+00 0.  1.
          2   -1    0    0  501    0  0.00000000000E+00 -0.00000000000E+00 -0.10656051107E+04  0.10656051107E+04  0.00000000000E+00 0. -1.
         24    2    1    2    0    0  0.80290211883E+03 -0.47681331510E+03 -0.26088082828E+03  0.97283534875E+03  0.79668433782E+02 0.  0.
        254    2    1    2    0    0 -0.80290211883E+03  0.47681331510E+03  0.49573943160E+03  0.13932334760E+04  0.90738039689E+03 0.  0.
         23    2    4    4    0    0 -0.78146528532E+03  0.63519230326E+03  0.17732734716E+03  0.10265274759E+04  0.90312881255E+02 0.  0.
         23    2    4    4    0    0 -0.21436833511E+02 -0.15837898816E+03  0.31841208444E+03  0.36670600004E+03  0.86853861336E+02 0.  0.
          2    1    3    3  502    0  0.10237017562E+03 -0.83921675409E+02 -0.57350643081E+02  0.14426224981E+03  0.00000000000E+00 0. -1.
         -1    1    3    3    0  502  0.70053194321E+03 -0.39289163969E+03 -0.20353018520E+03  0.82857309894E+03  0.00000000000E+00 0.  1.
         13    1    5    5    0    0 -0.49146451457E+03  0.43460952085E+03  0.81363287253E+02  0.66109211855E+03  0.00000000000E+00 0.  1.
        -13    1    5    5    0    0 -0.29000077075E+03  0.20058278241E+03  0.95964059911E+02  0.36543535739E+03  0.00000000000E+00 0. -1.
          2    1    6    6  503    0  0.11573337060E+02 -0.14293602377E+02  0.10803755258E+03  0.10959179699E+03  0.00000000000E+00 0. -1.
         -2    1    6    6    0  503 -0.33010170571E+02 -0.14408538578E+03  0.21037453186E+03  0.25711420305E+03  0.00000000000E+00 0.  1.
<mgrwt>
<rscale>  0 0.23543838E+04</rscale>
<asrwt>0</asrwt>
<pdfrwt beam="1">  1        2 0.16393925E+00 0.23543838E+04</pdfrwt>
<pdfrwt beam="2">  1       -1 0.20007134E+00 0.23543838E+04</pdfrwt>
<totfact> 0.35405313E+00</totfact>
</mgrwt>
</event>
<event>
12    7  0.2492439E-007  0.5062905E+04  0.7818608E-02  0.7818876E-01
         -1   -1    0    0    0  501 -0.00000000000E+00  0.00000000000E+00  0.23625139024E+04  0.23625139024E+04  0.00000000000E+00 0.  1.
          2   -1    0    0  501    0  0.00000000000E+00 -0.00000000000E+00 -0.27124711438E+04  0.27124711438E+04  0.00000000000E+00 0. -1.
         24    2    1    2    0    0 -0.18710855195E+04  0.11386140685E+03  0.14148069688E+04  0.23498181864E+04  0.77725856900E+02 0.  0.
        254    2    1    2    0    0  0.18710855195E+04 -0.11386140685E+03 -0.17647642103E+04  0.27251668599E+04  0.89342949084E+03 0.  0.
         23    2    4    4    0    0  0.10595929997E+04  0.36892893699E+03 -0.89505345326E+03  0.14383154925E+04  0.93727723262E+02 0.  0.
         23    2    4    4    0    0  0.81149251972E+03 -0.48279034385E+03 -0.86971075700E+03  0.12868513674E+04  0.89347720424E+02 0.  0.
          2    1    3    3  502    0 -0.11498737311E+04  0.75511878573E+02  0.82257423359E+03  0.14158177888E+04  0.00000000000E+00 0. -1.
         -1    1    3    3    0  502 -0.72121178835E+03  0.38349528280E+02  0.59223273526E+03  0.93400039758E+03  0.00000000000E+00 0.  1.
         13    1    5    5    0    0  0.27090031128E+03  0.82111991057E+02 -0.17724691147E+03  0.33398476814E+03  0.00000000000E+00 0.  1.
        -13    1    5    5    0    0  0.78869268846E+03  0.28681694594E+03 -0.71780654179E+03  0.11043307244E+04  0.00000000000E+00 0. -1.
          1    1    6    6  503    0  0.61410367225E+03 -0.40000267670E+03 -0.64175485816E+03  0.97415335529E+03  0.00000000000E+00 0. -1.
         -1    1    6    6    0  503  0.19738884747E+03 -0.82787667150E+02 -0.22795589883E+03  0.31269801207E+03  0.00000000000E+00 0.  1.
<mgrwt>
<rscale>  0 0.50629046E+04</rscale>
<asrwt>0</asrwt>
<pdfrwt beam="1">  1        2 0.41730325E+00 0.50629046E+04</pdfrwt>
<pdfrwt beam="2">  1       -1 0.36346368E+00 0.50629046E+04</pdfrwt>
<totfact> 0.27183959E-02</totfact>
</mgrwt>
</event>
<event>
12    7  0.2492439E-007  0.2844624E+04  0.7818608E-02  0.8289547E-01
         -1   -1    0    0    0  501 -0.00000000000E+00  0.00000000000E+00  0.12848810569E+04  0.12848810569E+04  0.00000000000E+00 0.  1.
          2   -1    0    0  501    0  0.00000000000E+00 -0.00000000000E+00 -0.15744426503E+04  0.15744426503E+04  0.00000000000E+00 0. -1.
         24    2    1    2    0    0  0.36954993828E+03  0.11875044133E+04 -0.43990751071E+03  0.13217516672E+04  0.82310165568E+02 0.  0.
        254    2    1    2    0    0 -0.36954993828E+03 -0.11875044133E+04  0.15034591723E+03  0.15375720400E+04  0.89150995218E+03 0.  0.
         23    2    4    4    0    0 -0.55364440388E+03 -0.88037226202E+03 -0.15901999016E+03  0.10561612028E+04  0.92799156223E+02 0.  0.
         23    2    4    4    0    0  0.18409446560E+03 -0.30713215126E+03  0.30936590739E+03  0.48141083715E+03  0.88477109276E+02 0.  0.
          2    1    3    3  502    0  0.24634066364E+03  0.66492267912E+03 -0.23373846917E+03  0.74661875394E+03  0.00000000000E+00 0. -1.
         -1    1    3    3    0  502  0.12320927464E+03  0.52258173416E+03 -0.20616904154E+03  0.57513291327E+03  0.00000000000E+00 0.  1.
         13    1    5    5    0    0 -0.21837126761E+02 -0.97574754568E+01 -0.44197203676E+01  0.24322877309E+02  0.00000000000E+00 0. -1.
        -13    1    5    5    0    0 -0.53180727712E+03 -0.87061478657E+03 -0.15460026979E+03  0.10318383255E+04  0.00000000000E+00 0.  1.
          4    1    6    6  503    0  0.59311620485E+01 -0.37901608411E+02  0.68253486178E+01  0.38965317747E+02  0.00000000000E+00 0. -1.
         -4    1    6    6    0  503  0.17816330355E+03 -0.26923054285E+03  0.30254055878E+03  0.44244551940E+03  0.00000000000E+00 0.  1.
<mgrwt>
<rscale>  0 0.28446241E+04</rscale>
<asrwt>0</asrwt>
<pdfrwt beam="1">  1        2 0.24222194E+00 0.28446241E+04</pdfrwt>
<pdfrwt beam="2">  1       -1 0.19767401E+00 0.28446241E+04</pdfrwt>
<totfact> 0.17770841E+00</totfact>
</mgrwt>
</event>
<event>
12    7  0.2492439E-007  0.1989693E+04  0.7818608E-02  0.8611455E-01
          2   -1    0    0  501    0  0.00000000000E+00  0.00000000000E+00  0.48049284162E+03  0.48049284162E+03  0.00000000000E+00 0. -1.
         -1   -1    0    0    0  501 -0.00000000000E+00 -0.00000000000E+00 -0.20598009554E+04  0.20598009554E+04  0.00000000000E+00 0.  1.
         24    2    1    2    0    0  0.36083559105E+03 -0.29803351937E+02 -0.15244595525E+04  0.15688714554E+04  0.79310483648E+02 0.  0.
        254    2    1    2    0    0 -0.36083559105E+03  0.29803351937E+02 -0.54848561328E+02  0.97142234166E+03  0.89975687696E+03 0.  0.
         23    2    4    4    0    0 -0.18351708110E+03  0.36501749211E+03 -0.29538752638E+03  0.51227394684E+03  0.90854374009E+02 0.  0.
         23    2    4    4    0    0 -0.17731850996E+03 -0.33521414017E+03  0.24053896505E+03  0.45914839482E+03  0.95644555594E+02 0.  0.
          4    1    3    3  502    0  0.84921170643E+02  0.15787862179E+02 -0.26438847378E+03  0.27814048048E+03  0.00000000000E+00 0. -1.
         -3    1    3    3    0  502  0.27591442041E+03 -0.45591214116E+02 -0.12600710787E+04  0.12907309749E+04  0.00000000000E+00 0.  1.
         13    1    5    5    0    0 -0.16703336432E+03  0.36569299646E+03 -0.28407623574E+03  0.49227108403E+03  0.00000000000E+00 0. -1.
        -13    1    5    5    0    0 -0.16483716780E+02 -0.67550435353E+00 -0.11311290638E+02  0.20002862818E+02  0.00000000000E+00 0.  1.
          1    1    6    6  503    0 -0.16971034098E+03 -0.25524168239E+03  0.21661153663E+03  0.37532715604E+03  0.00000000000E+00 0. -1.
         -1    1    6    6    0  503 -0.76081689740E+01 -0.79972457783E+02  0.23927428425E+02  0.83821238777E+02  0.00000000000E+00 0.  1.
<mgrwt>
<rscale>  0 0.19896931E+04</rscale>
<asrwt>0</asrwt>
<pdfrwt beam="1">  1        2 0.73921976E-01 0.19896931E+04</pdfrwt>
<pdfrwt beam="2">  1       -1 0.31689245E+00 0.19896931E+04</pdfrwt>
<totfact> 0.17587563E+00</totfact>
</mgrwt>
</event>
<event>
12    7  0.2492439E-007  0.2455482E+04  0.7818608E-02  0.8419019E-01
          2   -1    0    0  501    0  0.00000000000E+00  0.00000000000E+00  0.23229607094E+04  0.23229607094E+04  0.00000000000E+00 0. -1.
         -1   -1    0    0    0  501 -0.00000000000E+00 -0.00000000000E+00 -0.64889078937E+03  0.64889078937E+03  0.00000000000E+00 0.  1.
         24    2    1    2    0    0  0.95104044604E+03  0.34565042233E+03  0.11116459446E+04  0.15054010952E+04  0.80768848208E+02 0.  0.
        254    2    1    2    0    0 -0.95104044604E+03 -0.34565042233E+03  0.56242397546E+03  0.14664504036E+04  0.90011327817E+03 0.  0.
         23    2    4    4    0    0 -0.43977959189E+02 -0.42506916679E+03  0.22149938196E+03  0.49001765428E+03  0.91855690310E+02 0.  0.
         23    2    4    4    0    0 -0.90706248685E+03  0.79418744465E+02  0.34092459350E+03  0.97643274931E+03  0.90120161116E+02 0.  0.
          2    1    3    3  502    0  0.57940282206E+03  0.25102530042E+03  0.70548147472E+03  0.94679746664E+03  0.00000000000E+00 0. -1.
         -1    1    3    3    0  502  0.37163762398E+03  0.94625121907E+02  0.40616446985E+03  0.55860362854E+03  0.00000000000E+00 0.  1.
         13    1    5    5    0    0 -0.57196727365E+02 -0.13589044452E+03  0.68106111271E+02  0.16240726869E+03  0.00000000000E+00 0.  1.
        -13    1    5    5    0    0  0.13218768176E+02 -0.28917872227E+03  0.15339327069E+03  0.32761038558E+03  0.00000000000E+00 0. -1.
          1    1    6    6  503    0 -0.58758112404E+03  0.89457420335E+02  0.19992178195E+03  0.62707489687E+03  0.00000000000E+00 0. -1.
         -1    1    6    6    0  503 -0.31948136281E+03 -0.10038675870E+02  0.14100281155E+03  0.34935785244E+03  0.00000000000E+00 0.  1.
<mgrwt>
<rscale>  0 0.24554819E+04</rscale>
<asrwt>0</asrwt>
<pdfrwt beam="1">  1        2 0.35737857E+00 0.24554819E+04</pdfrwt>
<pdfrwt beam="2">  1       -1 0.99829354E-01 0.24554819E+04</pdfrwt>
<totfact> 0.42859215E+00</totfact>
</mgrwt>
</event>
<event>
12    7  0.2492439E-007  0.2161998E+04  0.7818608E-02  0.8534414E-01
         -1   -1    0    0    0  501 -0.00000000000E+00  0.00000000000E+00  0.40953015648E+03  0.40953015648E+03  0.00000000000E+00 0.  1.
          2   -1    0    0  501    0  0.00000000000E+00 -0.00000000000E+00 -0.28534136277E+04  0.28534136277E+04  0.00000000000E+00 0. -1.
         24    2    1    2    0    0  0.84210815046E+03  0.48098371255E+02 -0.57652600413E+03  0.10248086986E+04  0.79944010692E+02 0.  0.
        254    2    1    2    0    0 -0.84210815046E+03 -0.48098371255E+02 -0.18673574671E+04  0.22381350856E+04  0.90042498917E+03 0.  0.
         23    2    4    4    0    0 -0.49477544254E+03 -0.24425917821E+03 -0.33450043439E+03  0.65159939620E+03  0.90697011192E+02 0.  0.
         23    2    4    4    0    0 -0.34733270792E+03  0.19616080696E+03 -0.15328570327E+04  0.15865356894E+04  0.91245486937E+02 0.  0.
          4    1    3    3  502    0  0.59185083272E+03  0.68152004249E+02 -0.42055271894E+03  0.72924391892E+03  0.00000000000E+00 0. -1.
         -3    1    3    3    0  502  0.25025731774E+03 -0.20053632993E+02 -0.15597328519E+03  0.29556477965E+03  0.00000000000E+00 0.  1.
         13    1    5    5    0    0 -0.17247545468E+03 -0.73110799742E+02 -0.16329006303E+03  0.24850878494E+03  0.00000000000E+00 0. -1.
        -13    1    5    5    0    0 -0.32229998786E+03 -0.17114837847E+03 -0.17121037136E+03  0.40309061126E+03  0.00000000000E+00 0.  1.
          2    1    6    6  503    0 -0.30481404531E+03  0.19799698787E+03 -0.13017425915E+04  0.13515354912E+04  0.00000000000E+00 0. -1.
         -2    1    6    6    0  503 -0.42518662609E+02 -0.18361809117E+01 -0.23111444118E+03  0.23500019819E+03  0.00000000000E+00 0.  1.
<mgrwt>
<rscale>  0 0.21619981E+04</rscale>
<asrwt>0</asrwt>
<pdfrwt beam="1">  1        2 0.43898671E+00 0.21619981E+04</pdfrwt>
<pdfrwt beam="2">  1       -1 0.63004640E-01 0.21619981E+04</pdfrwt>
<totfact> 0.57258266E+00</totfact>
</mgrwt>
</event>
<event>
12    7  0.2492439E-007  0.2451025E+04  0.7818608E-02  0.8420644E-01
          2   -1    0    0  501    0  0.00000000000E+00  0.00000000000E+00  0.32484712228E+04  0.32484712228E+04  0.00000000000E+00 0. -1.
         -1   -1    0    0    0  501 -0.00000000000E+00 -0.00000000000E+00 -0.46233480936E+03  0.46233480936E+03  0.00000000000E+00 0.  1.
         24    2    1    2    0    0 -0.31398850027E+03 -0.92998917002E+03  0.18075469133E+04  0.20584482613E+04  0.80714100956E+02 0.  0.
        254    2    1    2    0    0  0.31398850027E+03  0.92998917002E+03  0.97858950011E+03  0.16523577708E+04  0.89954441714E+03 0.  0.
         23    2    4    4    0    0 -0.80738529835E+02 -0.94828909473E+02 -0.29972669807E+02  0.15885335432E+03  0.93940379872E+02 0.  0.
         23    2    4    4    0    0  0.39472703011E+03  0.10248180795E+04  0.10085621699E+04  0.14935044165E+04  0.85418189906E+02 0.  0.
          4    1    3    3  502    0 -0.15819020073E+03 -0.54805611161E+03  0.98435260899E+03  0.11376905115E+04  0.00000000000E+00 0. -1.
         -3    1    3    3    0  502 -0.15579829954E+03 -0.38193305841E+03  0.82319430432E+03  0.92075774985E+03  0.00000000000E+00 0.  1.
         13    1    5    5    0    0  0.13624346822E+02 -0.22202331371E+02 -0.30061761211E+02  0.39777830908E+02  0.00000000000E+00 0. -1.
        -13    1    5    5    0    0 -0.94362876657E+02 -0.72626578102E+02  0.89091403570E-01  0.11907552341E+03  0.00000000000E+00 0.  1.
          2    1    6    6  503    0  0.11521377047E+03  0.40669759089E+03  0.36669936448E+03  0.55959410938E+03  0.00000000000E+00 0. -1.
         -2    1    6    6    0  503  0.27951325964E+03  0.61812048860E+03  0.64186280544E+03  0.93391030712E+03  0.00000000000E+00 0.  1.
<mgrwt>
<rscale>  0 0.24510254E+04</rscale>
<asrwt>0</asrwt>
<pdfrwt beam="1">  1        2 0.49976479E+00 0.24510254E+04</pdfrwt>
<pdfrwt beam="2">  1       -1 0.71128434E-01 0.24510254E+04</pdfrwt>
<totfact> 0.24522878E+00</totfact>
</mgrwt>
</event>
<event>
12    7  0.2492439E-007  0.2198133E+04  0.7818608E-02  0.8519206E-01
          2   -1    0    0  501    0  0.00000000000E+00  0.00000000000E+00  0.34512961026E+04  0.34512961026E+04  0.00000000000E+00 0. -1.
         -1   -1    0    0    0  501 -0.00000000000E+00 -0.00000000000E+00 -0.34999817539E+03  0.34999817539E+03  0.00000000000E+00 0.  1.
         24    2    1    2    0    0  0.73667221083E+03  0.53788968323E+03  0.13510717871E+04  0.16322312791E+04  0.82296518135E+02 0.  0.
        254    2    1    2    0    0 -0.73667221083E+03 -0.53788968323E+03  0.17502261401E+04  0.21690629989E+04  0.89973968137E+03 0.  0.
         23    2    4    4    0    0 -0.22372160974E+03  0.17208055915E+03  0.89040517458E+03  0.93826551063E+03  0.88643759044E+02 0.  0.
         23    2    4    4    0    0 -0.51295060109E+03 -0.70997024237E+03  0.85982096548E+03  0.12307974883E+04  0.91620413630E+02 0.  0.
          2    1    3    3  502    0  0.40802155073E+03  0.34810894505E+03  0.79034177933E+03  0.95514478046E+03  0.00000000000E+00 0. -1.
         -1    1    3    3    0  502  0.32865066010E+03  0.18978073818E+03  0.56073000777E+03  0.67708649859E+03  0.00000000000E+00 0.  1.
         13    1    5    5    0    0 -0.19771869949E+02  0.53737900781E+02  0.23022825270E+03  0.23724193803E+03  0.00000000000E+00 0. -1.
        -13    1    5    5    0    0 -0.20394973979E+03  0.11834265837E+03  0.66017692188E+03  0.70102357260E+03  0.00000000000E+00 0.  1.
          4    1    6    6  503    0 -0.50294702730E+03 -0.67973662204E+03  0.84586221780E+03  0.11960269558E+04  0.00000000000E+00 0. -1.
         -4    1    6    6    0  503 -0.10003573789E+02 -0.30233620333E+02  0.13958747687E+02  0.34770532409E+02  0.00000000000E+00 0.  1.
<mgrwt>
<rscale>  0 0.21981332E+04</rscale>
<asrwt>0</asrwt>
<pdfrwt beam="1">  1        2 0.53096861E+00 0.21981332E+04</pdfrwt>
<pdfrwt beam="2">  1       -1 0.53845875E-01 0.21981332E+04</pdfrwt>
<totfact> 0.31935655E+00</totfact>
</mgrwt>
</event>
<event>
12    7  0.2492439E-007  0.2411505E+04  0.7818608E-02  0.8435209E-01
          2   -1    0    0  501    0  0.00000000000E+00  0.00000000000E+00  0.21387006729E+04  0.21387006729E+04  0.00000000000E+00 0. -1.
         -1   -1    0    0    0  501 -0.00000000000E+00 -0.00000000000E+00 -0.67977685579E+03  0.67977685579E+03  0.00000000000E+00 0.  1.
         24    2    1    2    0    0  0.10109800665E+04 -0.83202485382E+02  0.38231358782E+03  0.10868045628E+04  0.77311899444E+02 0.  0.
        254    2    1    2    0    0 -0.10109800665E+04  0.83202485382E+02  0.10766102293E+04  0.17316729660E+04  0.90033234234E+03 0.  0.
         23    2    4    4    0    0 -0.32285448696E+03  0.25128143895E+03  0.90598293227E+03  0.99741558660E+03  0.81580619819E+02 0.  0.
         23    2    4    4    0    0 -0.68812557955E+03 -0.16807895357E+03  0.17062729707E+03  0.73425737935E+03  0.90845345334E+02 0.  0.
          2    1    3    3  502    0  0.78332680122E+02  0.14226630215E+02  0.30657481473E+02  0.85312876828E+02  0.00000000000E+00 0. -1.
         -1    1    3    3    0  502  0.93264738639E+03 -0.97429115597E+02  0.35165610635E+03  0.10014916860E+04  0.00000000000E+00 0.  1.
         13    1    5    5    0    0 -0.21209817660E+03  0.11499172828E+03  0.54255473728E+03  0.59377973781E+03  0.00000000000E+00 0.  1.
        -13    1    5    5    0    0 -0.11075631036E+03  0.13628971067E+03  0.36342819499E+03  0.40363584880E+03  0.00000000000E+00 0. -1.
          3    1    6    6  503    0 -0.55408147613E+03 -0.12356864929E+03  0.17143604597E+03  0.59301417448E+03  0.00000000000E+00 0. -1.
         -3    1    6    6    0  503 -0.13404410342E+03 -0.44510304281E+02 -0.80874889554E+00  0.14124320487E+03  0.00000000000E+00 0.  1.
<mgrwt>
<rscale>  0 0.24115051E+04</rscale>
<asrwt>0</asrwt>
<pdfrwt beam="1">  1        2 0.32903087E+00 0.24115051E+04</pdfrwt>
<pdfrwt beam="2">  1       -1 0.10458106E+00 0.24115051E+04</pdfrwt>
<totfact> 0.49095613E+00</totfact>
</mgrwt>
</event>
<event>
12    7  0.2492439E-007  0.2196708E+04  0.7818608E-02  0.8519799E-01
         -1   -1    0    0    0  501 -0.00000000000E+00  0.00000000000E+00  0.76965106477E+03  0.76965106477E+03  0.00000000000E+00 0.  1.
          2   -1    0    0  501    0  0.00000000000E+00 -0.00000000000E+00 -0.15674401906E+04  0.15674401906E+04  0.00000000000E+00 0. -1.
         24    2    1    2    0    0  0.77867202093E+03 -0.32490947614E+03  0.36854612417E+02  0.84832196379E+03  0.79972544879E+02 0.  0.
        254    2    1    2    0    0 -0.77867202093E+03  0.32490947614E+03 -0.83464373828E+03  0.14887692916E+04  0.89883677603E+03 0.  0.
         23    2    4    4    0    0 -0.86120255305E+03  0.80849463676E+02 -0.35999398286E+03  0.94103177222E+03  0.87969628144E+02 0.  0.
         23    2    4    4    0    0  0.82530532125E+02  0.24406001247E+03 -0.47464975542E+03  0.54773751939E+03  0.91364223952E+02 0.  0.
          4    1    3    3  502    0  0.49209897947E+03 -0.18784416994E+03 -0.12303903475E+02  0.52687590931E+03  0.00000000000E+00 0. -1.
         -3    1    3    3    0  502  0.28657304146E+03 -0.13706530620E+03  0.49158515892E+02  0.32144605448E+03  0.00000000000E+00 0.  1.
         13    1    5    5    0    0 -0.23091740970E+03  0.75670816309E+01 -0.57513961050E+02  0.23809234877E+03  0.00000000000E+00 0.  1.
        -13    1    5    5    0    0 -0.63028514335E+03  0.73282382045E+02 -0.30248002181E+03  0.70293942345E+03  0.00000000000E+00 0. -1.
          4    1    6    6  503    0  0.13620980758E+02  0.36062771470E+01 -0.74650113601E+02  0.75968255293E+02  0.00000000000E+00 0. -1.
         -4    1    6    6    0  503  0.68909551367E+02  0.24045373532E+03 -0.39999964181E+03  0.47176926410E+03  0.00000000000E+00 0.  1.
<mgrwt>
<rscale>  0 0.21967085E+04</rscale>
<asrwt>0</asrwt>
<pdfrwt beam="1">  1        2 0.24114464E+00 0.21967085E+04</pdfrwt>
<pdfrwt beam="2">  1       -1 0.11840786E+00 0.21967085E+04</pdfrwt>
<totfact> 0.77480586E+00</totfact>
</mgrwt>
</event>
<event>
12    7  0.2492439E-007  0.1387239E+04  0.7818608E-02  0.8963108E-01
         -1   -1    0    0    0  501 -0.00000000000E+00  0.00000000000E+00  0.10573574415E+04  0.10573574415E+04  0.00000000000E+00 0.  1.
          2   -1    0    0  501    0  0.00000000000E+00 -0.00000000000E+00 -0.45500965928E+03  0.45500965928E+03  0.00000000000E+00 0. -1.
         24    2    1    2    0    0 -0.33483953114E+03  0.16257663431E+03  0.38736710359E+02  0.38252502826E+03  0.79222413988E+02 0.  0.
        254    2    1    2    0    0  0.33483953114E+03 -0.16257663431E+03  0.56361107184E+03  0.11298420725E+04  0.90572456899E+03 0.  0.
         23    2    4    4    0    0  0.22478941505E+03  0.19503437207E+03  0.66217304076E+03  0.73176218643E+03  0.91837215591E+02 0.  0.
         23    2    4    4    0    0  0.11005011608E+03 -0.35761100638E+03 -0.98561968927E+02  0.39807988607E+03  0.93576033478E+02 0.  0.
          2    1    3    3  502    0 -0.33502735694E+03  0.15488178480E+03  0.29170552510E+02  0.37024669924E+03  0.00000000000E+00 0. -1.
         -3    1    3    3    0  502  0.18782580670E+00  0.76948495063E+01  0.95661578487E+01  0.12278329017E+02  0.00000000000E+00 0.  1.
         13    1    5    5    0    0  0.65556496501E+02  0.11544352314E+03  0.25921397378E+03  0.29123314624E+03  0.00000000000E+00 0.  1.
        -13    1    5    5    0    0  0.15923291855E+03  0.79590848932E+02  0.40295906699E+03  0.44052904019E+03  0.00000000000E+00 0. -1.
          1    1    6    6  503    0  0.29755476069E+02 -0.21154360827E+03 -0.88069824106E+02  0.23106791312E+03  0.00000000000E+00 0. -1.
         -1    1    6    6    0  503  0.80294640016E+02 -0.14606739811E+03 -0.10492144821E+02  0.16701197295E+03  0.00000000000E+00 0.  1.
<mgrwt>
<rscale>  0 0.13872388E+04</rscale>
<asrwt>0</asrwt>
<pdfrwt beam="1">  1        2 0.70001486E-01 0.13872388E+04</pdfrwt>
<pdfrwt beam="2">  1       -1 0.16267038E+00 0.13872388E+04</pdfrwt>
<totfact> 0.21346395E+01</totfact>
</mgrwt>
</event>
<event>
12    7  0.2492439E-007  0.3696856E+04  0.7818608E-02  0.8068659E-01
          2   -1    0    0  501    0  0.00000000000E+00  0.00000000000E+00  0.19459088999E+04  0.19459088999E+04  0.00000000000E+00 0. -1.
         -1   -1    0    0    0  501 -0.00000000000E+00 -0.00000000000E+00 -0.17558301615E+04  0.17558301615E+04  0.00000000000E+00 0.  1.
         24    2    1    2    0    0  0.11881758956E+04 -0.11870059646E+04 -0.35819620435E+03  0.17191427598E+04  0.80013678127E+02 0.  0.
        254    2    1    2    0    0 -0.11881758956E+04  0.11870059646E+04  0.54827494275E+03  0.19825963017E+04  0.89963190447E+03 0.  0.
         23    2    4    4    0    0 -0.95057489525E+03  0.50080429241E+03  0.17381451207E+02  0.10784267991E+04  0.91129991332E+02 0.  0.
         23    2    4    4    0    0 -0.23760100039E+03  0.68620167219E+03  0.53089349155E+03  0.90416950260E+03  0.91365309386E+02 0.  0.
          2    1    3    3  502    0  0.91991239573E+03 -0.93344554173E+03 -0.24703184323E+03  0.13336356799E+04  0.00000000000E+00 0. -1.
         -1    1    3    3    0  502  0.26826349990E+03 -0.25356042287E+03 -0.11116436112E+03  0.38550707984E+03  0.00000000000E+00 0.  1.
         13    1    5    5    0    0 -0.51658854175E+03  0.30163841916E+03  0.46679164659E+02  0.60002366770E+03  0.00000000000E+00 0.  1.
        -13    1    5    5    0    0 -0.43398635350E+03  0.19916587325E+03 -0.29297713452E+02  0.47840313137E+03  0.00000000000E+00 0. -1.
          3    1    6    6  503    0 -0.21832307004E+03  0.56667346456E+03  0.40768986691E+03  0.73143339132E+03  0.00000000000E+00 0. -1.
         -3    1    6    6    0  503 -0.19277930347E+02  0.11952820763E+03  0.12320362464E+03  0.17273611128E+03  0.00000000000E+00 0.  1.
<mgrwt>
<rscale>  0 0.36968557E+04</rscale>
<asrwt>0</asrwt>
<pdfrwt beam="1">  1        2 0.29937060E+00 0.36968557E+04</pdfrwt>
<pdfrwt beam="2">  1       -1 0.27012772E+00 0.36968557E+04</pdfrwt>
<totfact> 0.33969704E-01</totfact>
</mgrwt>
</event>
<event>
12    7  0.2492439E-007  0.2672948E+04  0.7818608E-02  0.8343836E-01
          2   -1    0    0  501    0  0.00000000000E+00  0.00000000000E+00  0.18963904211E+04  0.18963904211E+04  0.00000000000E+00 0. -1.
         -1   -1    0    0    0  501 -0.00000000000E+00 -0.00000000000E+00 -0.94187470062E+03  0.94187470062E+03  0.00000000000E+00 0.  1.
         24    2    1    2    0    0 -0.60717929521E+03 -0.48852749968E+03 -0.52286204151E+03  0.94193333081E+03  0.80795239711E+02 0.  0.
        254    2    1    2    0    0  0.60717929521E+03  0.48852749968E+03  0.14773777619E+04  0.18963317909E+04  0.89783260974E+03 0.  0.
         23    2    4    4    0    0  0.80778015538E+03  0.48558865503E+03  0.13225753817E+04  0.16266804463E+04  0.92620261523E+02 0.  0.
         23    2    4    4    0    0 -0.20060086017E+03  0.29388446535E+01  0.15480238024E+03  0.26965134455E+03  0.92188550160E+02 0.  0.
          4    1    3    3  502    0 -0.23308801014E+03 -0.13842241296E+03 -0.18493531107E+03  0.32816437064E+03  0.00000000000E+00 0. -1.
         -3    1    3    3    0  502 -0.37409128507E+03 -0.35010508672E+03 -0.33792673044E+03  0.61376896016E+03  0.00000000000E+00 0.  1.
         13    1    5    5    0    0  0.80327556974E+03  0.48982252612E+03  0.13130954111E+04  0.16153629025E+04  0.00000000000E+00 0. -1.
        -13    1    5    5    0    0  0.45045856384E+01 -0.42338710875E+01  0.94799706082E+01  0.11317543854E+02  0.00000000000E+00 0.  1.
          1    1    6    6  503    0 -0.20456810497E+03  0.15218232151E+02  0.15438882877E+03  0.25674036420E+03  0.00000000000E+00 0. -1.
         -1    1    6    6    0  503  0.39672448023E+01 -0.12279387498E+02  0.41355146523E+00  0.12910980345E+02  0.00000000000E+00 0.  1.
<mgrwt>
<rscale>  0 0.26729476E+04</rscale>
<asrwt>0</asrwt>
<pdfrwt beam="1">  1        2 0.29175237E+00 0.26729476E+04</pdfrwt>
<pdfrwt beam="2">  1       -1 0.14490380E+00 0.26729476E+04</pdfrwt>
<totfact> 0.29214082E+00</totfact>
</mgrwt>
</event>
<event>
12    7  0.2492439E-007  0.2449245E+04  0.7818608E-02  0.8421294E-01
         -1   -1    0    0    0  501 -0.00000000000E+00  0.00000000000E+00  0.80448574015E+03  0.80448574015E+03  0.00000000000E+00 0.  1.
          2   -1    0    0  501    0  0.00000000000E+00 -0.00000000000E+00 -0.18641733302E+04  0.18641733302E+04  0.00000000000E+00 0. -1.
         24    2    1    2    0    0 -0.69578000900E+03 -0.75601247966E+03 -0.73805046575E+03  0.12672487468E+04  0.74405684925E+02 0.  0.
        254    2    1    2    0    0  0.69578000900E+03  0.75601247966E+03 -0.32163712429E+03  0.14014103235E+04  0.89712639291E+03 0.  0.
         23    2    4    4    0    0  0.46103978396E+03  0.49428377082E+02 -0.43738691825E+03  0.64242372225E+03  0.80000473714E+02 0.  0.
         23    2    4    4    0    0  0.23474022505E+03  0.70658410258E+03  0.11574979396E+03  0.75898660129E+03  0.91096535913E+02 0.  0.
          2    1    3    3  502    0 -0.14083134963E+03 -0.15883736140E+03 -0.19037953825E+03  0.28514407762E+03  0.00000000000E+00 0. -1.
         -1    1    3    3    0  502 -0.55494865938E+03 -0.59717511826E+03 -0.54767092750E+03  0.98210466919E+03  0.00000000000E+00 0.  1.
         13    1    5    5    0    0  0.23041888145E+03  0.33206179830E+02 -0.16605198685E+03  0.28595239752E+03  0.00000000000E+00 0.  1.
        -13    1    5    5    0    0  0.23062090250E+03  0.16222197252E+02 -0.27133493140E+03  0.35647132473E+03  0.00000000000E+00 0. -1.
          4    1    6    6  503    0  0.12684830846E+03  0.28987779407E+03  0.83962505189E+02  0.32736727254E+03  0.00000000000E+00 0. -1.
         -4    1    6    6    0  503  0.10789191658E+03  0.41670630852E+03  0.31787288772E+02  0.43161932875E+03  0.00000000000E+00 0.  1.
<mgrwt>
<rscale>  0 0.24492455E+04</rscale>
<asrwt>0</asrwt>
<pdfrwt beam="1">  1        2 0.28679589E+00 0.24492455E+04</pdfrwt>
<pdfrwt beam="2">  1       -1 0.12376704E+00 0.24492455E+04</pdfrwt>
<totfact> 0.46479482E+00</totfact>
</mgrwt>
</event>
<event>
12    7  0.2492439E-007  0.2228173E+04  0.7818608E-02  0.8506793E-01
          2   -1    0    0  501    0  0.00000000000E+00  0.00000000000E+00  0.80762974243E+03  0.80762974243E+03  0.00000000000E+00 0. -1.
         -1   -1    0    0    0  501 -0.00000000000E+00 -0.00000000000E+00 -0.15368284541E+04  0.15368284541E+04  0.00000000000E+00 0.  1.
         24    2    1    2    0    0  0.46642317480E+03 -0.59509708617E+03  0.26094831280E+03  0.80376327026E+03  0.79058539796E+02 0.  0.
        254    2    1    2    0    0 -0.46642317480E+03  0.59509708617E+03 -0.99014702448E+03  0.15406949263E+04  0.90645386305E+03 0.  0.
         23    2    4    4    0    0 -0.25953422928E+01 -0.18167575738E+03 -0.41583458558E+03  0.46513402031E+03  0.10207074834E+03 0.  0.
         23    2    4    4    0    0 -0.46382783250E+03  0.77677284354E+03 -0.57431243890E+03  0.10755609060E+04  0.92109588565E+02 0.  0.
          2    1    3    3  502    0  0.25826201685E+03 -0.26640522206E+03  0.12018733193E+03  0.39002052055E+03  0.00000000000E+00 0. -1.
         -1    1    3    3    0  502  0.20816115794E+03 -0.32869186410E+03  0.14076098086E+03  0.41374274971E+03  0.00000000000E+00 0.  1.
         13    1    5    5    0    0  0.49326522466E+02 -0.80928952472E+02 -0.17729637406E+03  0.20103881571E+03  0.00000000000E+00 0.  1.
        -13    1    5    5    0    0 -0.51921864758E+02 -0.10074680491E+03 -0.23853821152E+03  0.26409520460E+03  0.00000000000E+00 0. -1.
          3    1    6    6  503    0 -0.31938060900E+02  0.91568098308E+02 -0.87145197672E+02  0.13038037367E+03  0.00000000000E+00 0. -1.
         -3    1    6    6    0  503 -0.43188977160E+03  0.68520474524E+03 -0.48716724123E+03  0.94518053230E+03  0.00000000000E+00 0.  1.
<mgrwt>
<rscale>  0 0.22281727E+04</rscale>
<asrwt>0</asrwt>
<pdfrwt beam="1">  1        2 0.12425073E+00 0.22281727E+04</pdfrwt>
<pdfrwt beam="2">  1       -1 0.23643514E+00 0.22281727E+04</pdfrwt>
<totfact> 0.30281015E+00</totfact>
</mgrwt>
</event>
<event>
12    7  0.2492439E-007  0.3579882E+04  0.7818608E-02  0.8095115E-01
         -1   -1    0    0    0  501 -0.00000000000E+00  0.00000000000E+00  0.11499519474E+04  0.11499519474E+04  0.00000000000E+00 0.  1.
          2   -1    0    0  501    0  0.00000000000E+00 -0.00000000000E+00 -0.27861072636E+04  0.27861072636E+04  0.00000000000E+00 0. -1.
         24    2    1    2    0    0  0.57110145746E+03  0.91169507619E+03  0.64598434527E+03  0.12572106696E+04  0.77059112185E+02 0.  0.
        254    2    1    2    0    0 -0.57110145746E+03 -0.91169507619E+03 -0.22821396615E+04  0.26788485413E+04  0.90040173596E+03 0.  0.
         23    2    4    4    0    0 -0.71454842396E+03 -0.32545420707E+03 -0.13438361798E+04  0.15592022975E+04  0.93360778942E+02 0.  0.
         23    2    4    4    0    0  0.14344696651E+03 -0.58624086912E+03 -0.93830348162E+03  0.11196462438E+04  0.94545750319E+02 0.  0.
          4    1    3    3  502    0  0.43017643036E+03  0.74465325705E+03  0.51896378088E+03  0.10044319989E+04  0.00000000000E+00 0. -1.
         -3    1    3    3    0  502  0.14092502709E+03  0.16704181914E+03  0.12702056439E+03  0.25277867074E+03  0.00000000000E+00 0.  1.
         13    1    5    5    0    0 -0.36831356869E+03 -0.12726966981E+03 -0.60755800589E+03  0.72178887790E+03  0.00000000000E+00 0. -1.
        -13    1    5    5    0    0 -0.34623485527E+03 -0.19818453726E+03 -0.73627817396E+03  0.83741341956E+03  0.00000000000E+00 0.  1.
          1    1    6    6  503    0  0.13799296184E+03 -0.49923600599E+03 -0.85125899891E+03  0.99645397807E+03  0.00000000000E+00 0. -1.
         -1    1    6    6    0  503  0.54540046662E+01 -0.87004863130E+02 -0.87044482718E+02  0.12319226578E+03  0.00000000000E+00 0.  1.
<mgrwt>
<rscale>  0 0.35798824E+04</rscale>
<asrwt>0</asrwt>
<pdfrwt beam="1">  1        2 0.42863188E+00 0.35798824E+04</pdfrwt>
<pdfrwt beam="2">  1       -1 0.17691569E+00 0.35798824E+04</pdfrwt>
<totfact> 0.47873137E-01</totfact>
</mgrwt>
</event>
<event>
12    7  0.2492439E-007  0.2211662E+04  0.7818608E-02  0.8513590E-01
         -1   -1    0    0    0  501 -0.00000000000E+00  0.00000000000E+00  0.14553596279E+04  0.14553596279E+04  0.00000000000E+00 0.  1.
          2   -1    0    0  501    0  0.00000000000E+00 -0.00000000000E+00 -0.84024760330E+03  0.84024760330E+03  0.00000000000E+00 0. -1.
         24    2    1    2    0    0  0.26616549449E+03 -0.27475856762E+03 -0.61292218297E+03  0.72690057697E+03  0.79840500220E+02 0.  0.
        254    2    1    2    0    0 -0.26616549449E+03  0.27475856762E+03  0.12280342075E+04  0.15687066542E+04  0.89801793474E+03 0.  0.
         23    2    4    4    0    0  0.10069315440E+03  0.40116607706E+03  0.10500597552E+04  0.11323052471E+04  0.91740668634E+02 0.  0.
         23    2    4    4    0    0 -0.36685864889E+03 -0.12640750944E+03  0.17797445227E+03  0.43640140709E+03  0.90593353710E+02 0.  0.
          4    1    3    3  502    0  0.25186527783E+03 -0.23790925303E+03 -0.57933744416E+03  0.67503244741E+03  0.00000000000E+00 0. -1.
         -3    1    3    3    0  502  0.14300216660E+02 -0.36849314590E+02 -0.33584738814E+02  0.51868129554E+02  0.00000000000E+00 0.  1.
         13    1    5    5    0    0  0.13402074456E+02  0.22996068871E+03  0.61349327901E+03  0.65531331235E+03  0.00000000000E+00 0. -1.
        -13    1    5    5    0    0  0.87291079945E+02  0.17120538836E+03  0.43656647624E+03  0.47699193475E+03  0.00000000000E+00 0.  1.
          4    1    6    6  503    0 -0.17106763047E+03 -0.20967613878E+02  0.48345209641E+02  0.17900009587E+03  0.00000000000E+00 0.  1.
         -4    1    6    6    0  503 -0.19579101842E+03 -0.10543989556E+03  0.12962924263E+03  0.25740131122E+03  0.00000000000E+00 0. -1.
<mgrwt>
<rscale>  0 0.22116622E+04</rscale>
<asrwt>0</asrwt>
<pdfrwt beam="1">  1        2 0.12926886E+00 0.22116622E+04</pdfrwt>
<pdfrwt beam="2">  1       -1 0.22390148E+00 0.22116622E+04</pdfrwt>
<totfact> 0.34806746E+00</totfact>
</mgrwt>
</event>
<event>
12    7  0.2492439E-007  0.2304602E+04  0.7818608E-02  0.8476109E-01
          2   -1    0    0  501    0  0.00000000000E+00  0.00000000000E+00  0.23871073833E+04  0.23871073833E+04  0.00000000000E+00 0. -1.
         -1   -1    0    0    0  501 -0.00000000000E+00 -0.00000000000E+00 -0.55623725774E+03  0.55623725774E+03  0.00000000000E+00 0.  1.
         24    2    1    2    0    0  0.21285872317E+03 -0.86338371115E+03  0.26713152664E+03  0.93185714182E+03  0.79108858711E+02 0.  0.
        254    2    1    2    0    0 -0.21285872317E+03  0.86338371115E+03  0.15637385990E+04  0.20114874993E+04  0.90003515771E+03 0.  0.
         23    2    4    4    0    0  0.82684108126E+01  0.83564435007E+03  0.63887731780E+03  0.10558466329E+04  0.90983726584E+02 0.  0.
         23    2    4    4    0    0 -0.22112713399E+03  0.27739361074E+02  0.92486128115E+03  0.95564086639E+03  0.90633297502E+02 0.  0.
          4    1    3    3  502    0  0.14241603520E+03 -0.48915705549E+03  0.18711608663E+03  0.54274246369E+03  0.00000000000E+00 0. -1.
         -3    1    3    3    0  502  0.70442687976E+02 -0.37422665566E+03  0.80015440004E+02  0.38911467813E+03  0.00000000000E+00 0.  1.
         13    1    5    5    0    0  0.17287223746E+02  0.82533764466E+03  0.63534585560E+03  0.10417031401E+04  0.00000000000E+00 0.  1.
        -13    1    5    5    0    0 -0.90188129335E+01  0.10306705410E+02  0.35314622004E+01  0.14143492794E+02  0.00000000000E+00 0. -1.
          2    1    6    6  503    0 -0.14381038727E+01 -0.54745109576E+00  0.14302026960E+03  0.14302854736E+03  0.00000000000E+00 0. -1.
         -2    1    6    6    0  503 -0.21968903011E+03  0.28286812169E+02  0.78184101155E+03  0.81261231903E+03  0.00000000000E+00 0.  1.
<mgrwt>
<rscale>  0 0.23046024E+04</rscale>
<asrwt>0</asrwt>
<pdfrwt beam="1">  1        2 0.36724728E+00 0.23046024E+04</pdfrwt>
<pdfrwt beam="2">  1       -1 0.85574964E-01 0.23046024E+04</pdfrwt>
<totfact> 0.56251236E+00</totfact>
</mgrwt>
</event>
<event>
12    7  0.2492439E-007  0.1238756E+04  0.7818608E-02  0.9079594E-01
         -1   -1    0    0    0  501 -0.00000000000E+00  0.00000000000E+00  0.11358454641E+03  0.11358454641E+03  0.00000000000E+00 0.  1.
          2   -1    0    0  501    0  0.00000000000E+00 -0.00000000000E+00 -0.33774784495E+04  0.33774784495E+04  0.00000000000E+00 0. -1.
         24    2    1    2    0    0  0.13911073058E+03 -0.22620972188E+03 -0.10548701423E+04  0.10907396012E+04  0.80244792703E+02 0.  0.
        254    2    1    2    0    0 -0.13911073058E+03  0.22620972188E+03 -0.22090237607E+04  0.24003233947E+04  0.90069072941E+03 0.  0.
         23    2    4    4    0    0  0.13287654052E+03  0.47943957388E+03 -0.85856461188E+03  0.99658301574E+03  0.92336528403E+02 0.  0.
         23    2    4    4    0    0 -0.27198727110E+03 -0.25322985199E+03 -0.13504591488E+04  0.14037403790E+04  0.92976906915E+02 0.  0.
          2    1    3    3  502    0 -0.10476705099E+02 -0.98375814429E+01 -0.55645434444E+02  0.57471329660E+02  0.00000000000E+00 0. -1.
         -1    1    3    3    0  502  0.14958743568E+03 -0.21637214044E+03 -0.99922470789E+03  0.10332682715E+04  0.00000000000E+00 0.  1.
         13    1    5    5    0    0  0.12366375630E+03  0.30014626009E+03 -0.59276128950E+03  0.67583019198E+03  0.00000000000E+00 0.  1.
        -13    1    5    5    0    0  0.92127842249E+01  0.17929331379E+03 -0.26580332238E+03  0.32075282376E+03  0.00000000000E+00 0. -1.
          1    1    6    6  503    0 -0.94293860863E+02 -0.11601839875E+03 -0.69503007846E+03  0.71092785218E+03  0.00000000000E+00 0. -1.
         -1    1    6    6    0  503 -0.17769341024E+03 -0.13721145324E+03 -0.65542907039E+03  0.69281252677E+03  0.00000000000E+00 0.  1.
<mgrwt>
<rscale>  0 0.12387564E+04</rscale>
<asrwt>0</asrwt>
<pdfrwt beam="1">  1        2 0.51961206E+00 0.12387564E+04</pdfrwt>
<pdfrwt beam="2">  1       -1 0.17474546E-01 0.12387564E+04</pdfrwt>
<totfact> 0.28950951E+01</totfact>
</mgrwt>
</event>
<event>
12    7  0.2492439E-007  0.2480919E+04  0.7818608E-02  0.8409815E-01
         -1   -1    0    0    0  501 -0.00000000000E+00  0.00000000000E+00  0.24094802034E+04  0.24094802034E+04  0.00000000000E+00 0.  1.
          2   -1    0    0  501    0  0.00000000000E+00 -0.00000000000E+00 -0.63861874148E+03  0.63861874148E+03  0.00000000000E+00 0. -1.
         24    2    1    2    0    0  0.18664233151E+03 -0.10122429728E+04  0.38764666905E+03  0.11031450318E+04  0.84781043049E+02 0.  0.
        254    2    1    2    0    0 -0.18664233151E+03  0.10122429728E+04  0.13832147928E+04  0.19449539131E+04  0.90005075687E+03 0.  0.
         23    2    4    4    0    0  0.31429139343E+03  0.54001920657E+03  0.42419472061E+03  0.76071388086E+03  0.91348913973E+02 0.  0.
         23    2    4    4    0    0 -0.50093372494E+03  0.47222376621E+03  0.95902007222E+03  0.11842400322E+04  0.93675358398E+02 0.  0.
          2    1    3    3  502    0  0.77843147542E+02 -0.49455226266E+03  0.14548179441E+03  0.52135060049E+03  0.00000000000E+00 0. -1.
         -1    1    3    3    0  502  0.10879918397E+03 -0.51769071012E+03  0.24216487463E+03  0.58179443129E+03  0.00000000000E+00 0.  1.
         13    1    5    5    0    0  0.23797590938E+03  0.40454682388E+03  0.26874077187E+03  0.54084403355E+03  0.00000000000E+00 0. -1.
        -13    1    5    5    0    0  0.76315484054E+02  0.13547238269E+03  0.15545394874E+03  0.21986984731E+03  0.00000000000E+00 0.  1.
          1    1    6    6  503    0 -0.12013951569E+03  0.16644512519E+03  0.25366908314E+03  0.32632114040E+03  0.00000000000E+00 0. -1.
         -1    1    6    6    0  503 -0.38079420925E+03  0.30577864102E+03  0.70535098908E+03  0.85791889180E+03  0.00000000000E+00 0.  1.
<mgrwt>
<rscale>  0 0.24809186E+04</rscale>
<asrwt>0</asrwt>
<pdfrwt beam="1">  1        2 0.98249038E-01 0.24809186E+04</pdfrwt>
<pdfrwt beam="2">  1       -1 0.37068926E+00 0.24809186E+04</pdfrwt>
<totfact> 0.52965722E-01</totfact>
</mgrwt>
</event>
<event>
12    7  0.2492439E-007  0.1054755E+04  0.7818608E-02  0.9250448E-01
         -1   -1    0    0    0  501 -0.00000000000E+00  0.00000000000E+00  0.85737035405E+02  0.85737035405E+02  0.00000000000E+00 0.  1.
          2   -1    0    0  501    0  0.00000000000E+00 -0.00000000000E+00 -0.32439556084E+04  0.32439556084E+04  0.00000000000E+00 0. -1.
         24    2    1    2    0    0 -0.45054950022E+02 -0.72956157547E+02 -0.65724680652E+03  0.66733575912E+03  0.77531292261E+02 0.  0.
        254    2    1    2    0    0  0.45054950022E+02  0.72956157547E+02 -0.25009717665E+04  0.26623568847E+04  0.90880793089E+03 0.  0.
         23    2    4    4    0    0  0.20293107239E+03 -0.34463897076E+03 -0.77675962385E+03  0.87835939229E+03  0.90568584384E+02 0.  0.
         23    2    4    4    0    0 -0.15787612237E+03  0.41759512830E+03 -0.17242121426E+04  0.17839974924E+04  0.10212237206E+03 0.  0.
          4    1    3    3  502    0 -0.59542535791E+01 -0.58137936632E+02 -0.53400754291E+03  0.53719598723E+03  0.00000000000E+00 0. -1.
         -3    1    3    3    0  502 -0.39100696443E+02 -0.14818220915E+02 -0.12323926361E+03  0.13013977189E+03  0.00000000000E+00 0.  1.
         13    1    5    5    0    0  0.14236749163E+03 -0.17975462006E+03 -0.37000985748E+03  0.43530164339E+03  0.00000000000E+00 0. -1.
        -13    1    5    5    0    0  0.60563580758E+02 -0.16488435069E+03 -0.40674976637E+03  0.44305774890E+03  0.00000000000E+00 0.  1.
          2    1    6    6  503    0 -0.55264375500E+02  0.26151947036E+03 -0.89812149286E+03  0.93705325383E+03  0.00000000000E+00 0.  1.
         -2    1    6    6    0  503 -0.10261174687E+03  0.15607565794E+03 -0.82609064975E+03  0.84694423855E+03  0.00000000000E+00 0. -1.
<mgrwt>
<rscale>  0 0.10547552E+04</rscale>
<asrwt>0</asrwt>
<pdfrwt beam="1">  1        2 0.49907007E+00 0.10547552E+04</pdfrwt>
<pdfrwt beam="2">  1       -1 0.13190314E-01 0.10547552E+04</pdfrwt>
<totfact> 0.57316773E+01</totfact>
</mgrwt>
</event>
<event>
12    7  0.2492439E-007  0.1195782E+04  0.7818608E-02  0.9116557E-01
          4   -1    0    0  501    0  0.00000000000E+00  0.00000000000E+00  0.92068656362E+03  0.92068656362E+03  0.00000000000E+00 0. -1.
         -3   -1    0    0    0  501 -0.00000000000E+00 -0.00000000000E+00 -0.38826827665E+03  0.38826827665E+03  0.00000000000E+00 0.  1.
         24    2    1    2    0    0 -0.77445923389E+02 -0.23410432390E+03  0.71816619302E+02  0.26844775763E+03  0.78127243961E+02 0.  0.
        254    2    1    2    0    0  0.77445923389E+02  0.23410432390E+03  0.46060166767E+03  0.10405070826E+04  0.89983242175E+03 0.  0.
         23    2    4    4    0    0 -0.14841284368E+03 -0.28197606410E+03  0.30261908902E+03  0.44850839972E+03  0.89691686853E+02 0.  0.
         23    2    4    4    0    0  0.22585876707E+03  0.51608038800E+03  0.15798257865E+03  0.59199868291E+03  0.90292834023E+02 0.  0.
          4    1    3    3  502    0 -0.49527561188E+02 -0.16755615102E+03  0.86249925119E+02  0.19485146303E+03  0.00000000000E+00 0. -1.
         -3    1    3    3    0  502 -0.27918362201E+02 -0.66548172881E+02 -0.14433305817E+02  0.73596294598E+02  0.00000000000E+00 0.  1.
         13    1    5    5    0    0 -0.59587857712E+02 -0.52626683503E+02  0.41064706619E+02  0.89479554832E+02  0.00000000000E+00 0. -1.
        -13    1    5    5    0    0 -0.88824985969E+02 -0.22934938059E+03  0.26155438240E+03  0.35902884489E+03  0.00000000000E+00 0.  1.
          2    1    6    6  503    0  0.11857586079E+03  0.16622368204E+03  0.45844340473E+02  0.20926598096E+03  0.00000000000E+00 0. -1.
         -2    1    6    6    0  503  0.10728290628E+03  0.34985670596E+03  0.11213823817E+03  0.38273270195E+03  0.00000000000E+00 0.  1.
<mgrwt>
<rscale>  0 0.11957816E+04</rscale>
<asrwt>0</asrwt>
<pdfrwt beam="1">  1        4 0.14164409E+00 0.11957816E+04</pdfrwt>
<pdfrwt beam="2">  1       -3 0.59733581E-01 0.11957816E+04</pdfrwt>
<totfact> 0.21418613E+00</totfact>
</mgrwt>
</event>
<event>
12    7  0.2492439E-007  0.2949939E+04  0.7818608E-02  0.8258172E-01
          2   -1    0    0  501    0  0.00000000000E+00  0.00000000000E+00  0.34864858449E+04  0.34864858449E+04  0.00000000000E+00 0. -1.
         -1   -1    0    0    0  501 -0.00000000000E+00 -0.00000000000E+00 -0.62399075601E+03  0.62399075601E+03  0.00000000000E+00 0.  1.
         24    2    1    2    0    0 -0.12573480408E+03 -0.13161565338E+04  0.15706722474E+04  0.20546790012E+04  0.81346338030E+02 0.  0.
        254    2    1    2    0    0  0.12573480408E+03  0.13161565338E+04  0.12918228415E+04  0.20557975998E+04  0.89967786170E+03 0.  0.
         23    2    4    4    0    0 -0.30599572817E+03  0.56206727145E+03  0.87586084189E+03  0.10881994683E+04  0.86561337280E+02 0.  0.
         23    2    4    4    0    0  0.43173053225E+03  0.75408926236E+03  0.41596199962E+03  0.96759813147E+03  0.90442748811E+02 0.  0.
          2    1    3    3  502    0 -0.11604833257E+03 -0.12969520851E+04  0.15542305799E+04  0.20276056377E+04  0.00000000000E+00 0. -1.
         -1    1    3    3    0  502 -0.96864715021E+01 -0.19204448734E+02  0.16441667538E+02  0.27073363528E+02  0.00000000000E+00 0.  1.
         13    1    5    5    0    0 -0.83398372300E+01 -0.81751996345E+00  0.17983499141E+02  0.19840047008E+02  0.00000000000E+00 0.  1.
        -13    1    5    5    0    0 -0.29765589094E+03  0.56288479141E+03  0.85787734275E+03  0.10683594213E+04  0.00000000000E+00 0. -1.
          3    1    6    6  503    0  0.28977519014E+03  0.47804972419E+03  0.31233906569E+03  0.64035684706E+03  0.00000000000E+00 0. -1.
         -3    1    6    6    0  503  0.14195534210E+03  0.27603953818E+03  0.10362293393E+03  0.32724128442E+03  0.00000000000E+00 0.  1.
<mgrwt>
<rscale>  0 0.29499389E+04</rscale>
<asrwt>0</asrwt>
<pdfrwt beam="1">  1        2 0.53638243E+00 0.29499389E+04</pdfrwt>
<pdfrwt beam="2">  1       -1 0.95998580E-01 0.29499389E+04</pdfrwt>
<totfact> 0.84802387E-01</totfact>
</mgrwt>
</event>
<event>
12    7  0.2492439E-007  0.1157462E+04  0.7818608E-02  0.9150927E-01
         -1   -1    0    0    0  501 -0.00000000000E+00  0.00000000000E+00  0.27448318901E+03  0.27448318901E+03  0.00000000000E+00 0.  1.
          2   -1    0    0  501    0  0.00000000000E+00 -0.00000000000E+00 -0.12202183897E+04  0.12202183897E+04  0.00000000000E+00 0. -1.
         24    2    1    2    0    0  0.17992858976E+03 -0.10633162127E+03 -0.11600819311E+03  0.25205046396E+03  0.79942632037E+02 0.  0.
        254    2    1    2    0    0 -0.17992858976E+03  0.10633162127E+03 -0.82972700763E+03  0.12426511148E+04  0.90114048562E+03 0.  0.
         23    2    4    4    0    0  0.33266282150E+03 -0.10316065046E+03 -0.38538889149E+03  0.52683247465E+03  0.87870279665E+02 0.  0.
         23    2    4    4    0    0 -0.51259141126E+03  0.20949227174E+03 -0.44433811614E+03  0.71581864015E+03  0.91230462632E+02 0.  0.
          2    1    3    3  502    0  0.10583056659E+03 -0.42628198655E+02 -0.10255689561E+03  0.15341182804E+03  0.00000000000E+00 0. -1.
         -1    1    3    3    0  502  0.74098023170E+02 -0.63703422616E+02 -0.13451297495E+02  0.98638635914E+02  0.00000000000E+00 0.  1.
         13    1    5    5    0    0  0.19218645228E+03 -0.31635493776E+02 -0.26295804604E+03  0.32723595598E+03  0.00000000000E+00 0.  1.
        -13    1    5    5    0    0  0.14047636922E+03 -0.71525156688E+02 -0.12243084545E+03  0.19959651867E+03  0.00000000000E+00 0. -1.
          2    1    6    6  503    0 -0.46918360711E+03  0.18739476067E+03 -0.43397148589E+03  0.66601899678E+03  0.00000000000E+00 0. -1.
         -2    1    6    6    0  503 -0.43407804158E+02  0.22097511063E+02 -0.10366630247E+02  0.49799643368E+02  0.00000000000E+00 0.  1.
<mgrwt>
<rscale>  0 0.11574618E+04</rscale>
<asrwt>0</asrwt>
<pdfrwt beam="1">  1        2 0.18772590E+00 0.11574618E+04</pdfrwt>
<pdfrwt beam="2">  1       -1 0.42228183E-01 0.11574618E+04</pdfrwt>
<totfact> 0.11445391E+02</totfact>
</mgrwt>
</event>
<event>
12    7  0.2492439E-007  0.1515990E+04  0.7818608E-02  0.8873889E-01
         -1   -1    0    0    0  501 -0.00000000000E+00  0.00000000000E+00  0.59093517284E+03  0.59093517284E+03  0.00000000000E+00 0.  1.
          2   -1    0    0  501    0  0.00000000000E+00 -0.00000000000E+00 -0.97228336340E+03  0.97228336340E+03  0.00000000000E+00 0. -1.
         24    2    1    2    0    0 -0.82982443615E+02  0.31313435909E+03 -0.49126888523E+03  0.59383701307E+03  0.79737492484E+02 0.  0.
        254    2    1    2    0    0  0.82982443615E+02 -0.31313435909E+03  0.10992069467E+03  0.96938152316E+03  0.90701640864E+03 0.  0.
         23    2    4    4    0    0 -0.27871823135E+03 -0.29852402140E+03  0.33293105033E+03  0.53451452985E+03  0.89790057968E+02 0.  0.
         23    2    4    4    0    0  0.36170067496E+03 -0.14610337688E+02 -0.22301035566E+03  0.43486699331E+03  0.91295360821E+02 0.  0.
          2    1    3    3  502    0 -0.17087622365E+02  0.50926384350E+02 -0.14427677004E+03  0.15395216736E+03  0.00000000000E+00 0. -1.
         -1    1    3    3    0  502 -0.65894821250E+02  0.26220797474E+03 -0.34699211520E+03  0.43988484572E+03  0.00000000000E+00 0.  1.
         13    1    5    5    0    0 -0.28210224428E+03 -0.28225754889E+03  0.32957950978E+03  0.51756511996E+03  0.00000000000E+00 0. -1.
        -13    1    5    5    0    0  0.33840129329E+01 -0.16266472511E+02  0.33515405424E+01  0.16949409886E+02  0.00000000000E+00 0.  1.
          3    1    6    6  503    0 -0.45748962127E+01  0.38567940381E+01 -0.71171888973E+01  0.92983285277E+01  0.00000000000E+00 0.  1.
         -3    1    6    6    0  503  0.36627557117E+03 -0.18467131726E+02 -0.21589316676E+03  0.42556866478E+03  0.00000000000E+00 0. -1.
<mgrwt>
<rscale>  0 0.15159900E+04</rscale>
<asrwt>0</asrwt>
<pdfrwt beam="1">  1        2 0.14958205E+00 0.15159900E+04</pdfrwt>
<pdfrwt beam="2">  1       -1 0.90913105E-01 0.15159900E+04</pdfrwt>
<totfact> 0.34154616E+01</totfact>
</mgrwt>
</event>
<event>
12    7  0.2492439E-007  0.1578529E+04  0.7818608E-02  0.8833848E-01
         -1   -1    0    0    0  501 -0.00000000000E+00  0.00000000000E+00  0.37560569321E+03  0.37560569321E+03  0.00000000000E+00 0.  1.
          2   -1    0    0  501    0  0.00000000000E+00 -0.00000000000E+00 -0.16584903146E+04  0.16584903146E+04  0.00000000000E+00 0. -1.
         24    2    1    2    0    0 -0.44473098954E+01 -0.17692985033E+02 -0.11099604783E+04  0.11130574717E+04  0.80943510106E+02 0.  0.
        254    2    1    2    0    0  0.44473098954E+01  0.17692985033E+02 -0.17292414311E+03  0.92103853605E+03  0.90447576271E+03 0.  0.
         23    2    4    4    0    0 -0.18555033545E+03  0.24083602795E+03 -0.42023347324E+03  0.52745929693E+03  0.95844762748E+02 0.  0.
         23    2    4    4    0    0  0.18999764534E+03 -0.22314304291E+03  0.24730933013E+03  0.39357923912E+03  0.88604683072E+02 0.  0.
          4    1    3    3  502    0 -0.45404483834E+01  0.24902000013E+02 -0.77315168022E+03  0.77356592861E+03  0.00000000000E+00 0. -1.
         -3    1    3    3    0  502  0.93138488017E-01 -0.42594985046E+02 -0.33680879804E+03  0.33949154314E+03  0.00000000000E+00 0.  1.
         13    1    5    5    0    0 -0.13217692161E+03  0.15243226360E+03 -0.34510838703E+03  0.39975759203E+03  0.00000000000E+00 0.  1.
        -13    1    5    5    0    0 -0.53373413840E+02  0.88403764342E+02 -0.75125086210E+02  0.12770170489E+03  0.00000000000E+00 0. -1.
          4    1    6    6  503    0  0.15343981657E+03 -0.22001619706E+03  0.20518247931E+03  0.33771401229E+03  0.00000000000E+00 0. -1.
         -4    1    6    6    0  503  0.36557828776E+02 -0.31268458525E+01  0.42126850814E+02  0.55865226835E+02  0.00000000000E+00 0.  1.
<mgrwt>
<rscale>  0 0.15785289E+04</rscale>
<asrwt>0</asrwt>
<pdfrwt beam="1">  1        2 0.25515235E+00 0.15785289E+04</pdfrwt>
<pdfrwt beam="2">  1       -1 0.57785492E-01 0.15785289E+04</pdfrwt>
<totfact> 0.34334066E+01</totfact>
</mgrwt>
</event>
<event>
12    7  0.2492439E-007  0.1145176E+04  0.7818608E-02  0.9162245E-01
          2   -1    0    0  501    0  0.00000000000E+00  0.00000000000E+00  0.18133765778E+04  0.18133765778E+04  0.00000000000E+00 0. -1.
         -1   -1    0    0    0  501 -0.00000000000E+00 -0.00000000000E+00 -0.18079920962E+03  0.18079920962E+03  0.00000000000E+00 0.  1.
         24    2    1    2    0    0  0.51692936842E+01  0.17157721061E+03  0.11812637061E+03  0.22366949243E+03  0.81294167133E+02 0.  0.
        254    2    1    2    0    0 -0.51692936842E+01 -0.17157721061E+03  0.15144509976E+04  0.17705062950E+04  0.90092466707E+03 0.  0.
         23    2    4    4    0    0 -0.95914144140E+02  0.29047900258E+03  0.10708382020E+04  0.11171821133E+04  0.88452504212E+02 0.  0.
         23    2    4    4    0    0  0.90744850456E+02 -0.46205621320E+03  0.44361279557E+03  0.65332418165E+03  0.91157017851E+02 0.  0.
          4    1    3    3  502    0 -0.22388606043E+02  0.11548330796E+03  0.10925783126E+03  0.16054568755E+03  0.00000000000E+00 0. -1.
         -3    1    3    3    0  502  0.27557899727E+02  0.56093902650E+02  0.88685393462E+01  0.63123804876E+02  0.00000000000E+00 0.  1.
         13    1    5    5    0    0 -0.10561901503E+03  0.19760463957E+03  0.71420786708E+03  0.74852912256E+03  0.00000000000E+00 0. -1.
        -13    1    5    5    0    0  0.97048708887E+01  0.92874363007E+02  0.35663033490E+03  0.36865299076E+03  0.00000000000E+00 0.  1.
          3    1    6    6  503    0  0.47611082710E+02 -0.79192750150E+02  0.11012978936E+03  0.14375979054E+03  0.00000000000E+00 0. -1.
         -3    1    6    6    0  503  0.43133767746E+02 -0.38286346305E+03  0.33348300621E+03  0.50956439111E+03  0.00000000000E+00 0.  1.
<mgrwt>
<rscale>  0 0.11451761E+04</rscale>
<asrwt>0</asrwt>
<pdfrwt beam="1">  1        2 0.27898100E+00 0.11451761E+04</pdfrwt>
<pdfrwt beam="2">  1       -1 0.27815264E-01 0.11451761E+04</pdfrwt>
<totfact> 0.11149544E+02</totfact>
</mgrwt>
</event>
<event>
12    7  0.2492439E-007  0.1299571E+04  0.7818608E-02  0.9029905E-01
         -1   -1    0    0    0  501 -0.00000000000E+00  0.00000000000E+00  0.21253811365E+03  0.21253811365E+03  0.00000000000E+00 0.  1.
          2   -1    0    0  501    0  0.00000000000E+00 -0.00000000000E+00 -0.19865674808E+04  0.19865674808E+04  0.00000000000E+00 0. -1.
         24    2    1    2    0    0  0.12150996700E+03 -0.17638157222E+03 -0.89193341723E+03  0.92109221342E+03  0.83609292294E+02 0.  0.
        254    2    1    2    0    0 -0.12150996700E+03  0.17638157222E+03 -0.88209594988E+03  0.12780133810E+04  0.89963870865E+03 0.  0.
         23    2    4    4    0    0 -0.22534214973E+03  0.38732136716E+03 -0.91568253931E+03  0.10236218515E+04  0.92359385818E+02 0.  0.
         23    2    4    4    0    0  0.10383218273E+03 -0.21093979495E+03  0.33586589427E+02  0.25439152950E+03  0.91160693459E+02 0.  0.
          4    1    3    3  502    0  0.51041909013E+02 -0.13319111401E+03 -0.64881781992E+03  0.66431145765E+03  0.00000000000E+00 0. -1.
         -3    1    3    3    0  502  0.70468057989E+02 -0.43190458205E+02 -0.24311559731E+03  0.25678075577E+03  0.00000000000E+00 0.  1.
         13    1    5    5    0    0 -0.13788186398E+03  0.31563746127E+03 -0.68960709894E+03  0.77084133665E+03  0.00000000000E+00 0.  1.
        -13    1    5    5    0    0 -0.87460285752E+02  0.71683905888E+02 -0.22607544036E+03  0.25278051484E+03  0.00000000000E+00 0. -1.
          2    1    6    6  503    0  0.44607264261E+02 -0.38230908155E+02 -0.23229208919E+02  0.63174413414E+02  0.00000000000E+00 0. -1.
         -2    1    6    6    0  503  0.59224918469E+02 -0.17270888679E+03  0.56815798346E+02  0.19121711609E+03  0.00000000000E+00 0.  1.
<mgrwt>
<rscale>  0 0.12995712E+04</rscale>
<asrwt>0</asrwt>
<pdfrwt beam="1">  1        2 0.30562577E+00 0.12995712E+04</pdfrwt>
<pdfrwt beam="2">  1       -1 0.32698171E-01 0.12995712E+04</pdfrwt>
<totfact> 0.66561185E+01</totfact>
</mgrwt>
</event>
<event>
12    7  0.2492439E-007  0.1531249E+04  0.7818608E-02  0.8863935E-01
         -1   -1    0    0    0  501 -0.00000000000E+00  0.00000000000E+00  0.45397014117E+03  0.45397014117E+03  0.00000000000E+00 0.  1.
          2   -1    0    0  501    0  0.00000000000E+00 -0.00000000000E+00 -0.12912321586E+04  0.12912321586E+04  0.00000000000E+00 0. -1.
         24    2    1    2    0    0  0.40904120329E+03 -0.24526442406E+03 -0.11060387553E+03  0.49560093434E+03  0.76926751816E+02 0.  0.
        254    2    1    2    0    0 -0.40904120329E+03  0.24526442406E+03 -0.72665814187E+03  0.12496013654E+04  0.89777623803E+03 0.  0.
         23    2    4    4    0    0 -0.24699456423E+03 -0.16546009735E+03  0.84461203807E+02  0.32149985368E+03  0.88572582641E+02 0.  0.
         23    2    4    4    0    0 -0.16204663906E+03  0.41072452140E+03 -0.81111934567E+03  0.92810151172E+03  0.92217554837E+02 0.  0.
          4    1    3    3  502    0  0.29999081380E+03 -0.15602668757E+03 -0.10692756104E+03  0.35464393257E+03  0.00000000000E+00 0. -1.
         -3    1    3    3    0  502  0.10905038949E+03 -0.89237736489E+02 -0.36763144891E+01  0.14095700178E+03  0.00000000000E+00 0.  1.
         13    1    5    5    0    0 -0.15152948637E+03 -0.64494276719E+02  0.12860586271E+02  0.16518502247E+03  0.00000000000E+00 0. -1.
        -13    1    5    5    0    0 -0.95465077866E+02 -0.10096582063E+03  0.71600617536E+02  0.15631483122E+03  0.00000000000E+00 0.  1.
          2    1    6    6  503    0  0.96929545907E+01  0.55052156833E+02 -0.10992483980E+03  0.12332138397E+03  0.00000000000E+00 0. -1.
         -2    1    6    6    0  503 -0.17173959365E+03  0.35567236457E+03 -0.70119450588E+03  0.80478012775E+03  0.00000000000E+00 0.  1.
<mgrwt>
<rscale>  0 0.15312490E+04</rscale>
<asrwt>0</asrwt>
<pdfrwt beam="1">  1        2 0.19865110E+00 0.15312490E+04</pdfrwt>
<pdfrwt beam="2">  1       -1 0.69841562E-01 0.15312490E+04</pdfrwt>
<totfact> 0.38104032E+01</totfact>
</mgrwt>
</event>
<event>
12    7  0.2492439E-007  0.2803711E+04  0.7818608E-02  0.8302117E-01
          2   -1    0    0  501    0  0.00000000000E+00  0.00000000000E+00  0.23082493378E+04  0.23082493378E+04  0.00000000000E+00 0. -1.
         -1   -1    0    0    0  501 -0.00000000000E+00 -0.00000000000E+00 -0.85138089819E+03  0.85138089819E+03  0.00000000000E+00 0.  1.
         24    2    1    2    0    0  0.10001502003E+04  0.37774042824E+03  0.13970813318E+04  0.17610174399E+04  0.79736577763E+02 0.  0.
        254    2    1    2    0    0 -0.10001502003E+04 -0.37774042824E+03  0.59787107793E+02  0.13986127960E+04  0.89975274426E+03 0.  0.
         23    2    4    4    0    0 -0.90698018618E+02 -0.45526493764E+03 -0.46276786812E+02  0.47498035407E+03  0.89288866766E+02 0.  0.
         23    2    4    4    0    0 -0.90945218164E+03  0.77524509395E+02  0.10606389461E+03  0.92363244198E+03  0.93455967652E+02 0.  0.
          4    1    3    3  502    0  0.31977544886E+03  0.85513036518E+02  0.45880197224E+03  0.56574558491E+03  0.00000000000E+00 0. -1.
         -3    1    3    3    0  502  0.68037475140E+03  0.29222739173E+03  0.93827935954E+03  0.11952718550E+04  0.00000000000E+00 0.  1.
         13    1    5    5    0    0 -0.62254244229E+02 -0.12319439456E+03  0.30447008694E+01  0.13806418790E+03  0.00000000000E+00 0.  1.
        -13    1    5    5    0    0 -0.28443774388E+02 -0.33207054308E+03 -0.49321487681E+02  0.33691616617E+03  0.00000000000E+00 0. -1.
          1    1    6    6  503    0 -0.57995609134E+03  0.38182975271E+02  0.23538143078E+02  0.58168810514E+03  0.00000000000E+00 0. -1.
         -1    1    6    6    0  503 -0.32949609030E+03  0.39341534125E+02  0.82525751527E+02  0.34194433684E+03  0.00000000000E+00 0.  1.
<mgrwt>
<rscale>  0 0.28037114E+04</rscale>
<asrwt>0</asrwt>
<pdfrwt beam="1">  1        2 0.35511528E+00 0.28037114E+04</pdfrwt>
<pdfrwt beam="2">  1       -1 0.13098168E+00 0.28037114E+04</pdfrwt>
<totfact> 0.22070139E+00</totfact>
</mgrwt>
</event>
<event>
12    7  0.2492439E-007  0.3130866E+04  0.7818608E-02  0.8207318E-01
         -3   -1    0    0    0  501 -0.00000000000E+00  0.00000000000E+00  0.77647526111E+03  0.77647526111E+03  0.00000000000E+00 0.  1.
          2   -1    0    0  501    0  0.00000000000E+00 -0.00000000000E+00 -0.31560323786E+04  0.31560323786E+04  0.00000000000E+00 0. -1.
         24    2    1    2    0    0 -0.17729633749E+03 -0.10826453599E+04 -0.22551081164E+04  0.25090727339E+04  0.79864889775E+02 0.  0.
        254    2    1    2    0    0  0.17729633749E+03  0.10826453599E+04 -0.12444900114E+03  0.14234349059E+04  0.89840102996E+03 0.  0.
         23    2    4    4    0    0  0.42875307653E+03  0.52933540006E+03  0.21644160463E+03  0.72054997912E+03  0.91214789399E+02 0.  0.
         23    2    4    4    0    0 -0.25145673904E+03  0.55330995989E+03 -0.34089060577E+03  0.70288492674E+03  0.91969624429E+02 0.  0.
          4    1    3    3  502    0 -0.80537333715E+02 -0.72510178528E+03 -0.14989861541E+04  0.16670987827E+04  0.00000000000E+00 0. -1.
         -3    1    3    3    0  502 -0.96759003774E+02 -0.35754357467E+03 -0.75612196234E+03  0.84197395122E+03  0.00000000000E+00 0.  1.
         13    1    5    5    0    0  0.39117576640E+03  0.51569754346E+03  0.20528867103E+03  0.67904777078E+03  0.00000000000E+00 0.  1.
        -13    1    5    5    0    0  0.37577310134E+02  0.13637856605E+02  0.11152933603E+02  0.41502208346E+02  0.00000000000E+00 0. -1.
          3    1    6    6  503    0 -0.54198359341E+02  0.48696995383E+02 -0.42574819600E+02  0.84388830887E+02  0.00000000000E+00 0. -1.
         -3    1    6    6    0  503 -0.19725837970E+03  0.50461296450E+03 -0.29831578617E+03  0.61849609585E+03  0.00000000000E+00 0.  1.
<mgrwt>
<rscale>  0 0.31308664E+04</rscale>
<asrwt>0</asrwt>
<pdfrwt beam="1">  1        2 0.48554344E+00 0.31308664E+04</pdfrwt>
<pdfrwt beam="2">  1       -3 0.11945773E+00 0.31308664E+04</pdfrwt>
<totfact> 0.42810054E-01</totfact>
</mgrwt>
</event>
<event>
12    7  0.2492439E-007  0.2064108E+04  0.7818608E-02  0.8577221E-01
          2   -1    0    0  501    0  0.00000000000E+00  0.00000000000E+00  0.81899704072E+03  0.81899704072E+03  0.00000000000E+00 0. -1.
         -1   -1    0    0    0  501 -0.00000000000E+00 -0.00000000000E+00 -0.13005359075E+04  0.13005359075E+04  0.00000000000E+00 0.  1.
         24    2    1    2    0    0 -0.95054459296E+02 -0.26873681691E+03 -0.99900853519E+03  0.10419614573E+04  0.80067459353E+02 0.  0.
        254    2    1    2    0    0  0.95054459296E+02  0.26873681691E+03  0.51746966841E+03  0.10775714910E+04  0.90118290785E+03 0.  0.
         23    2    4    4    0    0 -0.20801850071E+02  0.15543247374E+03 -0.23808888617E+03  0.29908829435E+03  0.90418577975E+02 0.  0.
         23    2    4    4    0    0  0.11585630937E+03  0.11330434317E+03  0.75555855458E+03  0.77848319661E+03  0.94375841172E+02 0.  0.
          2    1    3    3  502    0 -0.92269614811E+01 -0.10856514239E+03 -0.28290324415E+03  0.30315964855E+03  0.00000000000E+00 0. -1.
         -1    1    3    3    0  502 -0.85827497814E+02 -0.16017167452E+03 -0.71610529104E+03  0.73880180871E+03  0.00000000000E+00 0.  1.
         13    1    5    5    0    0 -0.45645970941E+02  0.14402291581E+03 -0.21767450647E+03  0.26496857494E+03  0.00000000000E+00 0. -1.
        -13    1    5    5    0    0  0.24844120870E+02  0.11409557922E+02 -0.20414379702E+02  0.34119719407E+02  0.00000000000E+00 0.  1.
          2    1    6    6  503    0  0.10121982104E+03  0.73292875109E+02  0.68301958119E+03  0.69435800997E+03  0.00000000000E+00 0. -1.
         -2    1    6    6    0  503  0.14636488331E+02  0.40011468059E+02  0.72538973388E+02  0.84125186640E+02  0.00000000000E+00 0.  1.
<mgrwt>
<rscale>  0 0.20641076E+04</rscale>
<asrwt>0</asrwt>
<pdfrwt beam="1">  1        2 0.12599954E+00 0.20641076E+04</pdfrwt>
<pdfrwt beam="2">  1       -1 0.20008245E+00 0.20641076E+04</pdfrwt>
<totfact> 0.52910550E+00</totfact>
</mgrwt>
</event>
<event>
12    7  0.2492439E-007  0.1715226E+04  0.7818608E-02  0.8752728E-01
          2   -1    0    0  501    0  0.00000000000E+00  0.00000000000E+00  0.67002229680E+03  0.67002229680E+03  0.00000000000E+00 0. -1.
         -1   -1    0    0    0  501 -0.00000000000E+00 -0.00000000000E+00 -0.10977247196E+04  0.10977247196E+04  0.00000000000E+00 0.  1.
         24    2    1    2    0    0  0.22194373552E+03 -0.57613489738E+03 -0.11785662063E+03  0.63359766667E+03  0.79783321984E+02 0.  0.
        254    2    1    2    0    0 -0.22194373552E+03  0.57613489738E+03 -0.30984580219E+03  0.11341493498E+04  0.89949979694E+03 0.  0.
         23    2    4    4    0    0  0.93297055108E+02  0.64378503667E+03 -0.42292669638E+03  0.78065210373E+03  0.85948837218E+02 0.  0.
         23    2    4    4    0    0 -0.31524079063E+03 -0.67650139285E+02  0.11308089420E+03  0.35349724602E+03  0.90662654332E+02 0.  0.
          2    1    3    3  502    0  0.10316994085E+03 -0.35824895188E+03 -0.48634060936E+02  0.37596757853E+03  0.00000000000E+00 0. -1.
         -1    1    3    3    0  502  0.11877379467E+03 -0.21788594550E+03 -0.69222559697E+02  0.25763008815E+03  0.00000000000E+00 0.  1.
         13    1    5    5    0    0  0.22703266116E+02  0.31818017434E+03 -0.16387200734E+03  0.35861971003E+03  0.00000000000E+00 0. -1.
        -13    1    5    5    0    0  0.70593788992E+02  0.32560486233E+03 -0.25905468904E+03  0.42203239370E+03  0.00000000000E+00 0.  1.
          3    1    6    6  503    0 -0.29802181974E+03 -0.80935700163E+02  0.11901056195E+03  0.33095484052E+03  0.00000000000E+00 0. -1.
         -3    1    6    6    0  503 -0.17218970885E+02  0.13285560879E+02 -0.59296677588E+01  0.22542405504E+02  0.00000000000E+00 0.  1.
<mgrwt>
<rscale>  0 0.17152260E+04</rscale>
<asrwt>0</asrwt>
<pdfrwt beam="1">  1        2 0.10308035E+00 0.17152260E+04</pdfrwt>
<pdfrwt beam="2">  1       -1 0.16888073E+00 0.17152260E+04</pdfrwt>
<totfact> 0.11784994E+01</totfact>
</mgrwt>
</event>
<event>
12    7  0.2492439E-007  0.3205238E+04  0.7818608E-02  0.8187435E-01
         -3   -1    0    0    0  501 -0.00000000000E+00  0.00000000000E+00  0.17655616493E+04  0.17655616493E+04  0.00000000000E+00 0.  1.
          2   -1    0    0  501    0  0.00000000000E+00 -0.00000000000E+00 -0.14547141128E+04  0.14547141128E+04  0.00000000000E+00 0. -1.
         24    2    1    2    0    0  0.13263266504E+04 -0.60350924419E+03 -0.79365345731E+02  0.14616149454E+04  0.81569596077E+02 0.  0.
        254    2    1    2    0    0 -0.13263266504E+04  0.60350924419E+03  0.39021288219E+03  0.17586608167E+04  0.90402211437E+03 0.  0.
         23    2    4    4    0    0 -0.31999815389E+03  0.31958984036E+03  0.52689370804E+03  0.70020595745E+03  0.90193784344E+02 0.  0.
         23    2    4    4    0    0 -0.10063284966E+04  0.28391940383E+03 -0.13668082585E+03  0.10584548592E+04  0.91311390623E+02 0.  0.
          4    1    3    3  502    0  0.89755467119E+03 -0.44806022565E+03 -0.65815275108E+02  0.10053327827E+04  0.00000000000E+00 0. -1.
         -1    1    3    3    0  502  0.42877197926E+03 -0.15544901854E+03 -0.13550070623E+02  0.45628216268E+03  0.00000000000E+00 0.  1.
         13    1    5    5    0    0 -0.10784151101E+03  0.13901683111E+03  0.26328318963E+03  0.31665992606E+03  0.00000000000E+00 0. -1.
        -13    1    5    5    0    0 -0.21215664287E+03  0.18057300925E+03  0.26361051840E+03  0.38354603139E+03  0.00000000000E+00 0.  1.
          2    1    6    6  503    0 -0.80467639964E+03  0.21174826736E+03 -0.74321145669E+02  0.83538318727E+03  0.00000000000E+00 0. -1.
         -2    1    6    6    0  503 -0.20165209692E+03  0.72171136468E+02 -0.62359680178E+02  0.22307167198E+03  0.00000000000E+00 0.  1.
<mgrwt>
<rscale>  0 0.32052379E+04</rscale>
<asrwt>0</asrwt>
<pdfrwt beam="1">  1        2 0.22380217E+00 0.32052379E+04</pdfrwt>
<pdfrwt beam="2">  1       -3 0.27162487E+00 0.32052379E+04</pdfrwt>
<totfact> 0.39128298E-01</totfact>
</mgrwt>
</event>
<event>
12    7  0.2492439E-007  0.1396896E+04  0.7818608E-02  0.8956068E-01
         -1   -1    0    0    0  501 -0.00000000000E+00  0.00000000000E+00  0.43198513480E+03  0.43198513480E+03  0.00000000000E+00 0.  1.
          2   -1    0    0  501    0  0.00000000000E+00 -0.00000000000E+00 -0.11292746523E+04  0.11292746523E+04  0.00000000000E+00 0. -1.
         24    2    1    2    0    0 -0.37263335265E+03  0.10476300949E+03 -0.80144416221E+02  0.40340224361E+03  0.80494341641E+02 0.  0.
        254    2    1    2    0    0  0.37263335265E+03 -0.10476300949E+03 -0.61714510132E+03  0.11578575435E+04  0.89996395004E+03 0.  0.
         23    2    4    4    0    0 -0.19470496264E+03 -0.18690940254E+03 -0.48466423624E+03  0.56245710295E+03  0.92808531608E+02 0.  0.
         23    2    4    4    0    0  0.56733831529E+03  0.82146393055E+02 -0.13248086508E+03  0.59540044058E+03  0.91267251217E+02 0.  0.
          2    1    3    3  502    0 -0.33851671935E+03  0.89936082109E+02 -0.95673799850E+02  0.36309164700E+03  0.00000000000E+00 0. -1.
         -1    1    3    3    0  502 -0.34116633298E+02  0.14826927380E+02  0.15529383629E+02  0.40310596610E+02  0.00000000000E+00 0.  1.
         13    1    5    5    0    0 -0.15508173597E+02 -0.53707061861E+01 -0.97125242078E+02  0.98502084151E+02  0.00000000000E+00 0. -1.
        -13    1    5    5    0    0 -0.17919678904E+03 -0.18153869636E+03 -0.38753899416E+03  0.46395501880E+03  0.00000000000E+00 0.  1.
          1    1    6    6  503    0  0.10316231921E+03 -0.18801515122E+02 -0.13735299784E+02  0.10575736162E+03  0.00000000000E+00 0. -1.
         -1    1    6    6    0  503  0.46417599607E+03  0.10094790818E+03 -0.11874556530E+03  0.48964307896E+03  0.00000000000E+00 0.  1.
<mgrwt>
<rscale>  0 0.13968964E+04</rscale>
<asrwt>0</asrwt>
<pdfrwt beam="1">  1        2 0.17373456E+00 0.13968964E+04</pdfrwt>
<pdfrwt beam="2">  1       -1 0.66459252E-01 0.13968964E+04</pdfrwt>
<totfact> 0.53242023E+01</totfact>
</mgrwt>
</event>
<event>
12    7  0.2492439E-007  0.2695951E+04  0.7818608E-02  0.8336320E-01
          2   -1    0    0  501    0  0.00000000000E+00  0.00000000000E+00  0.13487961743E+04  0.13487961743E+04  0.00000000000E+00 0. -1.
         -1   -1    0    0    0  501 -0.00000000000E+00 -0.00000000000E+00 -0.13471550985E+04  0.13471550985E+04  0.00000000000E+00 0.  1.
         24    2    1    2    0    0  0.14309102402E+03  0.89387643942E+03 -0.78125254683E+03  0.11984237432E+04  0.79836058292E+02 0.  0.
        254    2    1    2    0    0 -0.14309102402E+03 -0.89387643942E+03  0.78289362260E+03  0.14975275296E+04  0.90009785439E+03 0.  0.
         23    2    4    4    0    0  0.14669347576E+03  0.63298366405E+02  0.36658006041E+03  0.41001022592E+03  0.90563710439E+02 0.  0.
         23    2    4    4    0    0 -0.28978449979E+03 -0.95717480583E+03  0.41631356219E+03  0.10875173037E+04  0.96011658184E+02 0.  0.
          4    1    3    3  502    0  0.45685526111E+02  0.40498621490E+03 -0.39771502321E+03  0.56945433640E+03  0.00000000000E+00 0. -1.
         -3    1    3    3    0  502  0.97405497912E+02  0.48889022452E+03 -0.38353752362E+03  0.62896940679E+03  0.00000000000E+00 0.  1.
         13    1    5    5    0    0  0.38480378826E+02  0.43076118430E+02  0.21530941162E+03  0.22292248488E+03  0.00000000000E+00 0. -1.
        -13    1    5    5    0    0  0.10821309694E+03  0.20222247974E+02  0.15127064879E+03  0.18708774104E+03  0.00000000000E+00 0.  1.
          3    1    6    6  503    0 -0.11760673493E+03 -0.55271148117E+03  0.23223667497E+03  0.61094615042E+03  0.00000000000E+00 0. -1.
         -3    1    6    6    0  503 -0.17217776486E+03 -0.40446332466E+03  0.18407688722E+03  0.47657115326E+03  0.00000000000E+00 0.  1.
<mgrwt>
<rscale>  0 0.26959508E+04</rscale>
<asrwt>0</asrwt>
<pdfrwt beam="1">  1        2 0.20750710E+00 0.26959508E+04</pdfrwt>
<pdfrwt beam="2">  1       -1 0.20725463E+00 0.26959508E+04</pdfrwt>
<totfact> 0.20779343E+00</totfact>
</mgrwt>
</event>
<event>
12    7  0.2492439E-007  0.1932038E+04  0.7818608E-02  0.8639071E-01
         -1   -1    0    0    0  501 -0.00000000000E+00  0.00000000000E+00  0.91272195952E+03  0.91272195952E+03  0.00000000000E+00 0.  1.
          2   -1    0    0  501    0  0.00000000000E+00 -0.00000000000E+00 -0.10224284746E+04  0.10224284746E+04  0.00000000000E+00 0. -1.
         24    2    1    2    0    0  0.24119235147E+03  0.69681752600E+03 -0.20111972591E+03  0.76830150201E+03  0.78164179068E+02 0.  0.
        254    2    1    2    0    0 -0.24119235147E+03 -0.69681752600E+03  0.91413210819E+02  0.11668489321E+04  0.89969530416E+03 0.  0.
         23    2    4    4    0    0 -0.40617572764E+03 -0.95828202058E+02 -0.20125656776E+03  0.47218062295E+03  0.91041576121E+02 0.  0.
         23    2    4    4    0    0  0.16498337618E+03 -0.60098932394E+03  0.29266977858E+03  0.69466830917E+03  0.92199666863E+02 0.  0.
          2    1    3    3  502    0  0.75043231820E+02  0.13621232525E+03 -0.60899130690E+02  0.16701493440E+03  0.00000000000E+00 0. -1.
         -1    1    3    3    0  502  0.16614911965E+03  0.56060520075E+03 -0.14022059522E+03  0.60128656761E+03  0.00000000000E+00 0.  1.
         13    1    5    5    0    0 -0.36088465588E+03 -0.59731837084E+02 -0.15187448238E+03  0.39607005139E+03  0.00000000000E+00 0. -1.
        -13    1    5    5    0    0 -0.45291071765E+02 -0.36096364974E+02 -0.49382085383E+02  0.76110571557E+02  0.00000000000E+00 0.  1.
          4    1    6    6  503    0  0.28407980733E+02 -0.24716757053E+03  0.89435744583E+02  0.26438149273E+03  0.00000000000E+00 0. -1.
         -4    1    6    6    0  503  0.13657539544E+03 -0.35382175342E+03  0.20323403399E+03  0.43028681645E+03  0.00000000000E+00 0.  1.
<mgrwt>
<rscale>  0 0.19320382E+04</rscale>
<asrwt>0</asrwt>
<pdfrwt beam="1">  1        2 0.15729669E+00 0.19320382E+04</pdfrwt>
<pdfrwt beam="2">  1       -1 0.14041876E+00 0.19320382E+04</pdfrwt>
<totfact> 0.10800610E+01</totfact>
</mgrwt>
</event>
<event>
12    7  0.2492439E-007  0.4605292E+04  0.7818608E-02  0.7892458E-01
         -1   -1    0    0    0  501 -0.00000000000E+00  0.00000000000E+00  0.18513596089E+04  0.18513596089E+04  0.00000000000E+00 0.  1.
          2   -1    0    0  501    0  0.00000000000E+00 -0.00000000000E+00 -0.28639380881E+04  0.28639380881E+04  0.00000000000E+00 0. -1.
         24    2    1    2    0    0  0.12007812839E+04 -0.73755265035E+03 -0.22355015475E+04  0.26437421744E+04  0.77755463487E+02 0.  0.
        254    2    1    2    0    0 -0.12007812839E+04  0.73755265035E+03  0.12229230682E+04  0.20715555227E+04  0.89996769335E+03 0.  0.
         23    2    4    4    0    0 -0.10397315890E+04  0.86796004360E+03  0.12492169363E+04  0.18449261595E+04  0.93878462146E+02 0.  0.
         23    2    4    4    0    0 -0.16104969489E+03 -0.13040739325E+03 -0.26293868116E+02  0.22662936317E+03  0.87899990387E+02 0.  0.
          2    1    3    3  502    0  0.92743639377E+03 -0.53142068518E+03 -0.17061272183E+04  0.20133097859E+04  0.00000000000E+00 0. -1.
         -1    1    3    3    0  502  0.27334489009E+03 -0.20613196517E+03 -0.52937432921E+03  0.63043238847E+03  0.00000000000E+00 0.  1.
         13    1    5    5    0    0 -0.77138384968E+03  0.67363546366E+03  0.98808071815E+03  0.14230675623E+04  0.00000000000E+00 0.  1.
        -13    1    5    5    0    0 -0.26834773929E+03  0.19432457994E+03  0.26113621818E+03  0.42185859716E+03  0.00000000000E+00 0. -1.
          4    1    6    6  503    0 -0.10031046693E+02 -0.48408182825E+01  0.21750761916E+02  0.24436674556E+02  0.00000000000E+00 0. -1.
         -4    1    6    6    0  503 -0.15101864820E+03 -0.12556657497E+03 -0.48044630032E+02  0.20219268861E+03  0.00000000000E+00 0.  1.
<mgrwt>
<rscale>  0 0.46052923E+04</rscale>
<asrwt>0</asrwt>
<pdfrwt beam="1">  1        2 0.44060586E+00 0.46052923E+04</pdfrwt>
<pdfrwt beam="2">  1       -1 0.28482456E+00 0.46052923E+04</pdfrwt>
<totfact> 0.74741662E-02</totfact>
</mgrwt>
</event>
<event>
12    7  0.2492439E-007  0.2489764E+04  0.7818608E-02  0.8406641E-01
         -1   -1    0    0    0  501 -0.00000000000E+00  0.00000000000E+00  0.12270525792E+04  0.12270525792E+04  0.00000000000E+00 0.  1.
          2   -1    0    0  501    0  0.00000000000E+00 -0.00000000000E+00 -0.12629706783E+04  0.12629706783E+04  0.00000000000E+00 0. -1.
         24    2    1    2    0    0  0.66797266051E+02 -0.68345171804E+03 -0.84994078669E+03  0.10955748682E+04  0.79478458599E+02 0.  0.
        254    2    1    2    0    0 -0.66797266051E+02  0.68345171804E+03  0.81402268756E+03  0.13944483893E+04  0.90015845760E+03 0.  0.
         23    2    4    4    0    0  0.16173223016E+02 -0.16872738202E+03  0.39040697973E+03  0.43480983225E+03  0.88946488491E+02 0.  0.
         23    2    4    4    0    0 -0.82970489067E+02  0.85217910006E+03  0.42361570783E+03  0.95963855701E+03  0.91447096937E+02 0.  0.
          4    1    3    3  502    0  0.64956298181E+02 -0.66011016227E+03 -0.83955340694E+03  0.10699601255E+04  0.00000000000E+00 0. -1.
         -3    1    3    3    0  502  0.18409678697E+01 -0.23341555772E+02 -0.10387379754E+02  0.25614742761E+02  0.00000000000E+00 0.  1.
         13    1    5    5    0    0  0.15332283102E+02 -0.15699224647E+03  0.26167429312E+03  0.30554063565E+03  0.00000000000E+00 0.  1.
        -13    1    5    5    0    0  0.84093991426E+00 -0.11735135544E+02  0.12873268661E+03  0.12926919659E+03  0.00000000000E+00 0. -1.
          1    1    6    6  503    0 -0.97143061903E+02  0.70795098220E+03  0.32995412702E+03  0.78708391776E+03  0.00000000000E+00 0.  1.
         -1    1    6    6    0  503  0.14172572836E+02  0.14422811786E+03  0.93661580816E+02  0.17255463924E+03  0.00000000000E+00 0. -1.
<mgrwt>
<rscale>  0 0.24897642E+04</rscale>
<asrwt>0</asrwt>
<pdfrwt beam="1">  1        2 0.19430318E+00 0.24897642E+04</pdfrwt>
<pdfrwt beam="2">  1       -1 0.18877732E+00 0.24897642E+04</pdfrwt>
<totfact> 0.31862319E+00</totfact>
</mgrwt>
</event>
<event>
12    7  0.2492439E-007  0.3523291E+04  0.7818608E-02  0.8108292E-01
         -1   -1    0    0    0  501 -0.00000000000E+00  0.00000000000E+00  0.13663627537E+04  0.13663627537E+04  0.00000000000E+00 0.  1.
          2   -1    0    0  501    0  0.00000000000E+00 -0.00000000000E+00 -0.22712822613E+04  0.22712822613E+04  0.00000000000E+00 0. -1.
         24    2    1    2    0    0 -0.47258087412E+03 -0.10605874506E+04  0.78055353393E+03  0.14014084744E+04  0.80644093937E+02 0.  0.
        254    2    1    2    0    0  0.47258087412E+03  0.10605874506E+04 -0.16854730415E+04  0.22362365406E+04  0.90097506559E+03 0.  0.
         23    2    4    4    0    0  0.52020160364E+02  0.31551384007E+03 -0.12058583194E+04  0.12509474952E+04  0.92305301980E+02 0.  0.
         23    2    4    4    0    0  0.42056071375E+03  0.74507361055E+03 -0.47961472213E+03  0.98528904546E+03  0.93585374535E+02 0.  0.
          4    1    3    3  502    0 -0.21006619140E+03 -0.39777669365E+03  0.27160697423E+03  0.52547545255E+03  0.00000000000E+00 0. -1.
         -3    1    3    3    0  502 -0.26251468272E+03 -0.66281075697E+03  0.50894655969E+03  0.87593302188E+03  0.00000000000E+00 0.  1.
         13    1    5    5    0    0  0.28836239936E+02  0.28388654503E+03 -0.94447106532E+03  0.98663503506E+03  0.00000000000E+00 0.  1.
        -13    1    5    5    0    0  0.23183920429E+02  0.31627295038E+02 -0.26138725409E+03  0.26431246009E+03  0.00000000000E+00 0. -1.
          3    1    6    6  503    0  0.29924144077E+03  0.59672258319E+03 -0.34807623473E+03  0.75284815623E+03  0.00000000000E+00 0. -1.
         -3    1    6    6    0  503  0.12131927298E+03  0.14835102736E+03 -0.13153848740E+03  0.23244088923E+03  0.00000000000E+00 0.  1.
<mgrwt>
<rscale>  0 0.35232914E+04</rscale>
<asrwt>0</asrwt>
<pdfrwt beam="1">  1        2 0.34942804E+00 0.35232914E+04</pdfrwt>
<pdfrwt beam="2">  1       -1 0.21020966E+00 0.35232914E+04</pdfrwt>
<totfact> 0.56236118E-01</totfact>
</mgrwt>
</event>
<event>
12    7  0.2492439E-007  0.2130695E+04  0.7818608E-02  0.8547841E-01
          2   -1    0    0  501    0  0.00000000000E+00  0.00000000000E+00  0.18223478625E+04  0.18223478625E+04  0.00000000000E+00 0. -1.
         -1   -1    0    0    0  501 -0.00000000000E+00 -0.00000000000E+00 -0.62280385464E+03  0.62280385464E+03  0.00000000000E+00 0.  1.
         24    2    1    2    0    0  0.34857779886E+03 -0.34686771948E+03  0.13227769259E+04  0.14127230408E+04  0.64991520019E+02 0.  0.
        254    2    1    2    0    0 -0.34857779886E+03  0.34686771948E+03 -0.12323291800E+03  0.10324286764E+04  0.89938808255E+03 0.  0.
         23    2    4    4    0    0 -0.10498290516E+03  0.60453349596E+03 -0.21488104202E+03  0.65645349353E+03  0.90967954965E+02 0.  0.
         23    2    4    4    0    0 -0.24359489370E+03 -0.25766577648E+03  0.91648124014E+02  0.37597518284E+03  0.85016674067E+02 0.  0.
          4    1    3    3  502    0  0.26776730301E+03 -0.24951427266E+03  0.10518791417E+04  0.11137353499E+04  0.00000000000E+00 0. -1.
         -3    1    3    3    0  502  0.80810495852E+02 -0.97353446819E+02  0.27089778423E+03  0.29898769096E+03  0.00000000000E+00 0.  1.
         13    1    5    5    0    0 -0.75225676989E+02  0.55866768883E+03 -0.18065076981E+03  0.59194863769E+03  0.00000000000E+00 0. -1.
        -13    1    5    5    0    0 -0.29757228170E+02  0.45865807128E+02 -0.34230272203E+02  0.64504855841E+02  0.00000000000E+00 0.  1.
          1    1    6    6  503    0 -0.19245795005E+03 -0.14519782697E+03  0.60362151188E+02  0.24852778675E+03  0.00000000000E+00 0. -1.
         -1    1    6    6    0  503 -0.51136943656E+02 -0.11246794951E+03  0.31285972826E+02  0.12744739609E+03  0.00000000000E+00 0.  1.
<mgrwt>
<rscale>  0 0.21306950E+04</rscale>
<asrwt>0</asrwt>
<pdfrwt beam="1">  1        2 0.28036121E+00 0.21306950E+04</pdfrwt>
<pdfrwt beam="2">  1       -1 0.95815978E-01 0.21306950E+04</pdfrwt>
<totfact> 0.92183169E+00</totfact>
</mgrwt>
</event>
<event>
12    7  0.2492439E-007  0.2434440E+04  0.7818608E-02  0.8426721E-01
          2   -1    0    0  501    0  0.00000000000E+00  0.00000000000E+00  0.12011681767E+04  0.12011681767E+04  0.00000000000E+00 0. -1.
         -1   -1    0    0    0  501 -0.00000000000E+00 -0.00000000000E+00 -0.12334861581E+04  0.12334861581E+04  0.00000000000E+00 0.  1.
         24    2    1    2    0    0  0.59834654762E+03 -0.53959303637E+03 -0.68665057967E+03  0.10617121319E+04  0.81020963571E+02 0.  0.
        254    2    1    2    0    0 -0.59834654762E+03  0.53959303637E+03  0.65433259824E+03  0.13729422028E+04  0.89868788090E+03 0.  0.
         23    2    4    4    0    0 -0.80816079600E+02 -0.15067334696E+03  0.43884518242E+03  0.47896495232E+03  0.87112772972E+02 0.  0.
         23    2    4    4    0    0 -0.51753046802E+03  0.69026638334E+03  0.21548741582E+03  0.89397725052E+03  0.91951252183E+02 0.  0.
          4    1    3    3  502    0  0.17712435733E+03 -0.19570317752E+03 -0.18955289778E+03  0.32496626395E+03  0.00000000000E+00 0. -1.
         -3    1    3    3    0  502  0.42122219029E+03 -0.34388985886E+03 -0.49709768190E+03  0.73674586796E+03  0.00000000000E+00 0.  1.
         13    1    5    5    0    0 -0.16289835076E+02 -0.79479280954E+02  0.11205869711E+03  0.13834546045E+03  0.00000000000E+00 0. -1.
        -13    1    5    5    0    0 -0.64526244524E+02 -0.71194066009E+02  0.32678648531E+03  0.34061949188E+03  0.00000000000E+00 0.  1.
          2    1    6    6  503    0 -0.13510295880E+03  0.16183638831E+03  0.92367950277E+02  0.23016442882E+03  0.00000000000E+00 0. -1.
         -2    1    6    6    0  503 -0.38242750922E+03  0.52842999503E+03  0.12311946554E+03  0.66381282170E+03  0.00000000000E+00 0.  1.
<mgrwt>
<rscale>  0 0.24344398E+04</rscale>
<asrwt>0</asrwt>
<pdfrwt beam="1">  1        2 0.18479510E+00 0.24344398E+04</pdfrwt>
<pdfrwt beam="2">  1       -1 0.18976710E+00 0.24344398E+04</pdfrwt>
<totfact> 0.34279430E+00</totfact>
</mgrwt>
</event>
<event>
12    7  0.2492439E-007  0.2682760E+04  0.7818608E-02  0.8340620E-01
          2   -1    0    0  501    0  0.00000000000E+00  0.00000000000E+00  0.84210356546E+03  0.84210356546E+03  0.00000000000E+00 0. -1.
         -1   -1    0    0    0  501 -0.00000000000E+00 -0.00000000000E+00 -0.21366734045E+04  0.21366734045E+04  0.00000000000E+00 0.  1.
         24    2    1    2    0    0  0.82672112953E+02  0.11864381784E+04 -0.57365608209E+03  0.13228674997E+04  0.80167898793E+02 0.  0.
        254    2    1    2    0    0 -0.82672112953E+02 -0.11864381784E+04 -0.72091375699E+03  0.16559094702E+04  0.89880437208E+03 0.  0.
         23    2    4    4    0    0  0.35526986073E+02 -0.12035131609E+04 -0.83465049379E+03  0.14678466585E+04  0.90698792007E+02 0.  0.
         23    2    4    4    0    0 -0.11819909903E+03  0.17074982529E+02  0.11373673680E+03  0.18806281175E+03  0.90382486287E+02 0.  0.
          4    1    3    3  502    0  0.73640741846E+02  0.63820545363E+03 -0.27906421426E+03  0.70043272024E+03  0.00000000000E+00 0. -1.
         -3    1    3    3    0  502  0.90313711073E+01  0.54823272475E+03 -0.29459186783E+03  0.62243477951E+03  0.00000000000E+00 0.  1.
         13    1    5    5    0    0  0.38634595110E+02 -0.99165280607E+03 -0.64589888642E+03  0.11840833126E+04  0.00000000000E+00 0. -1.
        -13    1    5    5    0    0 -0.31076090370E+01 -0.21186035484E+03 -0.18875160737E+03  0.28376334589E+03  0.00000000000E+00 0.  1.
          4    1    6    6  503    0 -0.12302232473E+03  0.86153204865E+01  0.67052261107E+02  0.14037350835E+03  0.00000000000E+00 0. -1.
         -4    1    6    6    0  503  0.48232256998E+01  0.84596620422E+01  0.46684475691E+02  0.47689303397E+02  0.00000000000E+00 0.  1.
<mgrwt>
<rscale>  0 0.26827600E+04</rscale>
<asrwt>0</asrwt>
<pdfrwt beam="1">  1        2 0.12955440E+00 0.26827600E+04</pdfrwt>
<pdfrwt beam="2">  1       -1 0.32871898E+00 0.26827600E+04</pdfrwt>
<totfact> 0.69112770E-01</totfact>
</mgrwt>
</event>
<event>
12    7  0.2492439E-007  0.3083604E+04  0.7818608E-02  0.8220252E-01
         -1   -1    0    0    0  501 -0.00000000000E+00  0.00000000000E+00  0.52148108560E+03  0.52148108560E+03  0.00000000000E+00 0.  1.
          2   -1    0    0  501    0  0.00000000000E+00 -0.00000000000E+00 -0.45584638058E+04  0.45584638058E+04  0.00000000000E+00 0. -1.
         24    2    1    2    0    0 -0.96399109571E+03  0.91628553882E+03 -0.26160189585E+04  0.29357566645E+04  0.79082111140E+02 0.  0.
        254    2    1    2    0    0  0.96399109571E+03 -0.91628553882E+03 -0.14209637617E+04  0.21441882269E+04  0.89974836441E+03 0.  0.
         23    2    4    4    0    0  0.10792891272E+04 -0.96035810353E+03 -0.12323637546E+04  0.19012674496E+04  0.94576870539E+02 0.  0.
         23    2    4    4    0    0 -0.11529803149E+03  0.44072564712E+02 -0.18860000711E+03  0.24292077727E+03  0.90578774141E+02 0.  0.
          2    1    3    3  502    0 -0.53312181534E+03  0.50038540329E+03 -0.15237853854E+04  0.16901261263E+04  0.00000000000E+00 0. -1.
         -1    1    3    3    0  502 -0.43086928037E+03  0.41590013553E+03 -0.10922335731E+04  0.12456305382E+04  0.00000000000E+00 0.  1.
         13    1    5    5    0    0  0.49252049663E+02 -0.29691941857E+02 -0.70690532265E+02  0.91129178418E+02  0.00000000000E+00 0. -1.
        -13    1    5    5    0    0  0.10300370775E+04 -0.93066616167E+03 -0.11616732223E+04  0.18101382712E+04  0.00000000000E+00 0.  1.
          4    1    6    6  503    0 -0.12389893542E+03  0.47526929760E+02 -0.19169827399E+03  0.23314798627E+03  0.00000000000E+00 0.  1.
         -4    1    6    6    0  503  0.86009039287E+01 -0.34543650481E+01  0.30982668868E+01  0.97727910025E+01  0.00000000000E+00 0. -1.
<mgrwt>
<rscale>  0 0.30836035E+04</rscale>
<asrwt>0</asrwt>
<pdfrwt beam="1">  1        2 0.70130212E+00 0.30836035E+04</pdfrwt>
<pdfrwt beam="2">  1       -1 0.80227859E-01 0.30836035E+04</pdfrwt>
<totfact> 0.16096959E-01</totfact>
</mgrwt>
</event>
<event>
12    7  0.2492439E-007  0.2252801E+04  0.7818608E-02  0.8496767E-01
          2   -1    0    0  501    0  0.00000000000E+00  0.00000000000E+00  0.72549514731E+03  0.72549514731E+03  0.00000000000E+00 0. -1.
         -1   -1    0    0    0  501 -0.00000000000E+00 -0.00000000000E+00 -0.17488438190E+04  0.17488438190E+04  0.00000000000E+00 0.  1.
         24    2    1    2    0    0  0.83061624386E+03  0.42752326151E+03 -0.58419521740E+03  0.11047085994E+04  0.79984710707E+02 0.  0.
        254    2    1    2    0    0 -0.83061624386E+03 -0.42752326151E+03 -0.43915345431E+03  0.13696303669E+04  0.90018448207E+03 0.  0.
         23    2    4    4    0    0 -0.18167952764E+03  0.23984876918E+03 -0.27824831707E+03  0.42054935198E+03  0.94364975811E+02 0.  0.
         23    2    4    4    0    0 -0.64893671622E+03 -0.66737203070E+03 -0.16090513724E+03  0.94908101491E+03  0.91433148505E+02 0.  0.
          4    1    3    3  502    0  0.37480353527E+03  0.17872134211E+03 -0.21537896669E+03  0.46776821981E+03  0.00000000000E+00 0. -1.
         -3    1    3    3    0  502  0.45581270860E+03  0.24880191940E+03 -0.36881625071E+03  0.63694037963E+03  0.00000000000E+00 0.  1.
         13    1    5    5    0    0 -0.13174416527E+03  0.20708039123E+03 -0.17558521146E+03  0.30177637415E+03  0.00000000000E+00 0. -1.
        -13    1    5    5    0    0 -0.49935362373E+02  0.32768377953E+02 -0.10266310561E+03  0.11877297783E+03  0.00000000000E+00 0.  1.
          2    1    6    6  503    0 -0.19142553428E+03 -0.16658450509E+03 -0.87273368240E+01  0.25391002130E+03  0.00000000000E+00 0.  1.
         -2    1    6    6    0  503 -0.45751118195E+03 -0.50078752561E+03 -0.15217780042E+03  0.69517099361E+03  0.00000000000E+00 0. -1.
<mgrwt>
<rscale>  0 0.22528007E+04</rscale>
<asrwt>0</asrwt>
<pdfrwt beam="1">  1        2 0.11161464E+00 0.22528007E+04</pdfrwt>
<pdfrwt beam="2">  1       -1 0.26905289E+00 0.22528007E+04</pdfrwt>
<totfact> 0.21304745E+00</totfact>
</mgrwt>
</event>
<event>
12    7  0.2492439E-007  0.2122438E+04  0.7818608E-02  0.8551423E-01
          2   -1    0    0  501    0  0.00000000000E+00  0.00000000000E+00  0.10171106547E+04  0.10171106547E+04  0.00000000000E+00 0. -1.
         -1   -1    0    0    0  501 -0.00000000000E+00 -0.00000000000E+00 -0.11072404640E+04  0.11072404640E+04  0.00000000000E+00 0.  1.
         24    2    1    2    0    0  0.14127370797E+03  0.82965953744E+03  0.17654569173E+03  0.86359603010E+03  0.79602219211E+02 0.  0.
        254    2    1    2    0    0 -0.14127370797E+03 -0.82965953744E+03 -0.26667550106E+03  0.12607550885E+04  0.90005242168E+03 0.  0.
         23    2    4    4    0    0 -0.46403867406E+03 -0.61322278431E+03 -0.35521790823E+03  0.85194211910E+03  0.90837975236E+02 0.  0.
         23    2    4    4    0    0  0.32276496609E+03 -0.21643675313E+03  0.88542407166E+02  0.40881296944E+03  0.90918615678E+02 0.  0.
          2    1    3    3  502    0  0.14295887364E+03  0.79110499100E+03  0.18296112230E+03  0.82447505640E+03  0.00000000000E+00 0. -1.
         -1    1    3    3    0  502 -0.16851656648E+01  0.38554546438E+02 -0.64154305674E+01  0.39120973706E+02  0.00000000000E+00 0.  1.
         13    1    5    5    0    0 -0.34844050115E+03 -0.47089163228E+03 -0.31141467557E+03  0.66342204693E+03  0.00000000000E+00 0. -1.
        -13    1    5    5    0    0 -0.11559817291E+03 -0.14233115203E+03 -0.43803232658E+02  0.18852007217E+03  0.00000000000E+00 0.  1.
          2    1    6    6  503    0  0.81615408291E+02 -0.98976852959E+02  0.50611712205E+02  0.13790952724E+03  0.00000000000E+00 0. -1.
         -2    1    6    6    0  503  0.24114955780E+03 -0.11745990017E+03  0.37930694961E+02  0.27090344220E+03  0.00000000000E+00 0.  1.
<mgrwt>
<rscale>  0 0.21224383E+04</rscale>
<asrwt>0</asrwt>
<pdfrwt beam="1">  1        2 0.15647856E+00 0.21224383E+04</pdfrwt>
<pdfrwt beam="2">  1       -1 0.17034469E+00 0.21224383E+04</pdfrwt>
<totfact> 0.63034155E+00</totfact>
</mgrwt>
</event>
<event>
12    7  0.2492439E-007  0.1815992E+04  0.7818608E-02  0.8697841E-01
          2   -1    0    0  501    0  0.00000000000E+00  0.00000000000E+00  0.15911747900E+04  0.15911747900E+04  0.00000000000E+00 0. -1.
         -1   -1    0    0    0  501 -0.00000000000E+00 -0.00000000000E+00 -0.51814336711E+03  0.51814336711E+03  0.00000000000E+00 0.  1.
         24    2    1    2    0    0 -0.33933012846E+03  0.49926408459E+03  0.77435251092E+03  0.98511249044E+03  0.80095227162E+02 0.  0.
        254    2    1    2    0    0  0.33933012846E+03 -0.49926408459E+03  0.29867891193E+03  0.11242056666E+04  0.90012206184E+03 0.  0.
         23    2    4    4    0    0  0.24556938925E+03 -0.73615477625E+03  0.99056822854E+02  0.78750375517E+03  0.90120645376E+02 0.  0.
         23    2    4    4    0    0  0.93760739206E+02  0.23689069166E+03  0.19962208908E+03  0.33670191146E+03  0.92795057634E+02 0.  0.
          4    1    3    3  502    0 -0.15752721952E+03  0.22027891885E+03  0.28437978300E+03  0.39269515907E+03  0.00000000000E+00 0. -1.
         -3    1    3    3    0  502 -0.18180290894E+03  0.27898516574E+03  0.48997272792E+03  0.59241733137E+03  0.00000000000E+00 0.  1.
         13    1    5    5    0    0  0.91085872530E+02 -0.40880055613E+03  0.66438301835E+02  0.42406199879E+03  0.00000000000E+00 0.  1.
        -13    1    5    5    0    0  0.15448351672E+03 -0.32735422012E+03  0.32618521019E+02  0.36344175638E+03  0.00000000000E+00 0. -1.
          1    1    6    6  503    0  0.46800289389E+02  0.18338198083E+03  0.18369668392E+03  0.26374929320E+03  0.00000000000E+00 0. -1.
         -1    1    6    6    0  503  0.46960449816E+02  0.53508710832E+02  0.15925405159E+02  0.72952618263E+02  0.00000000000E+00 0.  1.
<mgrwt>
<rscale>  0 0.18159919E+04</rscale>
<asrwt>0</asrwt>
<pdfrwt beam="1">  1        2 0.24479612E+00 0.18159919E+04</pdfrwt>
<pdfrwt beam="2">  1       -1 0.79714365E-01 0.18159919E+04</pdfrwt>
<totfact> 0.19044351E+01</totfact>
</mgrwt>
</event>
<event>
12    7  0.2492439E-007  0.1366931E+04  0.7818608E-02  0.8978109E-01
          2   -1    0    0  501    0  0.00000000000E+00  0.00000000000E+00  0.24612854327E+04  0.24612854327E+04  0.00000000000E+00 0. -1.
         -1   -1    0    0    0  501 -0.00000000000E+00 -0.00000000000E+00 -0.18978914792E+03  0.18978914792E+03  0.00000000000E+00 0.  1.
         24    2    1    2    0    0 -0.20612563416E+03 -0.21406481864E+03  0.19635755040E+03  0.36587852163E+03  0.83661707798E+02 0.  0.
        254    2    1    2    0    0  0.20612563416E+03  0.21406481864E+03  0.20751387344E+04  0.22851960590E+04  0.90973003548E+03 0.  0.
         23    2    4    4    0    0 -0.54650385346E+02 -0.27201996280E+03  0.27954599605E+03  0.40463879663E+03  0.92763500617E+02 0.  0.
         23    2    4    4    0    0  0.26077601951E+03  0.48608478144E+03  0.17955927384E+04  0.18805572624E+04  0.89776321968E+02 0.  0.
          4    1    3    3  502    0 -0.11952187003E+03 -0.15522625258E+03  0.16622874841E+03  0.25692929709E+03  0.00000000000E+00 0. -1.
         -3    1    3    3    0  502 -0.86603764137E+02 -0.58838566054E+02  0.30128801994E+02  0.10894922454E+03  0.00000000000E+00 0.  1.
         13    1    5    5    0    0  0.10387536735E+02  0.22181136320E+01  0.83958304745E+01  0.13539236199E+02  0.00000000000E+00 0. -1.
        -13    1    5    5    0    0 -0.65037922081E+02 -0.27423807643E+03  0.27115016558E+03  0.39109956043E+03  0.00000000000E+00 0.  1.
          1    1    6    6  503    0  0.10899224037E+03  0.24848516196E+03  0.10136240223E+04  0.10493130337E+04  0.00000000000E+00 0. -1.
         -1    1    6    6    0  503  0.15178377913E+03  0.23759961948E+03  0.78196871608E+03  0.83124422868E+03  0.00000000000E+00 0.  1.
<mgrwt>
<rscale>  0 0.13669313E+04</rscale>
<asrwt>0</asrwt>
<pdfrwt beam="1">  1        2 0.37865928E+00 0.13669313E+04</pdfrwt>
<pdfrwt beam="2">  1       -1 0.29198332E-01 0.13669313E+04</pdfrwt>
<totfact> 0.43742183E+01</totfact>
</mgrwt>
</event>
<event>
12    7  0.2492439E-007  0.4649453E+04  0.7818608E-02  0.7884982E-01
         -1   -1    0    0    0  501 -0.00000000000E+00  0.00000000000E+00  0.12394485571E+04  0.12394485571E+04  0.00000000000E+00 0.  1.
          2   -1    0    0  501    0  0.00000000000E+00 -0.00000000000E+00 -0.43602892636E+04  0.43602892636E+04  0.00000000000E+00 0. -1.
         24    2    1    2    0    0  0.26535074423E+03  0.21956160155E+04 -0.10988502817E+04  0.24709199297E+04  0.82659859655E+02 0.  0.
        254    2    1    2    0    0 -0.26535074423E+03 -0.21956160155E+04 -0.20219904248E+04  0.31288178909E+04  0.89995300518E+03 0.  0.
         23    2    4    4    0    0 -0.36198973910E+03 -0.20800035211E+04 -0.15355952685E+04  0.26122374559E+04  0.90997134258E+02 0.  0.
         23    2    4    4    0    0  0.96638994875E+02 -0.11561249443E+03 -0.48639515628E+03  0.51658043501E+03  0.87004330842E+02 0.  0.
          2    1    3    3  502    0  0.14519213213E+03  0.10100759470E+04 -0.54516278537E+03  0.11569514408E+04  0.00000000000E+00 0. -1.
         -1    1    3    3    0  502  0.12015861210E+03  0.11855400685E+04 -0.55368749635E+03  0.13139684889E+04  0.00000000000E+00 0.  1.
         13    1    5    5    0    0 -0.70236705446E+02 -0.23773986659E+03 -0.17173898963E+03  0.30157539608E+03  0.00000000000E+00 0.  1.
        -13    1    5    5    0    0 -0.29175303365E+03 -0.18422636545E+04 -0.13638562789E+04  0.23106620598E+04  0.00000000000E+00 0. -1.
          1    1    6    6  503    0  0.69102401543E+02 -0.16496757175E+02 -0.20659609066E+03  0.21847020294E+03  0.00000000000E+00 0. -1.
         -1    1    6    6    0  503  0.27536593332E+02 -0.99115737260E+02 -0.27979906562E+03  0.29811023207E+03  0.00000000000E+00 0.  1.
<mgrwt>
<rscale>  0 0.46494534E+04</rscale>
<asrwt>0</asrwt>
<pdfrwt beam="1">  1        2 0.67081372E+00 0.46494534E+04</pdfrwt>
<pdfrwt beam="2">  1       -1 0.19068440E+00 0.46494534E+04</pdfrwt>
<totfact> 0.24607913E-02</totfact>
</mgrwt>
</event>
<event>
12    7  0.2492439E-007  0.2912932E+04  0.7818608E-02  0.8269040E-01
         -1   -1    0    0    0  501 -0.00000000000E+00  0.00000000000E+00  0.70997337579E+03  0.70997337579E+03  0.00000000000E+00 0.  1.
          2   -1    0    0  501    0  0.00000000000E+00 -0.00000000000E+00 -0.29878495796E+04  0.29878495796E+04  0.00000000000E+00 0. -1.
         24    2    1    2    0    0 -0.12896578518E+04 -0.68924955736E+02 -0.71329532481E+03  0.14777509061E+04  0.83603204674E+02 0.  0.
        254    2    1    2    0    0  0.12896578518E+04  0.68924955736E+02 -0.15645808790E+04  0.22200720493E+04  0.90157559455E+03 0.  0.
         23    2    4    4    0    0  0.13572701313E+04  0.15413287350E+03 -0.15655559718E+04  0.20797005856E+04  0.90828811421E+02 0.  0.
         23    2    4    4    0    0 -0.67612279427E+02 -0.85207917766E+02  0.97509277361E+00  0.14037146369E+03  0.88720839903E+02 0.  0.
          2    1    3    3  502    0 -0.62582304506E+03 -0.38322941488E+02 -0.29893777877E+03  0.69461278936E+03  0.00000000000E+00 0. -1.
         -1    1    3    3    0  502 -0.66383480677E+03 -0.30602014248E+02 -0.41435754604E+03  0.78313811675E+03  0.00000000000E+00 0.  1.
         13    1    5    5    0    0  0.44079108301E+03  0.74512823440E+01 -0.50842851499E+03  0.67294268353E+03  0.00000000000E+00 0. -1.
        -13    1    5    5    0    0  0.91647904825E+03  0.14668159116E+03 -0.10571274568E+04  0.14067579020E+04  0.00000000000E+00 0.  1.
          2    1    6    6  503    0 -0.24131684090E+02 -0.16906114771E+02  0.40650580966E+02  0.50205822636E+02  0.00000000000E+00 0. -1.
         -2    1    6    6    0  503 -0.43480595337E+02 -0.68301802996E+02 -0.39675488193E+02  0.90165641054E+02  0.00000000000E+00 0.  1.
<mgrwt>
<rscale>  0 0.29129323E+04</rscale>
<asrwt>0</asrwt>
<pdfrwt beam="1">  1        2 0.45966916E+00 0.29129323E+04</pdfrwt>
<pdfrwt beam="2">  1       -1 0.10922667E+00 0.29129323E+04</pdfrwt>
<totfact> 0.13464336E+00</totfact>
</mgrwt>
</event>
<event>
12    7  0.2492439E-007  0.2638706E+04  0.7818608E-02  0.8355171E-01
         -1   -1    0    0    0  501 -0.00000000000E+00  0.00000000000E+00  0.11770826504E+04  0.11770826504E+04  0.00000000000E+00 0.  1.
          2   -1    0    0  501    0  0.00000000000E+00 -0.00000000000E+00 -0.14788196159E+04  0.14788196159E+04  0.00000000000E+00 0. -1.
         24    2    1    2    0    0  0.48236508236E+03 -0.10547249317E+04 -0.22820779860E+03  0.11851480870E+04  0.85886171686E+02 0.  0.
        254    2    1    2    0    0 -0.48236508236E+03  0.10547249317E+04 -0.73529166896E+02  0.14707541793E+04  0.90143805288E+03 0.  0.
         23    2    4    4    0    0 -0.25814474984E+03 -0.15155730304E+02  0.20025285613E+03  0.34007697568E+03  0.93181194272E+02 0.  0.
         23    2    4    4    0    0 -0.22422033252E+03  0.10698806620E+04 -0.27378202303E+03  0.11306772036E+04  0.92492994872E+02 0.  0.
          4    1    3    3  502    0  0.27165533421E+03 -0.69012512253E+03 -0.13512083014E+03  0.75387462094E+03  0.00000000000E+00 0. -1.
         -3    1    3    3    0  502  0.21070974815E+03 -0.36459980917E+03 -0.93086968464E+02  0.43127346604E+03  0.00000000000E+00 0.  1.
         13    1    5    5    0    0 -0.12475587348E+03  0.57767249432E+01  0.41351395823E+02  0.13155735045E+03  0.00000000000E+00 0. -1.
        -13    1    5    5    0    0 -0.13338887636E+03 -0.20932455247E+02  0.15890146031E+03  0.20851962523E+03  0.00000000000E+00 0.  1.
          2    1    6    6  503    0 -0.21887807509E+02  0.30431057539E+03 -0.70152420056E+02  0.31305808479E+03  0.00000000000E+00 0. -1.
         -2    1    6    6    0  503 -0.20233252501E+03  0.76557008662E+03 -0.20362960297E+03  0.81761911879E+03  0.00000000000E+00 0.  1.
<mgrwt>
<rscale>  0 0.26387064E+04</rscale>
<asrwt>0</asrwt>
<pdfrwt beam="1">  1        2 0.22751071E+00 0.26387064E+04</pdfrwt>
<pdfrwt beam="2">  1       -1 0.18108964E+00 0.26387064E+04</pdfrwt>
<totfact> 0.26785916E+00</totfact>
</mgrwt>
</event>
<event>
12    7  0.2492439E-007  0.1484162E+04  0.7818608E-02  0.8895054E-01
         -1   -1    0    0    0  501 -0.00000000000E+00  0.00000000000E+00  0.28162207889E+03  0.28162207889E+03  0.00000000000E+00 0.  1.
          2   -1    0    0  501    0  0.00000000000E+00 -0.00000000000E+00 -0.19554024784E+04  0.19554024784E+04  0.00000000000E+00 0. -1.
         24    2    1    2    0    0 -0.74234011453E+02  0.32731205981E+03 -0.10121545048E+04  0.10691939644E+04  0.77943049383E+02 0.  0.
        254    2    1    2    0    0  0.74234011453E+02 -0.32731205981E+03 -0.66162589470E+03  0.11678305929E+04  0.90190664495E+03 0.  0.
         23    2    4    4    0    0  0.20751854924E+03 -0.38094881175E+03  0.40888389320E+02  0.44525250178E+03  0.91607775359E+02 0.  0.
         23    2    4    4    0    0 -0.13328453779E+03  0.53636751940E+02 -0.70251428402E+03  0.72257809111E+03  0.89168993092E+02 0.  0.
          4    1    3    3  502    0 -0.44026728381E+02  0.19659279874E+03 -0.72095319021E+03  0.74857236378E+03  0.00000000000E+00 0. -1.
         -3    1    3    3    0  502 -0.30207283072E+02  0.13071926106E+03 -0.29120131462E+03  0.32062160064E+03  0.00000000000E+00 0.  1.
         13    1    5    5    0    0  0.15838138680E+02 -0.61372830922E+02  0.35315464083E+02  0.72557928689E+02  0.00000000000E+00 0. -1.
        -13    1    5    5    0    0  0.19168041056E+03 -0.31957598083E+03  0.55729252374E+01  0.37269457309E+03  0.00000000000E+00 0.  1.
          3    1    6    6  503    0 -0.68684532868E+02 -0.17703996810E+02 -0.24556937603E+03  0.25560773659E+03  0.00000000000E+00 0. -1.
         -3    1    6    6    0  503 -0.64600004921E+02  0.71340748751E+02 -0.45694490799E+03  0.46697035453E+03  0.00000000000E+00 0.  1.
<mgrwt>
<rscale>  0 0.14841624E+04</rscale>
<asrwt>0</asrwt>
<pdfrwt beam="1">  1        2 0.30083115E+00 0.14841624E+04</pdfrwt>
<pdfrwt beam="2">  1       -1 0.43326474E-01 0.14841624E+04</pdfrwt>
<totfact> 0.40981335E+01</totfact>
</mgrwt>
</event>
<event>
12    7  0.2492439E-007  0.1382176E+04  0.7818608E-02  0.8966822E-01
         -1   -1    0    0    0  501 -0.00000000000E+00  0.00000000000E+00  0.97522974410E+03  0.97522974410E+03  0.00000000000E+00 0.  1.
          2   -1    0    0  501    0  0.00000000000E+00 -0.00000000000E+00 -0.48973369589E+03  0.48973369589E+03  0.00000000000E+00 0. -1.
         24    2    1    2    0    0 -0.37473080663E+03 -0.78376454148E+02  0.22885336865E+03  0.45282549396E+03  0.78172998110E+02 0.  0.
        254    2    1    2    0    0  0.37473080663E+03  0.78376454148E+02  0.25664267955E+03  0.10121379460E+04  0.90110582665E+03 0.  0.
         23    2    4    4    0    0 -0.21137372141E+03 -0.20899652463E+03  0.20208111396E+02  0.31178872280E+03  0.91899088620E+02 0.  0.
         23    2    4    4    0    0  0.58610452804E+03  0.28737297878E+03  0.23643456816E+03  0.70034922323E+03  0.92119393891E+02 0.  0.
          4    1    3    3  502    0 -0.19704910990E+03 -0.36315270555E+02  0.74620715218E+02  0.21381160336E+03  0.00000000000E+00 0. -1.
         -3    1    3    3    0  502 -0.17768169673E+03 -0.42061183593E+02  0.15423265343E+03  0.23901389060E+03  0.00000000000E+00 0.  1.
         13    1    5    5    0    0 -0.20277852390E+01 -0.28602244844E+02  0.20828978937E+02  0.35440748957E+02  0.00000000000E+00 0.  1.
        -13    1    5    5    0    0 -0.20934593617E+03 -0.18039427979E+03 -0.62086754079E+00  0.27634797385E+03  0.00000000000E+00 0. -1.
          2    1    6    6  503    0  0.29879917390E+03  0.97957996367E+02  0.12855523101E+03  0.33971041020E+03  0.00000000000E+00 0. -1.
         -2    1    6    6    0  503  0.28730535415E+03  0.18941498241E+03  0.10787933714E+03  0.36063881303E+03  0.00000000000E+00 0.  1.
<mgrwt>
<rscale>  0 0.13821764E+04</rscale>
<asrwt>0</asrwt>
<pdfrwt beam="1">  1        2 0.75343645E-01 0.13821764E+04</pdfrwt>
<pdfrwt beam="2">  1       -1 0.15003535E+00 0.13821764E+04</pdfrwt>
<totfact> 0.24514636E+01</totfact>
</mgrwt>
</event>
<event>
12    7  0.2492439E-007  0.1562005E+04  0.7818608E-02  0.8844236E-01
          2   -1    0    0  501    0  0.00000000000E+00  0.00000000000E+00  0.11449568380E+04  0.11449568380E+04  0.00000000000E+00 0. -1.
         -1   -1    0    0    0  501 -0.00000000000E+00 -0.00000000000E+00 -0.53274032106E+03  0.53274032106E+03  0.00000000000E+00 0.  1.
         24    2    1    2    0    0  0.24817925708E+03  0.93944029919E+01  0.69743582754E+03  0.74446909158E+03  0.78334515502E+02 0.  0.
        254    2    1    2    0    0 -0.24817925708E+03 -0.93944029919E+01 -0.85219310638E+02  0.93322806745E+03  0.89552838956E+03 0.  0.
         23    2    4    4    0    0  0.15958719467E+03 -0.33216004635E+03  0.65948862878E+02  0.38412699695E+03  0.86057702624E+02 0.  0.
         23    2    4    4    0    0 -0.40776645175E+03  0.32276564335E+03 -0.15116817352E+03  0.54910107050E+03  0.90603693285E+02 0.  0.
          4    1    3    3  502    0  0.11670522502E+03  0.19218288006E+02  0.43478683753E+03  0.45058744571E+03  0.00000000000E+00 0. -1.
         -3    1    3    3    0  502  0.13147403206E+03 -0.98238850142E+01  0.26264899002E+03  0.29388164587E+03  0.00000000000E+00 0.  1.
         13    1    5    5    0    0  0.56126920577E+01 -0.11198903663E+02  0.22166636574E+02  0.25461294790E+02  0.00000000000E+00 0. -1.
        -13    1    5    5    0    0  0.15397450261E+03 -0.32096114268E+03  0.43782226304E+02  0.35866570216E+03  0.00000000000E+00 0.  1.
          3    1    6    6  503    0 -0.32799458991E+03  0.23343865654E+03 -0.14914270697E+03  0.42932226173E+03  0.00000000000E+00 0. -1.
         -3    1    6    6    0  503 -0.79771861841E+02  0.89326986817E+02 -0.20254665475E+01  0.11977880877E+03  0.00000000000E+00 0.  1.
<mgrwt>
<rscale>  0 0.15620047E+04</rscale>
<asrwt>0</asrwt>
<pdfrwt beam="1">  1        2 0.17614721E+00 0.15620047E+04</pdfrwt>
<pdfrwt beam="2">  1       -1 0.81960050E-01 0.15620047E+04</pdfrwt>
<totfact> 0.33218883E+01</totfact>
</mgrwt>
</event>
<event>
12    7  0.2492439E-007  0.3020038E+04  0.7818608E-02  0.8238032E-01
          2   -1    0    0  501    0  0.00000000000E+00  0.00000000000E+00  0.12514220484E+04  0.12514220484E+04  0.00000000000E+00 0. -1.
         -1   -1    0    0    0  501 -0.00000000000E+00 -0.00000000000E+00 -0.18220530070E+04  0.18220530070E+04  0.00000000000E+00 0.  1.
         24    2    1    2    0    0 -0.12240548501E+04  0.32015003396E+03  0.28672164078E+03  0.12997194967E+04  0.79089508346E+02 0.  0.
        254    2    1    2    0    0  0.12240548501E+04 -0.32015003396E+03 -0.85735259944E+03  0.17737555587E+04  0.90019385802E+03 0.  0.
         23    2    4    4    0    0  0.44230529465E+02  0.15908225043E+03 -0.35148504530E+03  0.39975299064E+03  0.94853646844E+02 0.  0.
         23    2    4    4    0    0  0.11798243207E+04 -0.47923228439E+03 -0.50586755414E+03  0.13740025681E+04  0.10164676467E+03 0.  0.
          2    1    3    3  502    0 -0.94611852476E+03  0.21327179605E+03  0.21385525025E+03  0.99315617601E+03  0.00000000000E+00 0. -1.
         -1    1    3    3    0  502 -0.27793632539E+03  0.10687823791E+03  0.72866390532E+02  0.30656332067E+03  0.00000000000E+00 0.  1.
         13    1    5    5    0    0  0.27819456827E+02  0.65604257551E+02 -0.59833464441E+02  0.93047752547E+02  0.00000000000E+00 0. -1.
        -13    1    5    5    0    0  0.16411072638E+02  0.93477992874E+02 -0.29165158086E+03  0.30670523809E+03  0.00000000000E+00 0.  1.
          4    1    6    6  503    0  0.18181089131E+03 -0.57448333429E+02 -0.41131330966E+02  0.19505716495E+03  0.00000000000E+00 0. -1.
         -4    1    6    6    0  503  0.99801342938E+03 -0.42178395096E+03 -0.46473622317E+03  0.11789454032E+04  0.00000000000E+00 0.  1.
<mgrwt>
<rscale>  0 0.30200380E+04</rscale>
<asrwt>0</asrwt>
<pdfrwt beam="1">  1        2 0.19252647E+00 0.30200380E+04</pdfrwt>
<pdfrwt beam="2">  1       -1 0.28031584E+00 0.30200380E+04</pdfrwt>
<totfact> 0.76125685E-01</totfact>
</mgrwt>
</event>
<event>
12    7  0.2492439E-007  0.1901219E+04  0.7818608E-02  0.8654250E-01
          2   -1    0    0  501    0  0.00000000000E+00  0.00000000000E+00  0.16091151556E+04  0.16091151556E+04  0.00000000000E+00 0. -1.
         -1   -1    0    0    0  501 -0.00000000000E+00 -0.00000000000E+00 -0.56158739605E+03  0.56158739605E+03  0.00000000000E+00 0.  1.
         24    2    1    2    0    0 -0.89023589454E+02 -0.68068351310E+03  0.10817660631E+03  0.69948101770E+03  0.79474973922E+02 0.  0.
        254    2    1    2    0    0  0.89023589454E+02  0.68068351310E+03  0.93935115323E+03  0.14712215339E+04  0.90047596769E+03 0.  0.
         23    2    4    4    0    0 -0.62786454220E+02  0.66066528671E+03  0.10640701751E+04  0.12573416423E+04  0.90784954618E+02 0.  0.
         23    2    4    4    0    0  0.15181004367E+03  0.20018226388E+02 -0.12471902183E+03  0.21387989169E+03  0.82114279611E+02 0.  0.
          4    1    3    3  502    0 -0.53445539866E+02 -0.39237989883E+03  0.10198430809E+03  0.40892445492E+03  0.00000000000E+00 0. -1.
         -3    1    3    3    0  502 -0.35578049587E+02 -0.28830361427E+03  0.61922982184E+01  0.29055656277E+03  0.00000000000E+00 0.  1.
         13    1    5    5    0    0 -0.52798959516E+02  0.65588945557E+03  0.10529878692E+04  0.12416771564E+04  0.00000000000E+00 0.  1.
        -13    1    5    5    0    0 -0.99874947037E+01  0.47758311385E+01  0.11082305844E+02  0.15664485831E+02  0.00000000000E+00 0. -1.
          3    1    6    6  503    0  0.52269360536E+01 -0.20359380093E+02 -0.21774386006E+02  0.30264651067E+02  0.00000000000E+00 0. -1.
         -3    1    6    6    0  503  0.14658310762E+03  0.40377606482E+02 -0.10294463583E+03  0.18361524063E+03  0.00000000000E+00 0.  1.
<mgrwt>
<rscale>  0 0.19012194E+04</rscale>
<asrwt>0</asrwt>
<pdfrwt beam="1">  1        2 0.24755618E+00 0.19012194E+04</pdfrwt>
<pdfrwt beam="2">  1       -1 0.86398062E-01 0.19012194E+04</pdfrwt>
<totfact> 0.15535868E+01</totfact>
</mgrwt>
</event>
<event>
12    7  0.2492439E-007  0.1648043E+04  0.7818608E-02  0.8791565E-01
          2   -1    0    0  501    0  0.00000000000E+00  0.00000000000E+00  0.17978471825E+04  0.17978471825E+04  0.00000000000E+00 0. -1.
         -1   -1    0    0    0  501 -0.00000000000E+00 -0.00000000000E+00 -0.37768009619E+03  0.37768009619E+03  0.00000000000E+00 0.  1.
         24    2    1    2    0    0  0.40869790156E+03 -0.24467061884E+03  0.92350959489E+03  0.10422337846E+04  0.80520825818E+02 0.  0.
        254    2    1    2    0    0 -0.40869790156E+03  0.24467061884E+03  0.49665749141E+03  0.11332934941E+04  0.90043755671E+03 0.  0.
         23    2    4    4    0    0 -0.38302956405E+03 -0.17012132441E+03 -0.59182937248E+02  0.43325082053E+03  0.92470219391E+02 0.  0.
         23    2    4    4    0    0 -0.25668337510E+02  0.41479194324E+03  0.55584042866E+03  0.70004267357E+03  0.91596631762E+02 0.  0.
          2    1    3    3  502    0  0.26171398726E+03 -0.11409388927E+03  0.57925037231E+03  0.64578837130E+03  0.00000000000E+00 0. -1.
         -1    1    3    3    0  502  0.14698391431E+03 -0.13057672957E+03  0.34425922259E+03  0.39644541327E+03  0.00000000000E+00 0.  1.
         13    1    5    5    0    0 -0.17526088521E+03 -0.11973945957E+03 -0.55644331672E+02  0.21943155586E+03  0.00000000000E+00 0. -1.
        -13    1    5    5    0    0 -0.20776867885E+03 -0.50381864837E+02 -0.35386055760E+01  0.21381926467E+03  0.00000000000E+00 0.  1.
          1    1    6    6  503    0 -0.14063132669E+02  0.36611007725E+03  0.43182601453E+03  0.56631092802E+03  0.00000000000E+00 0. -1.
         -1    1    6    6    0  503 -0.11605204841E+02  0.48681865991E+02  0.12401441413E+03  0.13373174555E+03  0.00000000000E+00 0.  1.
<mgrwt>
<rscale>  0 0.16480426E+04</rscale>
<asrwt>0</asrwt>
<pdfrwt beam="1">  1        2 0.27659187E+00 0.16480426E+04</pdfrwt>
<pdfrwt beam="2">  1       -1 0.58104631E-01 0.16480426E+04</pdfrwt>
<totfact> 0.28258027E+01</totfact>
</mgrwt>
</event>
<event>
12    7  0.2492439E-007  0.2619435E+04  0.7818608E-02  0.8361629E-01
          2   -1    0    0  501    0  0.00000000000E+00  0.00000000000E+00  0.21944350247E+04  0.21944350247E+04  0.00000000000E+00 0. -1.
         -1   -1    0    0    0  501 -0.00000000000E+00 -0.00000000000E+00 -0.78168663817E+03  0.78168663817E+03  0.00000000000E+00 0.  1.
         24    2    1    2    0    0 -0.84328758978E+03  0.76848356639E+03  0.81897184451E+03  0.14066726859E+04  0.79449432228E+02 0.  0.
        254    2    1    2    0    0  0.84328758978E+03 -0.76848356639E+03  0.59377654205E+03  0.15694489770E+04  0.89938787999E+03 0.  0.
         23    2    4    4    0    0  0.47617765176E+03 -0.81476192327E+03  0.11205082459E+03  0.95506635835E+03  0.94943214100E+02 0.  0.
         23    2    4    4    0    0  0.36710993801E+03  0.46278356889E+02  0.48172571746E+03  0.61438261866E+03  0.92168011523E+02 0.  0.
          2    1    3    3  502    0 -0.46580344189E+03  0.39091648924E+03  0.47403922717E+03  0.77103938741E+03  0.00000000000E+00 0. -1.
         -1    1    3    3    0  502 -0.37748414788E+03  0.37756707714E+03  0.34493261735E+03  0.63563329850E+03  0.00000000000E+00 0.  1.
         13    1    5    5    0    0  0.35691688188E+03 -0.56823364534E+03  0.41744284933E+02  0.67232560682E+03  0.00000000000E+00 0.  1.
        -13    1    5    5    0    0  0.11926076988E+03 -0.24652827794E+03  0.70306539657E+02  0.28274075153E+03  0.00000000000E+00 0. -1.
          1    1    6    6  503    0  0.28794713919E+03  0.34674326815E+02  0.30767766217E+03  0.42282550503E+03  0.00000000000E+00 0. -1.
         -1    1    6    6    0  503  0.79162798819E+02  0.11604030073E+02  0.17404805529E+03  0.19155711363E+03  0.00000000000E+00 0.  1.
<mgrwt>
<rscale>  0 0.26194355E+04</rscale>
<asrwt>0</asrwt>
<pdfrwt beam="1">  1        2 0.33760539E+00 0.26194355E+04</pdfrwt>
<pdfrwt beam="2">  1       -1 0.12025948E+00 0.26194355E+04</pdfrwt>
<totfact> 0.32170553E+00</totfact>
</mgrwt>
</event>
<event>
12    7  0.2492439E-007  0.1718775E+04  0.7818608E-02  0.8750728E-01
          2   -1    0    0  501    0  0.00000000000E+00  0.00000000000E+00  0.85289201166E+03  0.85289201166E+03  0.00000000000E+00 0. -1.
         -1   -1    0    0    0  501 -0.00000000000E+00 -0.00000000000E+00 -0.86593244685E+03  0.86593244685E+03  0.00000000000E+00 0.  1.
         24    2    1    2    0    0  0.14838947577E+02 -0.59690804643E+03 -0.17362715300E+03  0.62706223548E+03  0.80877986167E+02 0.  0.
        254    2    1    2    0    0 -0.14838947577E+02  0.59690804643E+03  0.16058671781E+03  0.10917622230E+04  0.89979844822E+03 0.  0.
         23    2    4    4    0    0 -0.97650197144E+02 -0.38380541034E+01  0.40900149115E+03  0.43017100275E+03  0.90634321232E+02 0.  0.
         23    2    4    4    0    0  0.82811249567E+02  0.60074610054E+03 -0.24841477334E+03  0.66159122027E+03  0.90771486534E+02 0.  0.
          2    1    3    3  502    0  0.88102146071E+01 -0.52205337505E+03 -0.12277724017E+03  0.53636890009E+03  0.00000000000E+00 0. -1.
         -1    1    3    3    0  502  0.60287329695E+01 -0.74854671381E+02 -0.50849912830E+02  0.90693335387E+02  0.00000000000E+00 0.  1.
         13    1    5    5    0    0 -0.85077664347E+02 -0.40690646658E+02  0.29416667081E+03  0.30891417564E+03  0.00000000000E+00 0. -1.
        -13    1    5    5    0    0 -0.12572532797E+02  0.36852592554E+02  0.11483482034E+03  0.12125682711E+03  0.00000000000E+00 0.  1.
          3    1    6    6  503    0  0.74814999205E+02  0.22572133506E+03 -0.10607272104E+03  0.26038207956E+03  0.00000000000E+00 0. -1.
         -3    1    6    6    0  503  0.79962503623E+01  0.37502476548E+03 -0.14234205230E+03  0.40120914072E+03  0.00000000000E+00 0.  1.
<mgrwt>
<rscale>  0 0.17187750E+04</rscale>
<asrwt>0</asrwt>
<pdfrwt beam="1">  1        2 0.13121416E+00 0.17187750E+04</pdfrwt>
<pdfrwt beam="2">  1       -1 0.13322038E+00 0.17187750E+04</pdfrwt>
<totfact> 0.16329846E+01</totfact>
</mgrwt>
</event>
<event>
12    7  0.2492439E-007  0.1779936E+04  0.7818608E-02  0.8717043E-01
         -1   -1    0    0    0  501 -0.00000000000E+00  0.00000000000E+00  0.62543752236E+03  0.62543752236E+03  0.00000000000E+00 0.  1.
          2   -1    0    0  501    0  0.00000000000E+00 -0.00000000000E+00 -0.12663819374E+04  0.12663819374E+04  0.00000000000E+00 0. -1.
         24    2    1    2    0    0 -0.19228808439E+03  0.84050952737E+02  0.42485716265E+03  0.48060288045E+03  0.80226242504E+02 0.  0.
        254    2    1    2    0    0  0.19228808439E+03 -0.84050952737E+02 -0.10658015777E+04  0.14112165793E+04  0.90086622793E+03 0.  0.
         23    2    4    4    0    0 -0.16337333251E+03  0.23318530547E+03 -0.80567959342E+03  0.85930518201E+03  0.90661767641E+02 0.  0.
         23    2    4    4    0    0  0.35566141690E+03 -0.31723625821E+03 -0.26012198428E+03  0.55191139729E+03  0.99039672684E+02 0.  0.
          2    1    3    3  502    0 -0.15668372109E+03  0.62438892906E+02  0.25514921619E+03  0.30585867050E+03  0.00000000000E+00 0. -1.
         -1    1    3    3    0  502 -0.35604363298E+02  0.21612059831E+02  0.16970794647E+03  0.17474420995E+03  0.00000000000E+00 0.  1.
         13    1    5    5    0    0 -0.83995227569E+02  0.15111907902E+03 -0.59581631837E+03  0.62039443867E+03  0.00000000000E+00 0. -1.
        -13    1    5    5    0    0 -0.79378104940E+02  0.82066226451E+02 -0.20986327505E+03  0.23891074334E+03  0.00000000000E+00 0.  1.
          4    1    6    6  503    0  0.19427316810E+03 -0.21808494352E+03 -0.11753822202E+03  0.31483065300E+03  0.00000000000E+00 0. -1.
         -4    1    6    6    0  503  0.16138824879E+03 -0.99151314694E+02 -0.14258376226E+03  0.23708074429E+03  0.00000000000E+00 0.  1.
<mgrwt>
<rscale>  0 0.17799357E+04</rscale>
<asrwt>0</asrwt>
<pdfrwt beam="1">  1        2 0.19482799E+00 0.17799357E+04</pdfrwt>
<pdfrwt beam="2">  1       -1 0.96221159E-01 0.17799357E+04</pdfrwt>
<totfact> 0.19402967E+01</totfact>
</mgrwt>
</event>
<event>
12    7  0.2492439E-007  0.1915481E+04  0.7818608E-02  0.8647189E-01
          2   -1    0    0  501    0  0.00000000000E+00  0.00000000000E+00  0.82372687343E+03  0.82372687343E+03  0.00000000000E+00 0. -1.
         -1   -1    0    0    0  501 -0.00000000000E+00 -0.00000000000E+00 -0.11135566036E+04  0.11135566036E+04  0.00000000000E+00 0.  1.
         24    2    1    2    0    0 -0.25503267186E+03 -0.62812207715E+03  0.19433938040E+03  0.70979404518E+03  0.80379003938E+02 0.  0.
        254    2    1    2    0    0  0.25503267186E+03  0.62812207715E+03 -0.48416911057E+03  0.12274894318E+04  0.90151626170E+03 0.  0.
         23    2    4    4    0    0 -0.10670909371E+03  0.20962251105E+02 -0.49473532419E+03  0.51469535241E+03  0.91225096016E+02 0.  0.
         23    2    4    4    0    0  0.36174176557E+03  0.60715982605E+03  0.10566213622E+02  0.71279407942E+03  0.91997801413E+02 0.  0.
          2    1    3    3  502    0 -0.19037853839E+03 -0.36579208904E+03  0.11082675505E+03  0.42700165095E+03  0.00000000000E+00 0. -1.
         -1    1    3    3    0  502 -0.64654133476E+02 -0.26232998812E+03  0.83512625352E+02  0.28279239423E+03  0.00000000000E+00 0.  1.
         13    1    5    5    0    0 -0.16809746555E+02  0.42088246442E+02 -0.10873602244E+03  0.11780284650E+03  0.00000000000E+00 0.  1.
        -13    1    5    5    0    0 -0.89899347152E+02 -0.21125995337E+02 -0.38599930175E+03  0.39689250591E+03  0.00000000000E+00 0. -1.
          4    1    6    6  503    0  0.27798658740E+03  0.43453096690E+03 -0.29864972719E+02  0.51670651299E+03  0.00000000000E+00 0. -1.
         -4    1    6    6    0  503  0.83755178173E+02  0.17262885915E+03  0.40431186341E+02  0.19608756644E+03  0.00000000000E+00 0.  1.
<mgrwt>
<rscale>  0 0.19154806E+04</rscale>
<asrwt>0</asrwt>
<pdfrwt beam="1">  1        2 0.12672721E+00 0.19154806E+04</pdfrwt>
<pdfrwt beam="2">  1       -1 0.17131640E+00 0.19154806E+04</pdfrwt>
<totfact> 0.85089526E+00</totfact>
</mgrwt>
</event>
<event>
12    7  0.2492439E-007  0.2640478E+04  0.7818608E-02  0.8354580E-01
          2   -1    0    0  501    0  0.00000000000E+00  0.00000000000E+00  0.41866686275E+04  0.41866686275E+04  0.00000000000E+00 0. -1.
         -1   -1    0    0    0  501 -0.00000000000E+00 -0.00000000000E+00 -0.41632878361E+03  0.41632878361E+03  0.00000000000E+00 0.  1.
         24    2    1    2    0    0  0.57746112322E+03 -0.49805487225E+03  0.31968386645E+04  0.32875081570E+04  0.80077655396E+02 0.  0.
        254    2    1    2    0    0 -0.57746112322E+03  0.49805487225E+03  0.57350117945E+03  0.13154892542E+04  0.90558730688E+03 0.  0.
         23    2    4    4    0    0 -0.31875328931E+03 -0.12008415851E+03 -0.94262856811E+02  0.36543174791E+03  0.92903238018E+02 0.  0.
         23    2    4    4    0    0 -0.25870783391E+03  0.61813903077E+03  0.66776403626E+03  0.95005750626E+03  0.87606234898E+02 0.  0.
          4    1    3    3  502    0  0.12903779366E+03 -0.12516314868E+03  0.90039173976E+03  0.91816221388E+03  0.00000000000E+00 0. -1.
         -3    1    3    3    0  502  0.44842332956E+03 -0.37289172357E+03  0.22964469247E+04  0.23693459431E+04  0.00000000000E+00 0.  1.
         13    1    5    5    0    0 -0.14498160796E+02 -0.32061295504E+02 -0.79366322546E+00  0.35195926429E+02  0.00000000000E+00 0. -1.
        -13    1    5    5    0    0 -0.30425512851E+03 -0.88022863008E+02 -0.93469193586E+02  0.33023582148E+03  0.00000000000E+00 0.  1.
          1    1    6    6  503    0 -0.51098835451E+02  0.21474176959E+03  0.19061946693E+03  0.29165201828E+03  0.00000000000E+00 0. -1.
         -1    1    6    6    0  503 -0.20760899846E+03  0.40339726117E+03  0.47714456933E+03  0.65840548798E+03  0.00000000000E+00 0.  1.
<mgrwt>
<rscale>  0 0.26404777E+04</rscale>
<asrwt>0</asrwt>
<pdfrwt beam="1">  1        2 0.64410284E+00 0.26404777E+04</pdfrwt>
<pdfrwt beam="2">  1       -1 0.64050585E-01 0.26404777E+04</pdfrwt>
<totfact> 0.59324836E-01</totfact>
</mgrwt>
</event>
<event>
12    7  0.2492439E-007  0.1920545E+04  0.7818608E-02  0.8644697E-01
         -1   -1    0    0    0  501 -0.00000000000E+00  0.00000000000E+00  0.60772542407E+03  0.60772542407E+03  0.00000000000E+00 0.  1.
          2   -1    0    0  501    0  0.00000000000E+00 -0.00000000000E+00 -0.15173357666E+04  0.15173357666E+04  0.00000000000E+00 0. -1.
         24    2    1    2    0    0 -0.57249885853E+03 -0.10666854277E+03 -0.86633304297E+03  0.10468567832E+04  0.79013050487E+02 0.  0.
        254    2    1    2    0    0  0.57249885853E+03  0.10666854277E+03 -0.43277299595E+02  0.10782044075E+04  0.90637668696E+03 0.  0.
         23    2    4    4    0    0 -0.51400217977E+02 -0.14889426458E+03  0.27347147864E+03  0.32806309872E+03  0.89594992494E+02 0.  0.
         23    2    4    4    0    0  0.62389907651E+03  0.25556280735E+03 -0.31674877824E+03  0.75014130878E+03  0.88429567709E+02 0.  0.
          2    1    3    3  502    0 -0.51378811204E+03 -0.79169655562E+02 -0.80028282822E+03  0.95430533038E+03  0.00000000000E+00 0. -1.
         -1    1    3    3    0  502 -0.58710746489E+02 -0.27498887208E+02 -0.66050214750E+02  0.92551452822E+02  0.00000000000E+00 0.  1.
         13    1    5    5    0    0  0.25220418637E+02 -0.49000925867E+02  0.90651443917E+02  0.10608885208E+03  0.00000000000E+00 0. -1.
        -13    1    5    5    0    0 -0.76620636614E+02 -0.99893338713E+02  0.18282003473E+03  0.22197424664E+03  0.00000000000E+00 0.  1.
          1    1    6    6  503    0  0.38181796233E+02  0.27889602200E+02 -0.45730979385E+02  0.65779950972E+02  0.00000000000E+00 0. -1.
         -1    1    6    6    0  503  0.58571728028E+03  0.22767320515E+03 -0.27101779885E+03  0.68436135780E+03  0.00000000000E+00 0.  1.
<mgrwt>
<rscale>  0 0.19205453E+04</rscale>
<asrwt>0</asrwt>
<pdfrwt beam="1">  1        2 0.23343627E+00 0.19205453E+04</pdfrwt>
<pdfrwt beam="2">  1       -1 0.93496220E-01 0.19205453E+04</pdfrwt>
<totfact> 0.14673470E+01</totfact>
</mgrwt>
</event>
<event>
12    7  0.2492439E-007  0.2096989E+04  0.7818608E-02  0.8562571E-01
         -1   -1    0    0    0  501 -0.00000000000E+00  0.00000000000E+00  0.11784249125E+04  0.11784249125E+04  0.00000000000E+00 0.  1.
          2   -1    0    0  501    0  0.00000000000E+00 -0.00000000000E+00 -0.93288955838E+03  0.93288955838E+03  0.00000000000E+00 0. -1.
         24    2    1    2    0    0  0.76789767271E+03 -0.29297201029E+03 -0.13425300808E+03  0.83650968117E+03  0.78899568791E+02 0.  0.
        254    2    1    2    0    0 -0.76789767271E+03  0.29297201029E+03  0.37978836215E+03  0.12748047897E+04  0.89743446398E+03 0.  0.
         23    2    4    4    0    0 -0.90910170687E+03  0.78185084802E+02  0.40450722956E+03  0.10022035487E+04  0.90592677858E+02 0.  0.
         23    2    4    4    0    0  0.14120403417E+03  0.21478692549E+03 -0.24718867406E+02  0.27260124098E+03  0.87340778299E+02 0.  0.
          4    1    3    3  502    0  0.53069277992E+03 -0.21642647426E+03 -0.12765844881E+03  0.58717282377E+03  0.00000000000E+00 0. -1.
         -3    1    3    3    0  502  0.23720489279E+03 -0.76545536033E+02 -0.65945592679E+01  0.24933685741E+03  0.00000000000E+00 0.  1.
         13    1    5    5    0    0 -0.75780090387E+03  0.98912889425E+02  0.33760690146E+03  0.83547853923E+03  0.00000000000E+00 0.  1.
        -13    1    5    5    0    0 -0.15130080300E+03 -0.20727804623E+02  0.66900328103E+02  0.16672500944E+03  0.00000000000E+00 0. -1.
          4    1    6    6  503    0  0.58632559445E+02  0.43692802246E+02  0.23126398003E+02  0.76692035308E+02  0.00000000000E+00 0. -1.
         -4    1    6    6    0  503  0.82571474721E+02  0.17109412324E+03 -0.47845265409E+02  0.19590920567E+03  0.00000000000E+00 0.  1.
<mgrwt>
<rscale>  0 0.20969886E+04</rscale>
<asrwt>0</asrwt>
<pdfrwt beam="1">  1        2 0.14352147E+00 0.20969886E+04</pdfrwt>
<pdfrwt beam="2">  1       -1 0.18129614E+00 0.20969886E+04</pdfrwt>
<totfact> 0.59690048E+00</totfact>
</mgrwt>
</event>
<event>
12    7  0.2492439E-007  0.1475672E+04  0.7818608E-02  0.8900794E-01
         -1   -1    0    0    0  501 -0.00000000000E+00  0.00000000000E+00  0.16138272671E+03  0.16138272671E+03  0.00000000000E+00 0.  1.
          2   -1    0    0  501    0  0.00000000000E+00 -0.00000000000E+00 -0.33733615562E+04  0.33733615562E+04  0.00000000000E+00 0. -1.
         24    2    1    2    0    0 -0.44291394765E+03  0.75501645638E+02 -0.12178422280E+04  0.13004838413E+04  0.79026993307E+02 0.  0.
        254    2    1    2    0    0  0.44291394765E+03 -0.75501645638E+02 -0.19941366015E+04  0.22342604416E+04  0.90192331826E+03 0.  0.
         23    2    4    4    0    0  0.34000204282E+03  0.17398179516E+03 -0.24851403737E+03  0.46546861004E+03  0.95030237228E+02 0.  0.
         23    2    4    4    0    0  0.10291190482E+03 -0.24948344080E+03 -0.17456225641E+04  0.17687918316E+04  0.92701454657E+02 0.  0.
          4    1    3    3  502    0 -0.10711096336E+03  0.19874860817E+02 -0.40162399825E+03  0.41613652151E+03  0.00000000000E+00 0. -1.
         -1    1    3    3    0  502 -0.33580298429E+03  0.55626784821E+02 -0.81621822979E+03  0.88434731983E+03  0.00000000000E+00 0.  1.
         13    1    5    5    0    0  0.27555053861E+03  0.17221544863E+03 -0.23091977725E+03  0.39863542692E+03  0.00000000000E+00 0. -1.
        -13    1    5    5    0    0  0.64451504215E+02  0.17663465237E+01 -0.17594260129E+02  0.66833183114E+02  0.00000000000E+00 0.  1.
          1    1    6    6  503    0  0.57913916351E+02 -0.18819693349E+03 -0.99271099697E+03  0.10120510022E+04  0.00000000000E+00 0. -1.
         -1    1    6    6    0  503  0.44997988470E+02 -0.61286507303E+02 -0.75291156714E+03  0.75674082940E+03  0.00000000000E+00 0.  1.
<mgrwt>
<rscale>  0 0.14756724E+04</rscale>
<asrwt>0</asrwt>
<pdfrwt beam="1">  1        2 0.51897869E+00 0.14756724E+04</pdfrwt>
<pdfrwt beam="2">  1       -1 0.24828112E-01 0.14756724E+04</pdfrwt>
<totfact> 0.15731851E+01</totfact>
</mgrwt>
</event>
<event>
12    7  0.2492439E-007  0.1660667E+04  0.7818608E-02  0.8784121E-01
         -1   -1    0    0    0  501 -0.00000000000E+00  0.00000000000E+00  0.28677423198E+03  0.28677423198E+03  0.00000000000E+00 0.  1.
          2   -1    0    0  501    0  0.00000000000E+00 -0.00000000000E+00 -0.24041679175E+04  0.24041679175E+04  0.00000000000E+00 0. -1.
         24    2    1    2    0    0 -0.42692558428E+03  0.17480020528E+03 -0.17242354799E+03  0.49892820474E+03  0.79868061885E+02 0.  0.
        254    2    1    2    0    0  0.42692558428E+03 -0.17480020528E+03 -0.19449701376E+04  0.21920139448E+04  0.89955307337E+03 0.  0.
         23    2    4    4    0    0  0.12660631727E+03 -0.32829117028E+03 -0.17586469003E+04  0.17956989428E+04  0.88834235468E+02 0.  0.
         23    2    4    4    0    0  0.30031926701E+03  0.15349096500E+03 -0.18632323731E+03  0.39631500197E+03  0.92725905455E+02 0.  0.
          4    1    3    3  502    0 -0.29791304229E+03  0.87669585287E+02 -0.13614700122E+03  0.33907837279E+03  0.00000000000E+00 0. -1.
         -3    1    3    3    0  502 -0.12901254199E+03  0.87130619991E+02 -0.36276546765E+02  0.15984983196E+03  0.00000000000E+00 0.  1.
         13    1    5    5    0    0  0.14056902721E+03 -0.29617682471E+03 -0.15965238245E+04  0.16298370118E+04  0.00000000000E+00 0.  1.
        -13    1    5    5    0    0 -0.13962709945E+02 -0.32114345574E+02 -0.16212307580E+03  0.16586193103E+03  0.00000000000E+00 0. -1.
          3    1    6    6  503    0  0.83803715141E+02  0.52382610102E+01 -0.69837483978E+02  0.10921435903E+03  0.00000000000E+00 0. -1.
         -3    1    6    6    0  503  0.21651555187E+03  0.14825270399E+03 -0.11648575334E+03  0.28710064294E+03  0.00000000000E+00 0.  1.
<mgrwt>
<rscale>  0 0.16606666E+04</rscale>
<asrwt>0</asrwt>
<pdfrwt beam="1">  1        2 0.36987198E+00 0.16606666E+04</pdfrwt>
<pdfrwt beam="2">  1       -1 0.44119114E-01 0.16606666E+04</pdfrwt>
<totfact> 0.21867311E+01</totfact>
</mgrwt>
</event>
<event>
12    7  0.2492439E-007  0.1492779E+04  0.7818608E-02  0.8889269E-01
         -1   -1    0    0    0  501 -0.00000000000E+00  0.00000000000E+00  0.41084906874E+03  0.41084906874E+03  0.00000000000E+00 0.  1.
          2   -1    0    0  501    0  0.00000000000E+00 -0.00000000000E+00 -0.13559654565E+04  0.13559654565E+04  0.00000000000E+00 0. -1.
         24    2    1    2    0    0 -0.12691499930E+03 -0.43583921672E+03 -0.13998755675E+03  0.48216246874E+03  0.82588681643E+02 0.  0.
        254    2    1    2    0    0  0.12691499930E+03  0.43583921672E+03 -0.80512883107E+03  0.12846520565E+04  0.89220806536E+03 0.  0.
         23    2    4    4    0    0 -0.16716209896E+03 -0.48482728792E+02 -0.66587499048E+03  0.69419775089E+03  0.90704311172E+02 0.  0.
         23    2    4    4    0    0  0.29407709826E+03  0.48432194551E+03 -0.13925384058E+03  0.59045430566E+03  0.90529378262E+02 0.  0.
          2    1    3    3  502    0 -0.13719513648E+03 -0.40154780008E+03 -0.13836224349E+03  0.44632639586E+03  0.00000000000E+00 0. -1.
         -1    1    3    3    0  502  0.10280137178E+02 -0.34291416645E+02 -0.16253132540E+01  0.35836072875E+02  0.00000000000E+00 0.  1.
         13    1    5    5    0    0 -0.14597364886E+03 -0.73539740573E+02 -0.55555169465E+03  0.57909764723E+03  0.00000000000E+00 0. -1.
        -13    1    5    5    0    0 -0.21188450098E+02  0.25057011781E+02 -0.11032329583E+03  0.11510010365E+03  0.00000000000E+00 0.  1.
          2    1    6    6  503    0  0.25885993756E+03  0.46470423368E+03 -0.14029488088E+03  0.55012829928E+03  0.00000000000E+00 0. -1.
         -2    1    6    6    0  503  0.35217160697E+02  0.19617711836E+02  0.10410402980E+01  0.40326006375E+02  0.00000000000E+00 0.  1.
<mgrwt>
<rscale>  0 0.14927788E+04</rscale>
<asrwt>0</asrwt>
<pdfrwt beam="1">  1        2 0.20861007E+00 0.14927788E+04</pdfrwt>
<pdfrwt beam="2">  1       -1 0.63207550E-01 0.14927788E+04</pdfrwt>
<totfact> 0.42908550E+01</totfact>
</mgrwt>
</event>
<event>
12    7  0.2492439E-007  0.1926442E+04  0.7818608E-02  0.8641805E-01
          2   -1    0    0  501    0  0.00000000000E+00  0.00000000000E+00  0.86161171634E+03  0.86161171634E+03  0.00000000000E+00 0. -1.
         -1   -1    0    0    0  501 -0.00000000000E+00 -0.00000000000E+00 -0.10768127853E+04  0.10768127853E+04  0.00000000000E+00 0.  1.
         24    2    1    2    0    0  0.21268407540E+03  0.72281851133E+03 -0.99386929149E+02  0.76447243554E+03  0.82699617714E+02 0.  0.
        254    2    1    2    0    0 -0.21268407540E+03 -0.72281851133E+03 -0.11581413985E+03  0.11739520661E+04  0.89277624429E+03 0.  0.
         23    2    4    4    0    0 -0.45310137871E+03 -0.17005670292E+03 -0.24584638150E+03  0.55045726224E+03  0.91337903772E+02 0.  0.
         23    2    4    4    0    0  0.24041730331E+03 -0.55276180841E+03  0.13003224164E+03  0.62349480390E+03  0.92148196214E+02 0.  0.
          2    1    3    3  502    0  0.99148068796E+02  0.23606992033E+03 -0.66795086056E+01  0.25613270518E+03  0.00000000000E+00 0. -1.
         -1    1    3    3    0  502  0.11353600660E+03  0.48674859100E+03 -0.92707420544E+02  0.50833973036E+03  0.00000000000E+00 0.  1.
         13    1    5    5    0    0 -0.27433222498E+03 -0.12293879686E+03 -0.19638433745E+03  0.35908066702E+03  0.00000000000E+00 0. -1.
        -13    1    5    5    0    0 -0.17876915373E+03 -0.47117906067E+02 -0.49462044049E+02  0.19137659522E+03  0.00000000000E+00 0.  1.
          4    1    6    6  503    0  0.10429902782E+03 -0.16853615589E+03  0.95113560630E+01  0.19842678483E+03  0.00000000000E+00 0.  1.
         -4    1    6    6    0  503  0.13611827549E+03 -0.38422565252E+03  0.12052088558E+03  0.42506801907E+03  0.00000000000E+00 0. -1.
<mgrwt>
<rscale>  0 0.19264418E+04</rscale>
<asrwt>0</asrwt>
<pdfrwt beam="1">  1        2 0.13255565E+00 0.19264418E+04</pdfrwt>
<pdfrwt beam="2">  1       -1 0.16566350E+00 0.19264418E+04</pdfrwt>
<totfact> 0.88030425E+00</totfact>
</mgrwt>
</event>
<event>
12    7  0.2492439E-007  0.1721098E+04  0.7818608E-02  0.8749422E-01
          2   -1    0    0  501    0  0.00000000000E+00  0.00000000000E+00  0.14311521849E+04  0.14311521849E+04  0.00000000000E+00 0. -1.
         -1   -1    0    0    0  501 -0.00000000000E+00 -0.00000000000E+00 -0.51744615536E+03  0.51744615536E+03  0.00000000000E+00 0.  1.
         24    2    1    2    0    0  0.81574333611E+02 -0.27336733420E+02 -0.36434826326E+03  0.38287096101E+03  0.80242426096E+02 0.  0.
        254    2    1    2    0    0 -0.81574333611E+02  0.27336733420E+02  0.12780542928E+04  0.15657273792E+04  0.90037646674E+03 0.  0.
         23    2    4    4    0    0 -0.16533066988E+03 -0.36399253311E+03  0.30969381506E+03  0.51391699498E+03  0.91518435758E+02 0.  0.
         23    2    4    4    0    0  0.83756336274E+02  0.39132926653E+03  0.96836047772E+03  0.10518103842E+04  0.91811496438E+02 0.  0.
          2    1    3    3  502    0  0.26031404499E+02 -0.45532762007E+02 -0.23724422068E+03  0.24297260480E+03  0.00000000000E+00 0. -1.
         -1    1    3    3    0  502  0.55542929111E+02  0.18196028587E+02 -0.12710404258E+03  0.13989835621E+03  0.00000000000E+00 0.  1.
         13    1    5    5    0    0 -0.16832718596E+03 -0.33533191639E+03  0.30732066656E+03  0.48500260595E+03  0.00000000000E+00 0. -1.
        -13    1    5    5    0    0  0.29965160704E+01 -0.28660616721E+02  0.23731484920E+01  0.28914389033E+02  0.00000000000E+00 0.  1.
          1    1    6    6  503    0  0.93329973009E+02  0.23447257629E+03  0.63317175436E+03  0.68161157811E+03  0.00000000000E+00 0. -1.
         -1    1    6    6    0  503 -0.95736367346E+01  0.15685669024E+03  0.33518872336E+03  0.37019880613E+03  0.00000000000E+00 0.  1.
<mgrwt>
<rscale>  0 0.17210976E+04</rscale>
<asrwt>0</asrwt>
<pdfrwt beam="1">  1        2 0.22017726E+00 0.17210976E+04</pdfrwt>
<pdfrwt beam="2">  1       -1 0.79607101E-01 0.17210976E+04</pdfrwt>
<totfact> 0.23704191E+01</totfact>
</mgrwt>
</event>
<event>
12    7  0.2492439E-007  0.1926507E+04  0.7818608E-02  0.8641773E-01
         -1   -1    0    0    0  501 -0.00000000000E+00  0.00000000000E+00  0.33027596939E+03  0.33027596939E+03  0.00000000000E+00 0.  1.
          2   -1    0    0  501    0  0.00000000000E+00 -0.00000000000E+00 -0.28093398080E+04  0.28093398080E+04  0.00000000000E+00 0. -1.
         24    2    1    2    0    0  0.27267008730E+03  0.65559271089E+03 -0.57381871889E+03  0.91622267968E+03  0.77751511476E+02 0.  0.
        254    2    1    2    0    0 -0.27267008730E+03 -0.65559271089E+03 -0.19052451197E+04  0.22233930977E+04  0.89964833220E+03 0.  0.
         23    2    4    4    0    0 -0.28498253526E+02 -0.82819570620E+03 -0.13889126679E+04  0.16199036007E+04  0.91043936619E+02 0.  0.
         23    2    4    4    0    0 -0.24417183377E+03  0.17260299530E+03 -0.51633245179E+03  0.60348949694E+03  0.90491401569E+02 0.  0.
          4    1    3    3  502    0  0.86017740864E+02  0.29633288559E+03 -0.22599288650E+03  0.38247224157E+03  0.00000000000E+00 0. -1.
         -3    1    3    3    0  502  0.18665234644E+03  0.35925982530E+03 -0.34782583239E+03  0.53375043811E+03  0.00000000000E+00 0.  1.
         13    1    5    5    0    0 -0.29745975339E+02 -0.14982921950E+03 -0.30710015922E+03  0.34299289477E+03  0.00000000000E+00 0. -1.
        -13    1    5    5    0    0  0.12477218129E+01 -0.67836648669E+03 -0.10818125087E+04  0.12769107060E+04  0.00000000000E+00 0.  1.
          1    1    6    6  503    0 -0.12816764017E+03  0.68750680053E+02 -0.16972894520E+03  0.22352072574E+03  0.00000000000E+00 0. -1.
         -1    1    6    6    0  503 -0.11600419360E+03  0.10385231525E+03 -0.34660350658E+03  0.37996877121E+03  0.00000000000E+00 0.  1.
<mgrwt>
<rscale>  0 0.19265071E+04</rscale>
<asrwt>0</asrwt>
<pdfrwt beam="1">  1        2 0.43220610E+00 0.19265071E+04</pdfrwt>
<pdfrwt beam="2">  1       -1 0.50811690E-01 0.19265071E+04</pdfrwt>
<totfact> 0.94696410E+00</totfact>
</mgrwt>
</event>
<event>
12    7  0.2492439E-007  0.3538454E+04  0.7818608E-02  0.8104737E-01
          2   -1    0    0  501    0  0.00000000000E+00  0.00000000000E+00  0.22757319846E+04  0.22757319846E+04  0.00000000000E+00 0. -1.
         -1   -1    0    0    0  501 -0.00000000000E+00 -0.00000000000E+00 -0.13754537502E+04  0.13754537502E+04  0.00000000000E+00 0.  1.
         24    2    1    2    0    0  0.69811976971E+03 -0.24585221170E+03  0.19470832071E+04  0.20847562125E+04  0.85211074270E+02 0.  0.
        254    2    1    2    0    0 -0.69811976971E+03  0.24585221170E+03 -0.10468049728E+04  0.15664295223E+04  0.90004792894E+03 0.  0.
         23    2    4    4    0    0 -0.43433220173E+03 -0.29496684954E+03 -0.32925697602E+03  0.62564247724E+03  0.85839671975E+02 0.  0.
         23    2    4    4    0    0 -0.26378756798E+03  0.54081906124E+03 -0.71754799678E+03  0.94078704506E+03  0.90199769645E+02 0.  0.
          4    1    3    3  502    0  0.58171861480E+03 -0.17104944204E+03  0.16087211662E+04  0.17191969780E+04  0.00000000000E+00 0. -1.
         -3    1    3    3    0  502  0.11640115490E+03 -0.74802769658E+02  0.33836204090E+03  0.36555923450E+03  0.00000000000E+00 0.  1.
         13    1    5    5    0    0 -0.17883914302E+03 -0.12075783065E+03 -0.86405354460E+02  0.23244736612E+03  0.00000000000E+00 0.  1.
        -13    1    5    5    0    0 -0.25549305871E+03 -0.17420901889E+03 -0.24285162156E+03  0.39319511112E+03  0.00000000000E+00 0. -1.
          1    1    6    6  503    0 -0.10893593494E+03  0.31912199114E+03 -0.37385051411E+03  0.50345813137E+03  0.00000000000E+00 0. -1.
         -1    1    6    6    0  503 -0.15485163304E+03  0.22169707010E+03 -0.34369748267E+03  0.43732891368E+03  0.00000000000E+00 0.  1.
<mgrwt>
<rscale>  0 0.35384540E+04</rscale>
<asrwt>0</asrwt>
<pdfrwt beam="1">  1        2 0.35011261E+00 0.35384540E+04</pdfrwt>
<pdfrwt beam="2">  1       -1 0.21160827E+00 0.35384540E+04</pdfrwt>
<totfact> 0.54633332E-01</totfact>
</mgrwt>
</event>
<event>
12    7  0.2492439E-007  0.2196915E+04  0.7818608E-02  0.8519713E-01
          2   -1    0    0  501    0  0.00000000000E+00  0.00000000000E+00  0.29207745980E+04  0.29207745980E+04  0.00000000000E+00 0. -1.
         -1   -1    0    0    0  501 -0.00000000000E+00 -0.00000000000E+00 -0.41311256687E+03  0.41311256687E+03  0.00000000000E+00 0.  1.
         24    2    1    2    0    0  0.76639696267E+03  0.21740250122E+03  0.37046527134E+03  0.88215963557E+03  0.79579855666E+02 0.  0.
        254    2    1    2    0    0 -0.76639696267E+03 -0.21740250122E+03  0.21371967598E+04  0.24517275293E+04  0.89929402085E+03 0.  0.
         23    2    4    4    0    0 -0.17153795419E+02  0.16940393939E+03  0.50876983416E+02  0.19951239794E+03  0.90690584461E+02 0.  0.
         23    2    4    4    0    0 -0.74924316725E+03 -0.38680644061E+03  0.20863197764E+04  0.22522151314E+04  0.93585482147E+02 0.  0.
          4    1    3    3  502    0  0.62677171075E+03  0.20663072154E+03  0.31848595891E+03  0.73278396442E+03  0.00000000000E+00 0. -1.
         -3    1    3    3    0  502  0.13962525192E+03  0.10771779674E+02  0.51979312432E+02  0.14937567115E+03  0.00000000000E+00 0.  1.
         13    1    5    5    0    0 -0.23850316406E+02  0.10834440653E+03  0.74574742038E+02  0.13367400708E+03  0.00000000000E+00 0.  1.
        -13    1    5    5    0    0  0.66965209861E+01  0.61059532863E+02 -0.23697758623E+02  0.65838390856E+02  0.00000000000E+00 0. -1.
          1    1    6    6  503    0 -0.25401766144E+02 -0.27010310106E+02  0.13734625049E+03  0.14226313331E+03  0.00000000000E+00 0. -1.
         -1    1    6    6    0  503 -0.72384140111E+03 -0.35979613050E+03  0.19489735259E+04  0.21099519981E+04  0.00000000000E+00 0.  1.
<mgrwt>
<rscale>  0 0.21969148E+04</rscale>
<asrwt>0</asrwt>
<pdfrwt beam="1">  1        2 0.44934992E+00 0.21969148E+04</pdfrwt>
<pdfrwt beam="2">  1       -1 0.63555781E-01 0.21969148E+04</pdfrwt>
<totfact> 0.51002572E+00</totfact>
</mgrwt>
</event>
<event>
12    7  0.2492439E-007  0.1182433E+04  0.7818608E-02  0.9128373E-01
          2   -1    0    0  501    0  0.00000000000E+00  0.00000000000E+00  0.34246817949E+04  0.34246817949E+04  0.00000000000E+00 0. -1.
         -1   -1    0    0    0  501 -0.00000000000E+00 -0.00000000000E+00 -0.10206407083E+03  0.10206407083E+03  0.00000000000E+00 0.  1.
         24    2    1    2    0    0 -0.18059447850E+03  0.50237545333E+02  0.26419076289E+03  0.33360303961E+03  0.79724853178E+02 0.  0.
        254    2    1    2    0    0  0.18059447850E+03 -0.50237545333E+02  0.30584269612E+04  0.31931428261E+04  0.89835819942E+03 0.  0.
         23    2    4    4    0    0 -0.22910374339E+03  0.12890104568E+03  0.35328873434E+03  0.44977381848E+03  0.91539899307E+02 0.  0.
         23    2    4    4    0    0  0.40969822189E+03 -0.17913859101E+03  0.27051382269E+04  0.27433690077E+04  0.91418914628E+02 0.  0.
          2    1    3    3  502    0 -0.93521063156E+02  0.14010519979E+02  0.19472377858E+03  0.21647132343E+03  0.00000000000E+00 0. -1.
         -1    1    3    3    0  502 -0.87073415348E+02  0.36227025355E+02  0.69466984317E+02  0.11713171619E+03  0.00000000000E+00 0.  1.
         13    1    5    5    0    0 -0.20477967792E+03  0.11709271359E+03  0.35064267350E+03  0.42260585011E+03  0.00000000000E+00 0. -1.
        -13    1    5    5    0    0 -0.24324065463E+02  0.11808332083E+02  0.26460608400E+01  0.27167968367E+02  0.00000000000E+00 0.  1.
          1    1    6    6  503    0  0.25680418882E+03 -0.15735743778E+03  0.18626778947E+04  0.18868700788E+04  0.00000000000E+00 0. -1.
         -1    1    6    6    0  503  0.15289403307E+03 -0.21781153234E+02  0.84246033212E+03  0.85649892889E+03  0.00000000000E+00 0.  1.
<mgrwt>
<rscale>  0 0.11824330E+04</rscale>
<asrwt>0</asrwt>
<pdfrwt beam="1">  1        2 0.52687403E+00 0.11824330E+04</pdfrwt>
<pdfrwt beam="2">  1       -1 0.15702167E-01 0.11824330E+04</pdfrwt>
<totfact> 0.32293351E+01</totfact>
</mgrwt>
</event>
<event>
12    7  0.2492439E-007  0.3061921E+04  0.7818608E-02  0.8226267E-01
         -1   -1    0    0    0  501 -0.00000000000E+00  0.00000000000E+00  0.26152584263E+04  0.26152584263E+04  0.00000000000E+00 0.  1.
          2   -1    0    0  501    0  0.00000000000E+00 -0.00000000000E+00 -0.89621724282E+03  0.89621724282E+03  0.00000000000E+00 0. -1.
         24    2    1    2    0    0 -0.97934645866E+02 -0.47774344025E+03  0.22849489905E+04  0.23377775019E+04  0.79885979246E+02 0.  0.
        254    2    1    2    0    0  0.97934645866E+02  0.47774344025E+03 -0.56590780706E+03  0.11736981672E+04  0.90525452331E+03 0.  0.
         23    2    4    4    0    0  0.17522068731E+03 -0.17226057998E+03 -0.42272374844E+03  0.49737570829E+03  0.91165953250E+02 0.  0.
         23    2    4    4    0    0 -0.77286041440E+02  0.65000402023E+03 -0.14318405862E+03  0.67632245888E+03  0.91826114036E+02 0.  0.
          2    1    3    3  502    0 -0.35954284803E+02 -0.16401049729E+03  0.61644017810E+03  0.63889799420E+03  0.00000000000E+00 0. -1.
         -1    1    3    3    0  502 -0.61980361063E+02 -0.31373294296E+03  0.16685088124E+04  0.16988795077E+04  0.00000000000E+00 0.  1.
         13    1    5    5    0    0  0.44407575227E+02 -0.84368560481E+02 -0.99656651376E+02  0.13791858069E+03  0.00000000000E+00 0. -1.
        -13    1    5    5    0    0  0.13081311208E+03 -0.87892019501E+02 -0.32306709706E+03  0.35945712761E+03  0.00000000000E+00 0.  1.
          1    1    6    6  503    0 -0.84163019862E+02  0.49198363771E+03 -0.13888953233E+03  0.51809421526E+03  0.00000000000E+00 0. -1.
         -1    1    6    6    0  503  0.68769784228E+01  0.15802038252E+03 -0.42945262918E+01  0.15822824362E+03  0.00000000000E+00 0.  1.
<mgrwt>
<rscale>  0 0.30619208E+04</rscale>
<asrwt>0</asrwt>
<pdfrwt beam="1">  1        2 0.13787958E+00 0.30619208E+04</pdfrwt>
<pdfrwt beam="2">  1       -1 0.40234745E+00 0.30619208E+04</pdfrwt>
<totfact> 0.19723748E-01</totfact>
</mgrwt>
</event>
<event>
12    7  0.2492439E-007  0.2805799E+04  0.7818608E-02  0.8301470E-01
          2   -1    0    0  501    0  0.00000000000E+00  0.00000000000E+00  0.17743745368E+04  0.17743745368E+04  0.00000000000E+00 0. -1.
         -1   -1    0    0    0  501 -0.00000000000E+00 -0.00000000000E+00 -0.11091946878E+04  0.11091946878E+04  0.00000000000E+00 0.  1.
         24    2    1    2    0    0  0.78322109338E+03 -0.87458812748E+03 -0.16623094902E+03  0.11884990341E+04  0.80978712664E+02 0.  0.
        254    2    1    2    0    0 -0.78322109338E+03  0.87458812748E+03  0.83141079804E+03  0.16950701904E+04  0.89648165715E+03 0.  0.
         23    2    4    4    0    0 -0.17595467561E+03 -0.16991491272E+03  0.17806795767E+03  0.31780009236E+03  0.97250067993E+02 0.  0.
         23    2    4    4    0    0 -0.60726641778E+03  0.10445030402E+04  0.65334284037E+03  0.13772700981E+04  0.10127661571E+03 0.  0.
          4    1    3    3  502    0  0.16239752944E+03 -0.13768778953E+03 -0.18984737364E+02  0.21375524603E+03  0.00000000000E+00 0. -1.
         -3    1    3    3    0  502  0.62082356395E+03 -0.73690033795E+03 -0.14724621165E+03  0.97474378811E+03  0.00000000000E+00 0.  1.
         13    1    5    5    0    0 -0.33865823498E+02 -0.82819744455E+02  0.28602027074E+02  0.93936574482E+02  0.00000000000E+00 0.  1.
        -13    1    5    5    0    0 -0.14208885211E+03 -0.87095168260E+02  0.14946593059E+03  0.22386351788E+03  0.00000000000E+00 0. -1.
          3    1    6    6  503    0 -0.46988232157E+02  0.13254878829E+03  0.54533485489E+02  0.15083426758E+03  0.00000000000E+00 0. -1.
         -3    1    6    6    0  503 -0.56027818562E+03  0.91195425191E+03  0.59880935489E+03  0.12264358305E+04  0.00000000000E+00 0.  1.
<mgrwt>
<rscale>  0 0.28057989E+04</rscale>
<asrwt>0</asrwt>
<pdfrwt beam="1">  1        2 0.27298070E+00 0.28057989E+04</pdfrwt>
<pdfrwt beam="2">  1       -1 0.17064534E+00 0.28057989E+04</pdfrwt>
<totfact> 0.21482400E+00</totfact>
</mgrwt>
</event>
<event>
12    7  0.2492439E-007  0.1541957E+04  0.7818608E-02  0.8857022E-01
         -1   -1    0    0    0  501 -0.00000000000E+00  0.00000000000E+00  0.16229791089E+04  0.16229791089E+04  0.00000000000E+00 0.  1.
          2   -1    0    0  501    0  0.00000000000E+00 -0.00000000000E+00 -0.36624490767E+03  0.36624490767E+03  0.00000000000E+00 0. -1.
         24    2    1    2    0    0 -0.26764382426E+03 -0.16278954958E+03  0.92331705204E+03  0.97855293641E+03  0.83173413110E+02 0.  0.
        254    2    1    2    0    0  0.26764382426E+03  0.16278954958E+03  0.33341714922E+03  0.10106710802E+04  0.90119663938E+03 0.  0.
         23    2    4    4    0    0 -0.12426896252E+03 -0.29947874937E+03  0.16615588042E+03  0.37520969013E+03  0.89689679442E+02 0.  0.
         23    2    4    4    0    0  0.39191278677E+03  0.46226829895E+03  0.16726126880E+03  0.63546139007E+03  0.92451249728E+02 0.  0.
          2    1    3    3  502    0 -0.21748344005E+03 -0.10914106803E+03  0.60999635063E+03  0.65673919269E+03  0.00000000000E+00 0. -1.
         -1    1    3    3    0  502 -0.50160384204E+02 -0.53648481546E+02  0.31332070141E+03  0.32181374372E+03  0.00000000000E+00 0.  1.
         13    1    5    5    0    0 -0.90196887526E+02 -0.17614584667E+03  0.54179856332E+02  0.20517868956E+03  0.00000000000E+00 0. -1.
        -13    1    5    5    0    0 -0.34072074990E+02 -0.12333290270E+03  0.11197602409E+03  0.17003100056E+03  0.00000000000E+00 0.  1.
          3    1    6    6  503    0  0.10472372298E+03  0.67763393062E+02  0.42772794431E+02  0.13186526282E+03  0.00000000000E+00 0. -1.
         -3    1    6    6    0  503  0.28718906379E+03  0.39450490589E+03  0.12448847437E+03  0.50359612725E+03  0.00000000000E+00 0.  1.
<mgrwt>
<rscale>  0 0.15419570E+04</rscale>
<asrwt>0</asrwt>
<pdfrwt beam="1">  1        2 0.56345371E-01 0.15419570E+04</pdfrwt>
<pdfrwt beam="2">  1       -1 0.24968909E+00 0.15419570E+04</pdfrwt>
<totfact> 0.67830758E+00</totfact>
</mgrwt>
</event>
<event>
12    7  0.2492439E-007  0.7607093E+04  0.7818608E-02  0.7517873E-01
          2   -1    0    0  501    0  0.00000000000E+00  0.00000000000E+00  0.45244899457E+04  0.45244899457E+04  0.00000000000E+00 0. -1.
         -1   -1    0    0    0  501 -0.00000000000E+00 -0.00000000000E+00 -0.31974796666E+04  0.31974796666E+04  0.00000000000E+00 0.  1.
         24    2    1    2    0    0 -0.35632580783E+04 -0.10664180952E+04  0.16973184642E+03  0.37236625741E+04  0.52899710938E+02 0.  0.
        254    2    1    2    0    0  0.35632580783E+04  0.10664180952E+04  0.11572784327E+04  0.39983070382E+04  0.90172618581E+03 0.  0.
         23    2    4    4    0    0  0.33028649532E+04  0.12009412611E+04  0.11039453003E+04  0.36849535306E+04  0.94923576027E+02 0.  0.
         23    2    4    4    0    0  0.26039312514E+03 -0.13452316592E+03  0.53333132419E+02  0.31335350754E+03  0.97185059966E+02 0.  0.
          4    1    3    3  502    0 -0.84845117782E+03 -0.23073307290E+03  0.36742844223E+02  0.88003249296E+03  0.00000000000E+00 0. -1.
         -3    1    3    3    0  502 -0.27148069005E+04 -0.83568502233E+03  0.13298900220E+03  0.28436300811E+04  0.00000000000E+00 0.  1.
         13    1    5    5    0    0  0.18688557011E+03  0.52853507121E+02  0.78398094388E+02  0.20944204624E+03  0.00000000000E+00 0.  1.
        -13    1    5    5    0    0  0.31159793831E+04  0.11480877540E+04  0.10255472059E+04  0.34755114844E+04  0.00000000000E+00 0. -1.
          3    1    6    6  503    0  0.23776027607E+03 -0.14818243882E+03  0.37808524900E+02  0.28269677856E+03  0.00000000000E+00 0. -1.
         -3    1    6    6    0  503  0.22632849068E+02  0.13659272895E+02  0.15524607519E+02  0.30656728977E+02  0.00000000000E+00 0.  1.
<mgrwt>
<rscale>  0 0.76070926E+04</rscale>
<asrwt>0</asrwt>
<pdfrwt beam="1">  1        2 0.69607538E+00 0.76070926E+04</pdfrwt>
<pdfrwt beam="2">  1       -1 0.49191995E+00 0.76070926E+04</pdfrwt>
<totfact> 0.13278175E-04</totfact>
</mgrwt>
</event>
<event>
12    7  0.2492439E-007  0.3308550E+04  0.7818608E-02  0.8160723E-01
         -1   -1    0    0    0  501 -0.00000000000E+00  0.00000000000E+00  0.14150635691E+04  0.14150635691E+04  0.00000000000E+00 0.  1.
          2   -1    0    0  501    0  0.00000000000E+00 -0.00000000000E+00 -0.19339242880E+04  0.19339242880E+04  0.00000000000E+00 0. -1.
         24    2    1    2    0    0  0.10939303017E+03 -0.15224982859E+04 -0.12221967214E+03  0.15333642977E+04  0.79376038617E+02 0.  0.
        254    2    1    2    0    0 -0.10939303017E+03  0.15224982859E+04 -0.39664104680E+03  0.18156235594E+04  0.89955373601E+03 0.  0.
         23    2    4    4    0    0  0.18942711675E+03  0.52782488496E+03  0.21419145643E+03  0.60736605884E+03  0.92378610518E+02 0.  0.
         23    2    4    4    0    0 -0.29882014692E+03  0.99467340092E+03 -0.61083250323E+03  0.12082575006E+04  0.90006588680E+02 0.  0.
          4    1    3    3  502    0  0.75732704351E+02 -0.52734228152E+03 -0.44958474736E+02  0.53464622775E+03  0.00000000000E+00 0. -1.
         -1    1    3    3    0  502  0.33660325822E+02 -0.99515600436E+03 -0.77261197400E+02  0.99871806991E+03  0.00000000000E+00 0.  1.
         13    1    5    5    0    0  0.12125420570E+03  0.44024287992E+03  0.16000255234E+03  0.48385658255E+03  0.00000000000E+00 0. -1.
        -13    1    5    5    0    0  0.68172911044E+02  0.87582005040E+02  0.54188904095E+02  0.12350947629E+03  0.00000000000E+00 0.  1.
          1    1    6    6  503    0 -0.17424075558E+03  0.43400098119E+03 -0.29212024478E+03  0.55140813377E+03  0.00000000000E+00 0. -1.
         -1    1    6    6    0  503 -0.12457939134E+03  0.56067241973E+03 -0.31871225846E+03  0.65684936682E+03  0.00000000000E+00 0.  1.
<mgrwt>
<rscale>  0 0.33085500E+04</rscale>
<asrwt>0</asrwt>
<pdfrwt beam="1">  1        2 0.29752681E+00 0.33085500E+04</pdfrwt>
<pdfrwt beam="2">  1       -1 0.21770209E+00 0.33085500E+04</pdfrwt>
<totfact> 0.78725221E-01</totfact>
</mgrwt>
</event>
<event>
12    7  0.2492439E-007  0.2628240E+04  0.7818608E-02  0.8358672E-01
          2   -1    0    0  501    0  0.00000000000E+00  0.00000000000E+00  0.33539755290E+04  0.33539755290E+04  0.00000000000E+00 0. -1.
         -1   -1    0    0    0  501 -0.00000000000E+00 -0.00000000000E+00 -0.51488487781E+03  0.51488487781E+03  0.00000000000E+00 0.  1.
         24    2    1    2    0    0 -0.11298939541E+04  0.11766905614E+03  0.15882042344E+04  0.19544202321E+04  0.82821490460E+02 0.  0.
        254    2    1    2    0    0  0.11298939541E+04 -0.11766905614E+03  0.12508864167E+04  0.19144401746E+04  0.89992110780E+03 0.  0.
         23    2    4    4    0    0  0.80783103138E+03 -0.13356664703E+03  0.13368214219E+04  0.15696496124E+04  0.79229836635E+02 0.  0.
         23    2    4    4    0    0  0.32206292275E+03  0.15897590894E+02 -0.85935005209E+02  0.34479056224E+03  0.86708979245E+02 0.  0.
          2    1    3    3  502    0 -0.83118037184E+03  0.88488161291E+02  0.12292435572E+04  0.14865162926E+04  0.00000000000E+00 0. -1.
         -1    1    3    3    0  502 -0.29871358230E+03  0.29180894846E+02  0.35896067718E+03  0.46790393954E+03  0.00000000000E+00 0.  1.
         13    1    5    5    0    0  0.22449544400E+03 -0.47104847262E+02  0.31159704523E+03  0.38692349322E+03  0.00000000000E+00 0. -1.
        -13    1    5    5    0    0  0.58333558738E+03 -0.86461799769E+02  0.10252243767E+04  0.11827261192E+04  0.00000000000E+00 0.  1.
          3    1    6    6  503    0  0.74673053606E+02 -0.28739675766E+02 -0.39197418816E+02  0.89098100652E+02  0.00000000000E+00 0. -1.
         -3    1    6    6    0  503  0.24738986914E+03  0.44637266660E+02 -0.46737586393E+02  0.25569246158E+03  0.00000000000E+00 0.  1.
<mgrwt>
<rscale>  0 0.26282399E+04</rscale>
<asrwt>0</asrwt>
<pdfrwt beam="1">  1        2 0.51599622E+00 0.26282399E+04</pdfrwt>
<pdfrwt beam="2">  1       -1 0.79213060E-01 0.26282399E+04</pdfrwt>
<totfact> 0.16382055E+00</totfact>
</mgrwt>
</event>
<event>
12    7  0.2492439E-007  0.1763847E+04  0.7818608E-02  0.8725765E-01
          2   -1    0    0  501    0  0.00000000000E+00  0.00000000000E+00  0.20227460204E+04  0.20227460204E+04  0.00000000000E+00 0. -1.
         -1   -1    0    0    0  501 -0.00000000000E+00 -0.00000000000E+00 -0.38452146231E+03  0.38452146231E+03  0.00000000000E+00 0.  1.
         24    2    1    2    0    0  0.27302694441E+03 -0.57635556884E+03  0.77751648330E+03  0.10090851854E+04  0.83615641827E+02 0.  0.
        254    2    1    2    0    0 -0.27302694441E+03  0.57635556884E+03  0.86070807481E+03  0.13981822973E+04  0.89853541516E+03 0.  0.
         23    2    4    4    0    0 -0.17714786993E+03  0.20067474738E+01  0.77646072970E+03  0.80274678221E+03  0.10062671976E+03 0.  0.
         23    2    4    4    0    0 -0.95879074485E+02  0.57434882137E+03  0.84247345111E+02  0.59543551508E+03  0.91523067744E+02 0.  0.
          2    1    3    3  502    0  0.24293443773E+03 -0.44247680568E+03  0.63590389204E+03  0.81189692974E+03  0.00000000000E+00 0. -1.
         -1    1    3    3    0  502  0.30092506682E+02 -0.13387876316E+03  0.14161259125E+03  0.19718825570E+03  0.00000000000E+00 0.  1.
         13    1    5    5    0    0 -0.18982103517E+03 -0.11251877158E+01  0.74199630551E+03  0.76589281811E+03  0.00000000000E+00 0. -1.
        -13    1    5    5    0    0  0.12673165244E+02  0.31319351897E+01  0.34464424187E+02  0.36853964100E+02  0.00000000000E+00 0.  1.
          1    1    6    6  503    0 -0.60146673040E+02  0.50016987217E+03  0.94182693358E+02  0.51250161271E+03  0.00000000000E+00 0. -1.
         -1    1    6    6    0  503 -0.35732401445E+02  0.74178949197E+02 -0.99353482465E+01  0.82933902367E+02  0.00000000000E+00 0.  1.
<mgrwt>
<rscale>  0 0.17638472E+04</rscale>
<asrwt>0</asrwt>
<pdfrwt beam="1">  1        2 0.31119169E+00 0.17638472E+04</pdfrwt>
<pdfrwt beam="2">  1       -1 0.59157149E-01 0.17638472E+04</pdfrwt>
<totfact> 0.20268435E+01</totfact>
</mgrwt>
</event>
<event>
12    7  0.2492439E-007  0.2799179E+04  0.7818608E-02  0.8303523E-01
          2   -1    0    0  501    0  0.00000000000E+00  0.00000000000E+00  0.30256804311E+04  0.30256804311E+04  0.00000000000E+00 0. -1.
         -1   -1    0    0    0  501 -0.00000000000E+00 -0.00000000000E+00 -0.64740822905E+03  0.64740822905E+03  0.00000000000E+00 0.  1.
         24    2    1    2    0    0 -0.22392063187E+03  0.72539344255E+03 -0.24170511835E+03  0.80078556149E+03  0.80622920892E+02 0.  0.
        254    2    1    2    0    0  0.22392063187E+03 -0.72539344255E+03  0.26199773204E+04  0.28723030986E+04  0.89972653358E+03 0.  0.
         23    2    4    4    0    0  0.23399907231E+03 -0.73361769262E+02  0.12073113536E+03  0.28769596076E+03  0.89752123994E+02 0.  0.
         23    2    4    4    0    0 -0.10078440440E+02 -0.65203167329E+03  0.24992461850E+04  0.25846071379E+04  0.93357837734E+02 0.  0.
          4    1    3    3  502    0 -0.13365079244E+03  0.47727905198E+03 -0.11945263816E+03  0.50983012911E+03  0.00000000000E+00 0. -1.
         -3    1    3    3    0  502 -0.90269839431E+02  0.24811439057E+03 -0.12225248019E+03  0.29095543238E+03  0.00000000000E+00 0.  1.
         13    1    5    5    0    0  0.47308297010E+02 -0.41136293958E+02 -0.65008474891E+00  0.62695233126E+02  0.00000000000E+00 0. -1.
        -13    1    5    5    0    0  0.18669077530E+03 -0.32225475304E+02  0.12138122011E+03  0.22500072764E+03  0.00000000000E+00 0.  1.
          1    1    6    6  503    0 -0.10491076264E+02 -0.37973451675E+03  0.16314317585E+04  0.16750755054E+04  0.00000000000E+00 0. -1.
         -1    1    6    6    0  503  0.41263582448E+00 -0.27229715654E+03  0.86781442647E+03  0.90953163250E+03  0.00000000000E+00 0.  1.
<mgrwt>
<rscale>  0 0.27991787E+04</rscale>
<asrwt>0</asrwt>
<pdfrwt beam="1">  1        2 0.46548929E+00 0.27991787E+04</pdfrwt>
<pdfrwt beam="2">  1       -1 0.99601268E-01 0.27991787E+04</pdfrwt>
<totfact> 0.15953145E+00</totfact>
</mgrwt>
</event>
<event>
12    7  0.2492439E-007  0.2237251E+04  0.7818608E-02  0.8503081E-01
          2   -1    0    0  501    0  0.00000000000E+00  0.00000000000E+00  0.29113344567E+04  0.29113344567E+04  0.00000000000E+00 0. -1.
         -1   -1    0    0    0  501 -0.00000000000E+00 -0.00000000000E+00 -0.42981077436E+03  0.42981077436E+03  0.00000000000E+00 0.  1.
         24    2    1    2    0    0 -0.43370632319E+03  0.53925478372E+03  0.10123672436E+03  0.70401333094E+03  0.80554324745E+02 0.  0.
        254    2    1    2    0    0  0.43370632319E+03 -0.53925478372E+03  0.23802869579E+04  0.26371319001E+04  0.89988985981E+03 0.  0.
         23    2    4    4    0    0  0.53828852867E+03 -0.21232018345E+03  0.21131112721E+04  0.21928123057E+04  0.91390150173E+02 0.  0.
         23    2    4    4    0    0 -0.10458220547E+03 -0.32693460027E+03  0.26717568583E+03  0.44431959434E+03  0.90627723453E+02 0.  0.
          2    1    3    3  502    0 -0.13669413279E+03  0.12407182158E+03  0.48122038489E+02  0.19077429973E+03  0.00000000000E+00 0. -1.
         -1    1    3    3    0  502 -0.29701219041E+03  0.41518296213E+03  0.53114685870E+02  0.51323903120E+03  0.00000000000E+00 0.  1.
         13    1    5    5    0    0  0.36067346435E+03 -0.18706845463E+03  0.14861390169E+04  0.15406781404E+04  0.00000000000E+00 0.  1.
        -13    1    5    5    0    0  0.17761506432E+03 -0.25251728816E+02  0.62697225520E+03  0.65213416540E+03  0.00000000000E+00 0. -1.
          1    1    6    6  503    0 -0.28812720461E+02 -0.20616534200E+02  0.49907766233E+02  0.61204570689E+02  0.00000000000E+00 0. -1.
         -1    1    6    6    0  503 -0.75769485014E+02 -0.30631806607E+03  0.21726791960E+03  0.38311502365E+03  0.00000000000E+00 0.  1.
<mgrwt>
<rscale>  0 0.22372509E+04</rscale>
<asrwt>0</asrwt>
<pdfrwt beam="1">  1        2 0.44789760E+00 0.22372509E+04</pdfrwt>
<pdfrwt beam="2">  1       -1 0.66124736E-01 0.22372509E+04</pdfrwt>
<totfact> 0.47548400E+00</totfact>
</mgrwt>
</event>
<event>
12    7  0.2492439E-007  0.2549752E+04  0.7818608E-02  0.8385473E-01
          2   -1    0    0  501    0  0.00000000000E+00  0.00000000000E+00  0.12987055862E+04  0.12987055862E+04  0.00000000000E+00 0. -1.
         -1   -1    0    0    0  501 -0.00000000000E+00 -0.00000000000E+00 -0.12514832599E+04  0.12514832599E+04  0.00000000000E+00 0.  1.
         24    2    1    2    0    0 -0.11075622149E+04 -0.10604048679E+03 -0.37178092980E+02  0.11158165801E+04  0.75668918239E+02 0.  0.
        254    2    1    2    0    0  0.11075622149E+04  0.10604048679E+03  0.84400419291E+02  0.14343722659E+04  0.90131111268E+03 0.  0.
         23    2    4    4    0    0  0.24944546424E+03  0.43269530696E+03  0.60548614146E+02  0.51122796409E+03  0.90772398335E+02 0.  0.
         23    2    4    4    0    0  0.85811675065E+03 -0.32665482017E+03  0.23851805145E+02  0.92314430185E+03  0.92513588961E+02 0.  0.
          4    1    3    3  502    0 -0.14054986331E+03 -0.80661017670E+01 -0.29422006846E+02  0.14382274007E+03  0.00000000000E+00 0. -1.
         -3    1    3    3    0  502 -0.96701235158E+03 -0.97974385018E+02 -0.77560861341E+01  0.97199384005E+03  0.00000000000E+00 0.  1.
         13    1    5    5    0    0  0.19141422785E+03  0.25669915413E+03  0.60698157853E+02  0.32591122829E+03  0.00000000000E+00 0.  1.
        -13    1    5    5    0    0  0.58031236391E+02  0.17599615282E+03 -0.14954370698E+00  0.18531673580E+03  0.00000000000E+00 0. -1.
          4    1    6    6  503    0  0.18111268207E+03 -0.45537101897E+02  0.35044225163E+02  0.19000928655E+03  0.00000000000E+00 0. -1.
         -4    1    6    6    0  503  0.67700406858E+03 -0.28111771828E+03 -0.11192420018E+02  0.73313501530E+03  0.00000000000E+00 0.  1.
<mgrwt>
<rscale>  0 0.25497516E+04</rscale>
<asrwt>0</asrwt>
<pdfrwt beam="1">  1        2 0.19980086E+00 0.25497516E+04</pdfrwt>
<pdfrwt beam="2">  1       -1 0.19253589E+00 0.25497516E+04</pdfrwt>
<totfact> 0.28427773E+00</totfact>
</mgrwt>
</event>
<event>
12    7  0.2492439E-007  0.1537057E+04  0.7818608E-02  0.8860178E-01
         -1   -1    0    0    0  501 -0.00000000000E+00  0.00000000000E+00  0.18537116001E+04  0.18537116001E+04  0.00000000000E+00 0.  1.
          2   -1    0    0  501    0  0.00000000000E+00 -0.00000000000E+00 -0.31862334610E+03  0.31862334610E+03  0.00000000000E+00 0. -1.
         24    2    1    2    0    0  0.36792065298E+03 -0.31282539287E+03  0.69726215264E+03  0.85179253726E+03  0.78426294841E+02 0.  0.
        254    2    1    2    0    0 -0.36792065298E+03  0.31282539287E+03  0.83782610137E+03  0.13205424089E+04  0.89925210278E+03 0.  0.
         23    2    4    4    0    0 -0.52333064394E+03  0.13671620288E+03  0.90681724643E+03  0.10597691347E+04  0.90701804962E+02 0.  0.
         23    2    4    4    0    0  0.15540999096E+03  0.17610918999E+03 -0.68991145058E+02  0.26077327424E+03  0.89867738220E+02 0.  0.
          4    1    3    3  502    0  0.73967314904E+02 -0.82502836959E+02  0.11208513176E+03  0.15761014733E+03  0.00000000000E+00 0. -1.
         -3    1    3    3    0  502  0.29395333807E+03 -0.23032255591E+03  0.58517702088E+03  0.69418238993E+03  0.00000000000E+00 0.  1.
         13    1    5    5    0    0 -0.51118660299E+02  0.35071350931E+02  0.14539863235E+03  0.15806289690E+03  0.00000000000E+00 0.  1.
        -13    1    5    5    0    0 -0.47221198364E+03  0.10164485195E+03  0.76141861408E+03  0.90170623780E+03  0.00000000000E+00 0. -1.
          2    1    6    6  503    0  0.10504600934E+03  0.96170566697E+02  0.22588088481E+01  0.14243786082E+03  0.00000000000E+00 0. -1.
         -2    1    6    6    0  503  0.50363981625E+02  0.79938623297E+02 -0.71249953906E+02  0.11833541343E+03  0.00000000000E+00 0.  1.
<mgrwt>
<rscale>  0 0.15370567E+04</rscale>
<asrwt>0</asrwt>
<pdfrwt beam="1">  1        2 0.49018977E-01 0.15370567E+04</pdfrwt>
<pdfrwt beam="2">  1       -1 0.28518639E+00 0.15370567E+04</pdfrwt>
<totfact> 0.46721035E+00</totfact>
</mgrwt>
</event>
<event>
12    7  0.2492439E-007  0.1928255E+04  0.7818608E-02  0.8640918E-01
          2   -1    0    0  501    0  0.00000000000E+00  0.00000000000E+00  0.25903567942E+04  0.25903567942E+04  0.00000000000E+00 0. -1.
         -1   -1    0    0    0  501 -0.00000000000E+00 -0.00000000000E+00 -0.35884709539E+03  0.35884709539E+03  0.00000000000E+00 0.  1.
         24    2    1    2    0    0  0.24263320481E+03 -0.63795839481E+03  0.13533119526E+04  0.15178053631E+04  0.80113004971E+02 0.  0.
        254    2    1    2    0    0 -0.24263320481E+03  0.63795839481E+03  0.87819774623E+03  0.14313985265E+04  0.90100425897E+03 0.  0.
         23    2    4    4    0    0 -0.56296922993E+02  0.81296140180E+03  0.80476737058E+03  0.11483985640E+04  0.84220880505E+02 0.  0.
         23    2    4    4    0    0 -0.18633628182E+03 -0.17500300699E+03  0.73430375656E+02  0.28299996252E+03  0.96693827837E+02 0.  0.
          2    1    3    3  502    0  0.21648244025E+03 -0.50674728922E+03  0.11362491599E+04  0.12628220838E+04  0.00000000000E+00 0. -1.
         -1    1    3    3    0  502  0.26150764565E+02 -0.13121110559E+03  0.21706279272E+03  0.25498327926E+03  0.00000000000E+00 0.  1.
         13    1    5    5    0    0 -0.73314730140E+02  0.45522875766E+03  0.44927641526E+03  0.64378379039E+03  0.00000000000E+00 0.  1.
        -13    1    5    5    0    0  0.17017807147E+02  0.35773264414E+03  0.35549095532E+03  0.50461477362E+03  0.00000000000E+00 0. -1.
          2    1    6    6  503    0 -0.19322235892E+02 -0.18513112750E+01 -0.17187376747E+02  0.25926474360E+02  0.00000000000E+00 0. -1.
         -2    1    6    6    0  503 -0.16701404593E+03 -0.17315169572E+03  0.90617752403E+02  0.25707348816E+03  0.00000000000E+00 0.  1.
<mgrwt>
<rscale>  0 0.19282552E+04</rscale>
<asrwt>0</asrwt>
<pdfrwt beam="1">  1        2 0.39851642E+00 0.19282552E+04</pdfrwt>
<pdfrwt beam="2">  1       -1 0.55207247E-01 0.19282552E+04</pdfrwt>
<totfact> 0.10889521E+01</totfact>
</mgrwt>
</event>
<event>
12    7  0.2492439E-007  0.2097159E+04  0.7818608E-02  0.8562496E-01
          2   -1    0    0  501    0  0.00000000000E+00  0.00000000000E+00  0.16856208492E+04  0.16856208492E+04  0.00000000000E+00 0. -1.
         -3   -1    0    0    0  501 -0.00000000000E+00 -0.00000000000E+00 -0.65229291205E+03  0.65229291205E+03  0.00000000000E+00 0.  1.
         24    2    1    2    0    0 -0.62293072277E+03  0.50683134505E+03  0.74231012994E+03  0.10964931287E+04  0.79700405117E+02 0.  0.
        254    2    1    2    0    0  0.62293072277E+03 -0.50683134505E+03  0.29101780721E+03  0.12414206325E+04  0.90084023285E+03 0.  0.
         23    2    4    4    0    0  0.21591011490E+02 -0.31071903787E+02  0.44365011838E+03  0.45452806459E+03  0.91316477032E+02 0.  0.
         23    2    4    4    0    0  0.60133971128E+03 -0.47575944126E+03 -0.15263231117E+03  0.78689256796E+03  0.89144808030E+02 0.  0.
          4    1    3    3  502    0 -0.10534910818E+03  0.62190697618E+02  0.14433822563E+03  0.18920793018E+03  0.00000000000E+00 0. -1.
         -3    1    3    3    0  502 -0.51758161458E+03  0.44464064743E+03  0.59797190432E+03  0.90728519852E+03  0.00000000000E+00 0.  1.
         13    1    5    5    0    0  0.35388328595E+02  0.22673665431E+02  0.15524616097E+03  0.16083469588E+03  0.00000000000E+00 0. -1.
        -13    1    5    5    0    0 -0.13797317106E+02 -0.53745569217E+02  0.28840395741E+03  0.29369336870E+03  0.00000000000E+00 0.  1.
          1    1    6    6  503    0  0.17408298205E+03 -0.19081845414E+03 -0.56948896129E+02  0.26449904319E+03  0.00000000000E+00 0. -1.
         -1    1    6    6    0  503  0.42725672922E+03 -0.28494098712E+03 -0.95683415038E+02  0.52239352477E+03  0.00000000000E+00 0.  1.
<mgrwt>
<rscale>  0 0.20971586E+04</rscale>
<asrwt>0</asrwt>
<pdfrwt beam="1">  1        2 0.25932628E+00 0.20971586E+04</pdfrwt>
<pdfrwt beam="2">  1       -3 0.10035276E+00 0.20971586E+04</pdfrwt>
<totfact> 0.50825761E+00</totfact>
</mgrwt>
</event>
<event>
12    7  0.2492439E-007  0.4687436E+04  0.7818608E-02  0.7878619E-01
          2   -1    0    0  501    0  0.00000000000E+00  0.00000000000E+00  0.41044233665E+04  0.41044233665E+04  0.00000000000E+00 0. -1.
         -1   -1    0    0    0  501 -0.00000000000E+00 -0.00000000000E+00 -0.13383158992E+04  0.13383158992E+04  0.00000000000E+00 0.  1.
         24    2    1    2    0    0  0.18412781680E+04  0.10454283287E+04  0.22388069766E+04  0.30824691637E+04  0.78318480337E+02 0.  0.
        254    2    1    2    0    0 -0.18412781680E+04 -0.10454283287E+04  0.52730049068E+03  0.23602701020E+04  0.89977967569E+03 0.  0.
         23    2    4    4    0    0 -0.24170420608E+03  0.18082973094E+02 -0.17551492660E+03  0.31285370502E+03  0.91236144859E+02 0.  0.
         23    2    4    4    0    0 -0.15995739619E+04 -0.10635113018E+04  0.70281541729E+03  0.20474163970E+04  0.90946376458E+02 0.  0.
          4    1    3    3  502    0  0.13559978590E+04  0.73013620419E+03  0.16205285682E+04  0.22356077274E+04  0.00000000000E+00 0. -1.
         -3    1    3    3    0  502  0.48528030890E+03  0.31529212451E+03  0.61827840841E+03  0.84686143630E+03  0.00000000000E+00 0.  1.
         13    1    5    5    0    0 -0.50192625895E+01 -0.34485088950E+01  0.97616535826E+01  0.11505437463E+02  0.00000000000E+00 0.  1.
        -13    1    5    5    0    0 -0.23668494349E+03  0.21531481989E+02 -0.18527658019E+03  0.30134826756E+03  0.00000000000E+00 0. -1.
          4    1    6    6  503    0 -0.11124208455E+04 -0.78852632302E+03  0.50561913961E+03  0.14542711625E+04  0.00000000000E+00 0. -1.
         -4    1    6    6    0  503 -0.48715311633E+03 -0.27498497877E+03  0.19719627768E+03  0.59314523451E+03  0.00000000000E+00 0.  1.
<mgrwt>
<rscale>  0 0.46874364E+04</rscale>
<asrwt>0</asrwt>
<pdfrwt beam="1">  1        2 0.63144974E+00 0.46874364E+04</pdfrwt>
<pdfrwt beam="2">  1       -1 0.20589476E+00 0.46874364E+04</pdfrwt>
<totfact> 0.32401950E-02</totfact>
</mgrwt>
</event>
<event>
12    7  0.2492439E-007  0.1725814E+04  0.7818608E-02  0.8746777E-01
         -1   -1    0    0    0  501 -0.00000000000E+00  0.00000000000E+00  0.60351424184E+03  0.60351424184E+03  0.00000000000E+00 0.  1.
          2   -1    0    0  501    0  0.00000000000E+00 -0.00000000000E+00 -0.12337871983E+04  0.12337871983E+04  0.00000000000E+00 0. -1.
         24    2    1    2    0    0 -0.12280524869E+03 -0.59647861420E+03 -0.38451772890E+03  0.72449701504E+03  0.78575916536E+02 0.  0.
        254    2    1    2    0    0  0.12280524869E+03  0.59647861420E+03 -0.24575522755E+03  0.11128044251E+04  0.89837085345E+03 0.  0.
         23    2    4    4    0    0 -0.35357596936E+02 -0.11060208265E+03  0.20492802170E+03  0.25374071758E+03  0.94370955990E+02 0.  0.
         23    2    4    4    0    0  0.15816284563E+03  0.70708069684E+03 -0.45068324925E+03  0.85906370751E+03  0.99480977173E+02 0.  0.
          4    1    3    3  502    0 -0.11355910500E+03 -0.43469761673E+03 -0.31182827859E+03  0.54689538638E+03  0.00000000000E+00 0. -1.
         -3    1    3    3    0  502 -0.92461436946E+01 -0.16178099746E+03 -0.72689450309E+02  0.17760162865E+03  0.00000000000E+00 0.  1.
         13    1    5    5    0    0 -0.30064152729E+02 -0.51940395179E+02  0.18007459692E+03  0.18981179728E+03  0.00000000000E+00 0.  1.
        -13    1    5    5    0    0 -0.52934442074E+01 -0.58661687467E+02  0.24853424784E+02  0.63928920306E+02  0.00000000000E+00 0. -1.
          1    1    6    6  503    0  0.33315671611E+02  0.37480600967E+03 -0.23944037095E+03  0.44600579603E+03  0.00000000000E+00 0. -1.
         -1    1    6    6    0  503  0.12484717401E+03  0.33227468718E+03 -0.21124287831E+03  0.41305791148E+03  0.00000000000E+00 0.  1.
<mgrwt>
<rscale>  0 0.17258136E+04</rscale>
<asrwt>0</asrwt>
<pdfrwt beam="1">  1        2 0.18981341E+00 0.17258136E+04</pdfrwt>
<pdfrwt beam="2">  1       -1 0.92848346E-01 0.17258136E+04</pdfrwt>
<totfact> 0.22071121E+01</totfact>
</mgrwt>
</event>
<event>
12    7  0.2492439E-007  0.1449435E+04  0.7818608E-02  0.8918792E-01
          2   -1    0    0  501    0  0.00000000000E+00  0.00000000000E+00  0.24958135230E+04  0.24958135230E+04  0.00000000000E+00 0. -1.
         -1   -1    0    0    0  501 -0.00000000000E+00 -0.00000000000E+00 -0.21043852545E+03  0.21043852545E+03  0.00000000000E+00 0.  1.
         24    2    1    2    0    0  0.68992942441E+02  0.43436972468E+03  0.73494808449E+03  0.86004083555E+03  0.78003000526E+02 0.  0.
        254    2    1    2    0    0 -0.68992942441E+02 -0.43436972468E+03  0.15504269131E+04  0.18462112129E+04  0.90068593087E+03 0.  0.
         23    2    4    4    0    0 -0.94256641917E+02 -0.61640398563E+03  0.15110707476E+04  0.16373648821E+04  0.93759079188E+02 0.  0.
         23    2    4    4    0    0  0.25263699475E+02  0.18203426096E+03  0.39356165471E+02  0.20884633078E+03  0.91066763671E+02 0.  0.
          4    1    3    3  502    0  0.16461893695E+02  0.26947297785E+03  0.50004172123E+03  0.56826789695E+03  0.00000000000E+00 0. -1.
         -3    1    3    3    0  502  0.52531048747E+02  0.16489674683E+03  0.23490636326E+03  0.29177293860E+03  0.00000000000E+00 0.  1.
         13    1    5    5    0    0  0.71724827298E+01 -0.24434292162E+03  0.55500801407E+03  0.60645593701E+03  0.00000000000E+00 0.  1.
        -13    1    5    5    0    0 -0.10142912465E+03 -0.37206106402E+03  0.95606273351E+03  0.10309089451E+04  0.00000000000E+00 0. -1.
          3    1    6    6  503    0 -0.39328393870E+01  0.10762858833E+03 -0.19673625184E+02  0.10948256381E+03  0.00000000000E+00 0. -1.
         -3    1    6    6    0  503  0.29196538862E+02  0.74405672633E+02  0.59029790655E+02  0.99363766969E+02  0.00000000000E+00 0.  1.
<mgrwt>
<rscale>  0 0.14494348E+04</rscale>
<asrwt>0</asrwt>
<pdfrwt beam="1">  1        2 0.38397129E+00 0.14494348E+04</pdfrwt>
<pdfrwt beam="2">  1       -1 0.32375160E-01 0.14494348E+04</pdfrwt>
<totfact> 0.34594048E+01</totfact>
</mgrwt>
</event>
<event>
12    7  0.2492439E-007  0.2420486E+04  0.7818608E-02  0.8431874E-01
          2   -1    0    0  501    0  0.00000000000E+00  0.00000000000E+00  0.25831134506E+04  0.25831134506E+04  0.00000000000E+00 0. -1.
         -1   -1    0    0    0  501 -0.00000000000E+00 -0.00000000000E+00 -0.56702414990E+03  0.56702414990E+03  0.00000000000E+00 0.  1.
         24    2    1    2    0    0 -0.10159909093E+04 -0.86119032158E+02  0.58896836035E+03  0.11801907584E+04  0.79451124951E+02 0.  0.
        254    2    1    2    0    0  0.10159909093E+04  0.86119032158E+02  0.14271209403E+04  0.19699468421E+04  0.89686251286E+03 0.  0.
         23    2    4    4    0    0 -0.65741972878E+01 -0.23953597963E+03  0.14325691440E+03  0.29390103715E+03  0.91839917811E+02 0.  0.
         23    2    4    4    0    0  0.10225651066E+04  0.32565501179E+03  0.12838640259E+04  0.16760458050E+04  0.95562123140E+02 0.  0.
          4    1    3    3  502    0 -0.42768320279E+03 -0.22828153433E+02  0.29009613964E+03  0.51729084351E+03  0.00000000000E+00 0. -1.
         -3    1    3    3    0  502 -0.58830770648E+03 -0.63290878726E+02  0.29887222071E+03  0.66289991488E+03  0.00000000000E+00 0.  1.
         13    1    5    5    0    0 -0.11737286756E+02 -0.91873193189E+02  0.69549231064E+01  0.92880667970E+02  0.00000000000E+00 0.  1.
        -13    1    5    5    0    0  0.51630894682E+01 -0.14766278645E+03  0.13630199129E+03  0.20102036918E+03  0.00000000000E+00 0. -1.
          3    1    6    6  503    0  0.10033078175E+04  0.33094539285E+03  0.12492702723E+04  0.16361013547E+04  0.00000000000E+00 0. -1.
         -3    1    6    6    0  503  0.19257289108E+02 -0.52903810584E+01  0.34593753675E+02  0.39944450289E+02  0.00000000000E+00 0.  1.
<mgrwt>
<rscale>  0 0.24204857E+04</rscale>
<asrwt>0</asrwt>
<pdfrwt beam="1">  1        2 0.39740206E+00 0.24204857E+04</pdfrwt>
<pdfrwt beam="2">  1       -1 0.87234486E-01 0.24204857E+04</pdfrwt>
<totfact> 0.41130330E+00</totfact>
</mgrwt>
</event>
<event>
12    7  0.2492439E-007  0.1434322E+04  0.7818608E-02  0.8929342E-01
         -1   -1    0    0    0  501 -0.00000000000E+00  0.00000000000E+00  0.23061248679E+03  0.23061248679E+03  0.00000000000E+00 0.  1.
          2   -1    0    0  501    0  0.00000000000E+00 -0.00000000000E+00 -0.22302358765E+04  0.22302358765E+04  0.00000000000E+00 0. -1.
         24    2    1    2    0    0 -0.33995047007E+03  0.23770910096E+03 -0.41712188164E+03  0.59373544760E+03  0.80369016498E+02 0.  0.
        254    2    1    2    0    0  0.33995047007E+03 -0.23770910096E+03 -0.15825015081E+04  0.18671129157E+04  0.89984869737E+03 0.  0.
         23    2    4    4    0    0  0.50221014665E+03 -0.43651375730E+03 -0.13555223993E+04  0.15125328133E+04  0.86920910797E+02 0.  0.
         23    2    4    4    0    0 -0.16225967657E+03  0.19880465634E+03 -0.22697910885E+03  0.35458010242E+03  0.91411373244E+02 0.  0.
          2    1    3    3  502    0 -0.66521453456E+02  0.85572827078E+02 -0.12777974421E+03  0.16755737983E+03  0.00000000000E+00 0. -1.
         -1    1    3    3    0  502 -0.27342901662E+03  0.15213627388E+03 -0.28934213742E+03  0.42617806777E+03  0.00000000000E+00 0.  1.
         13    1    5    5    0    0  0.34153254175E+03 -0.32414288349E+03 -0.87727806138E+03  0.99565550416E+03  0.00000000000E+00 0. -1.
        -13    1    5    5    0    0  0.16067760490E+03 -0.11237087381E+03 -0.47824433788E+03  0.51687730914E+03  0.00000000000E+00 0.  1.
          3    1    6    6  503    0 -0.16325597654E+03  0.19777580772E+03 -0.19398655029E+03  0.32155647356E+03  0.00000000000E+00 0.  1.
         -3    1    6    6    0  503  0.99629996680E+00  0.10288486187E+01 -0.32992558559E+02  0.33023628864E+02  0.00000000000E+00 0. -1.
<mgrwt>
<rscale>  0 0.14343225E+04</rscale>
<asrwt>0</asrwt>
<pdfrwt beam="1">  1        2 0.34311322E+00 0.14343225E+04</pdfrwt>
<pdfrwt beam="2">  1       -1 0.35478843E-01 0.14343225E+04</pdfrwt>
<totfact> 0.41642060E+01</totfact>
</mgrwt>
</event>
<event>
12    7  0.2492439E-007  0.1430750E+04  0.7818608E-02  0.8931856E-01
         -1   -1    0    0    0  501 -0.00000000000E+00  0.00000000000E+00  0.23113259781E+03  0.23113259781E+03  0.00000000000E+00 0.  1.
          2   -1    0    0  501    0  0.00000000000E+00 -0.00000000000E+00 -0.22141476509E+04  0.22141476509E+04  0.00000000000E+00 0. -1.
         24    2    1    2    0    0  0.87340489133E+02 -0.41810459578E+03 -0.62600045484E+03  0.76179456683E+03  0.77553713793E+02 0.  0.
        254    2    1    2    0    0 -0.87340489133E+02  0.41810459578E+03 -0.13570145982E+04  0.16834856819E+04  0.90010866411E+03 0.  0.
         23    2    4    4    0    0  0.96083772675E+02  0.19410641309E+03 -0.13599651259E+04  0.13801642908E+04  0.91863675266E+02 0.  0.
         23    2    4    4    0    0 -0.18342426181E+03  0.22399818270E+03  0.29505276905E+01  0.30332139110E+03  0.90418554592E+02 0.  0.
          2    1    3    3  502    0  0.63635530777E+02 -0.12757520451E+03 -0.20004253614E+03  0.24564594409E+03  0.00000000000E+00 0. -1.
         -1    1    3    3    0  502  0.23704958356E+02 -0.29052939127E+03 -0.42595791870E+03  0.51614862273E+03  0.00000000000E+00 0.  1.
         13    1    5    5    0    0  0.23028155629E+02  0.12582505170E+03 -0.58821729374E+03  0.60196496928E+03  0.00000000000E+00 0.  1.
        -13    1    5    5    0    0  0.73055617046E+02  0.68281361382E+02 -0.77174783218E+03  0.77819932149E+03  0.00000000000E+00 0. -1.
          4    1    6    6  503    0 -0.13957654019E+03  0.20311490216E+03 -0.24278571850E+02  0.24764232898E+03  0.00000000000E+00 0. -1.
         -4    1    6    6    0  503 -0.43847721618E+02  0.20883280538E+02  0.27229099541E+02  0.55679062123E+02  0.00000000000E+00 0.  1.
<mgrwt>
<rscale>  0 0.14307504E+04</rscale>
<asrwt>0</asrwt>
<pdfrwt beam="1">  1        2 0.34063810E+00 0.14307504E+04</pdfrwt>
<pdfrwt beam="2">  1       -1 0.35558861E-01 0.14307504E+04</pdfrwt>
<totfact> 0.42357543E+01</totfact>
</mgrwt>
</event>
<event>
12    7  0.2492439E-007  0.2251665E+04  0.7818608E-02  0.8497227E-01
         -3   -1    0    0    0  501 -0.00000000000E+00  0.00000000000E+00  0.50120793283E+03  0.50120793283E+03  0.00000000000E+00 0.  1.
          4   -1    0    0  501    0  0.00000000000E+00 -0.00000000000E+00 -0.25288873060E+04  0.25288873060E+04  0.00000000000E+00 0. -1.
         24    2    1    2    0    0  0.68485291029E+03  0.11992662295E+02 -0.17248915902E+04  0.18576400493E+04  0.80051372587E+02 0.  0.
        254    2    1    2    0    0 -0.68485291029E+03 -0.11992662295E+02 -0.30278778299E+03  0.11724551895E+04  0.90211052383E+03 0.  0.
         23    2    4    4    0    0 -0.74556848533E+03 -0.20197851308E+03  0.24740201779E+02  0.77832484750E+03  0.92248602105E+02 0.  0.
         23    2    4    4    0    0  0.60715575040E+02  0.18998585079E+03 -0.32752798477E+03  0.39413034201E+03  0.91011763691E+02 0.  0.
          2    1    3    3  502    0  0.54389047053E+03  0.15246073914E+02 -0.14493732927E+04  0.15481383104E+04  0.00000000000E+00 0. -1.
         -3    1    3    3    0  502  0.14096243976E+03 -0.32534116185E+01 -0.27551829749E+03  0.30950173887E+03  0.00000000000E+00 0.  1.
         13    1    5    5    0    0 -0.45016927409E+03 -0.13346553761E+03  0.58684520677E+02  0.47319055151E+03  0.00000000000E+00 0. -1.
        -13    1    5    5    0    0 -0.29539921124E+03 -0.68512975470E+02 -0.33944318898E+02  0.30513429600E+03  0.00000000000E+00 0.  1.
          4    1    6    6  503    0 -0.86041393631E+01  0.97726794738E+02 -0.19580927248E+03  0.21901102441E+03  0.00000000000E+00 0. -1.
         -4    1    6    6    0  503  0.69319714403E+02  0.92259056051E+02 -0.13171871230E+03  0.17511931760E+03  0.00000000000E+00 0.  1.
<mgrwt>
<rscale>  0 0.22516646E+04</rscale>
<asrwt>0</asrwt>
<pdfrwt beam="1">  1        4 0.38905958E+00 0.22516646E+04</pdfrwt>
<pdfrwt beam="2">  1       -3 0.77108914E-01 0.22516646E+04</pdfrwt>
<totfact> 0.26593584E-02</totfact>
</mgrwt>
</event>
<event>
12    7  0.2492439E-007  0.2255696E+04  0.7818608E-02  0.8495597E-01
         -1   -1    0    0    0  501 -0.00000000000E+00  0.00000000000E+00  0.14146239775E+04  0.14146239775E+04  0.00000000000E+00 0.  1.
          2   -1    0    0  501    0  0.00000000000E+00 -0.00000000000E+00 -0.89920780247E+03  0.89920780247E+03  0.00000000000E+00 0. -1.
         24    2    1    2    0    0 -0.33092625624E+03 -0.79797691374E+03 -0.17713790540E+03  0.88607569785E+03  0.86446300488E+02 0.  0.
        254    2    1    2    0    0  0.33092625624E+03  0.79797691374E+03  0.69255408043E+03  0.14277560821E+04  0.90143049304E+03 0.  0.
         23    2    4    4    0    0  0.46735285762E+02  0.82469224923E+03  0.75434453877E+03  0.11224013723E+04  0.91911177443E+02 0.  0.
         23    2    4    4    0    0  0.28419097048E+03 -0.26715335494E+02 -0.61790458338E+02  0.30535470980E+03  0.89135970316E+02 0.  0.
          2    1    3    3  502    0 -0.21903810733E+03 -0.58602918908E+03 -0.16019298045E+03  0.64580933247E+03  0.00000000000E+00 0. -1.
         -1    1    3    3    0  502 -0.11188814891E+03 -0.21194772466E+03 -0.16944924949E+02  0.24026636538E+03  0.00000000000E+00 0.  1.
         13    1    5    5    0    0  0.23116056311E+02  0.58639927290E+03  0.47921347473E+03  0.75765692347E+03  0.00000000000E+00 0.  1.
        -13    1    5    5    0    0  0.23619229451E+02  0.23829297633E+03  0.27513106405E+03  0.36474444886E+03  0.00000000000E+00 0. -1.
          2    1    6    6  503    0  0.21982647669E+03  0.18024592346E+02 -0.48815840242E+02  0.22590164241E+03  0.00000000000E+00 0. -1.
         -2    1    6    6    0  503  0.64364493788E+02 -0.44739927840E+02 -0.12974618096E+02  0.79453067395E+02  0.00000000000E+00 0.  1.
<mgrwt>
<rscale>  0 0.22556958E+04</rscale>
<asrwt>0</asrwt>
<pdfrwt beam="1">  1        2 0.13833966E+00 0.22556958E+04</pdfrwt>
<pdfrwt beam="2">  1       -1 0.21763446E+00 0.22556958E+04</pdfrwt>
<totfact> 0.34778192E+00</totfact>
</mgrwt>
</event>
<event>
12    7  0.2492439E-007  0.1360292E+04  0.7818608E-02  0.8983073E-01
         -1   -1    0    0    0  501 -0.00000000000E+00  0.00000000000E+00  0.59599719542E+03  0.59599719542E+03  0.00000000000E+00 0.  1.
          2   -1    0    0  501    0  0.00000000000E+00 -0.00000000000E+00 -0.77617610704E+03  0.77617610704E+03  0.00000000000E+00 0. -1.
         24    2    1    2    0    0 -0.26083970482E+03  0.20014495908E+03 -0.23820187671E+03  0.41250867787E+03  0.72992595470E+02 0.  0.
        254    2    1    2    0    0  0.26083970482E+03 -0.20014495908E+03  0.58022965082E+02  0.95966462459E+03  0.89971893998E+03 0.  0.
         23    2    4    4    0    0 -0.19146292053E+03 -0.25284109519E+03 -0.23932121161E+03  0.40820259326E+03  0.93637842045E+02 0.  0.
         23    2    4    4    0    0  0.45230262535E+03  0.52696136114E+02  0.29734417670E+03  0.55146203133E+03  0.91336000121E+02 0.  0.
          4    1    3    3  502    0 -0.88127258089E+02  0.62563320601E+02 -0.12200120317E+03  0.16298735006E+03  0.00000000000E+00 0. -1.
         -3    1    3    3    0  502 -0.17271244674E+03  0.13758163848E+03 -0.11620067353E+03  0.24952132781E+03  0.00000000000E+00 0.  1.
         13    1    5    5    0    0 -0.24063228248E+02 -0.31228853545E+01 -0.52885124274E+00  0.24270785943E+02  0.00000000000E+00 0. -1.
        -13    1    5    5    0    0 -0.16739969228E+03 -0.24971820984E+03 -0.23879236037E+03  0.38393180732E+03  0.00000000000E+00 0.  1.
          1    1    6    6  503    0  0.16618885064E+03 -0.21508055178E+01  0.15483490629E+03  0.22715018874E+03  0.00000000000E+00 0. -1.
         -1    1    6    6    0  503  0.28611377472E+03  0.54846941631E+02  0.14250927041E+03  0.32431184259E+03  0.00000000000E+00 0.  1.
<mgrwt>
<rscale>  0 0.13602923E+04</rscale>
<asrwt>0</asrwt>
<pdfrwt beam="1">  1        2 0.11941171E+00 0.13602923E+04</pdfrwt>
<pdfrwt beam="2">  1       -1 0.91691876E-01 0.13602923E+04</pdfrwt>
<totfact> 0.46337074E+01</totfact>
</mgrwt>
</event>
<event>
12    7  0.2492439E-007  0.1700675E+04  0.7818608E-02  0.8760980E-01
          2   -1    0    0  501    0  0.00000000000E+00  0.00000000000E+00  0.10389352364E+04  0.10389352364E+04  0.00000000000E+00 0. -1.
         -1   -1    0    0    0  501 -0.00000000000E+00 -0.00000000000E+00 -0.69597552246E+03  0.69597552246E+03  0.00000000000E+00 0.  1.
         24    2    1    2    0    0 -0.65135634012E+02  0.11194638439E+03 -0.48339798711E+03  0.50668886741E+03  0.79280203202E+02 0.  0.
        254    2    1    2    0    0  0.65135634012E+02 -0.11194638439E+03  0.82635770108E+03  0.12282218915E+04  0.89938163245E+03 0.  0.
         23    2    4    4    0    0 -0.15940874989E+02 -0.23879443200E+03  0.96877237776E+03  0.10020077610E+04  0.90679330491E+02 0.  0.
         23    2    4    4    0    0  0.81076509001E+02  0.12684804761E+03 -0.14241467668E+03  0.22621413046E+03  0.90703170784E+02 0.  0.
          4    1    3    3  502    0  0.15406511471E+02  0.10578982262E+02 -0.31667636881E+02  0.36771112127E+02  0.00000000000E+00 0. -1.
         -3    1    3    3    0  502 -0.80542145483E+02  0.10136740213E+03 -0.45173035023E+03  0.46991775529E+03  0.00000000000E+00 0.  1.
         13    1    5    5    0    0  0.42964692092E+01  0.24757795197E+01  0.10015694538E+03  0.10027962325E+03  0.00000000000E+00 0. -1.
        -13    1    5    5    0    0 -0.20237344198E+02 -0.24127021152E+03  0.86861543238E+03  0.90172813777E+03  0.00000000000E+00 0.  1.
          1    1    6    6  503    0 -0.16580012668E+02  0.80870214936E+01 -0.31941010262E+02  0.36885293455E+02  0.00000000000E+00 0. -1.
         -1    1    6    6    0  503  0.97656521668E+02  0.11876102612E+03 -0.11047366642E+03  0.18932883701E+03  0.00000000000E+00 0.  1.
<mgrwt>
<rscale>  0 0.17006746E+04</rscale>
<asrwt>0</asrwt>
<pdfrwt beam="1">  1        2 0.15983619E+00 0.17006746E+04</pdfrwt>
<pdfrwt beam="2">  1       -1 0.10707316E+00 0.17006746E+04</pdfrwt>
<totfact> 0.21003211E+01</totfact>
</mgrwt>
</event>
<event>
12    7  0.2492439E-007  0.1926276E+04  0.7818608E-02  0.8641887E-01
         -1   -1    0    0    0  501 -0.00000000000E+00  0.00000000000E+00  0.21296726217E+03  0.21296726217E+03  0.00000000000E+00 0.  1.
          2   -1    0    0  501    0  0.00000000000E+00 -0.00000000000E+00 -0.43557629680E+04  0.43557629680E+04  0.00000000000E+00 0. -1.
         24    2    1    2    0    0 -0.68966062925E+03  0.27982195855E+03 -0.13992334560E+04  0.15868239636E+04  0.78891793802E+02 0.  0.
        254    2    1    2    0    0  0.68966062925E+03 -0.27982195855E+03 -0.27435622499E+04  0.29819062666E+04  0.90038827831E+03 0.  0.
         23    2    4    4    0    0  0.15060082753E+03 -0.17107311193E+03 -0.75755949797E+02  0.25675268800E+03  0.90754393778E+02 0.  0.
         23    2    4    4    0    0  0.53905980172E+03 -0.10874884662E+03 -0.26678063001E+04  0.27251535786E+04  0.82823852990E+02 0.  0.
          4    1    3    3  502    0 -0.23680170383E+03  0.64942858326E+02 -0.51041062720E+03  0.56640235711E+03  0.00000000000E+00 0. -1.
         -3    1    3    3    0  502 -0.45285892542E+03  0.21487910022E+03 -0.88882282875E+03  0.10204216065E+04  0.00000000000E+00 0.  1.
         13    1    5    5    0    0  0.70010045551E+02 -0.14218169168E+03 -0.61310963871E+02  0.16992961548E+03  0.00000000000E+00 0. -1.
        -13    1    5    5    0    0  0.80590781978E+02 -0.28891420250E+02 -0.14444985926E+02  0.86823072522E+02  0.00000000000E+00 0.  1.
          4    1    6    6  503    0  0.75106428669E+02  0.10161405157E+02 -0.43542288035E+03  0.44196981177E+03  0.00000000000E+00 0. -1.
         -4    1    6    6    0  503  0.46395337305E+03 -0.11891025178E+03 -0.22323834197E+04  0.22831837668E+04  0.00000000000E+00 0.  1.
<mgrwt>
<rscale>  0 0.19262761E+04</rscale>
<asrwt>0</asrwt>
<pdfrwt beam="1">  1        2 0.67011738E+00 0.19262761E+04</pdfrwt>
<pdfrwt beam="2">  1       -1 0.32764194E-01 0.19262761E+04</pdfrwt>
<totfact> 0.15934395E+00</totfact>
</mgrwt>
</event>
<event>
12    7  0.2492439E-007  0.3265394E+04  0.7818608E-02  0.8171757E-01
          2   -1    0    0  501    0  0.00000000000E+00  0.00000000000E+00  0.28984011098E+04  0.28984011098E+04  0.00000000000E+00 0. -1.
         -1   -1    0    0    0  501 -0.00000000000E+00 -0.00000000000E+00 -0.91971383924E+03  0.91971383924E+03  0.00000000000E+00 0.  1.
         24    2    1    2    0    0 -0.23912275090E+02  0.14951540944E+04  0.11432371249E+04  0.18840100057E+04  0.80280850931E+02 0.  0.
        254    2    1    2    0    0  0.23912275090E+02 -0.14951540944E+04  0.83545014562E+03  0.19341049433E+04  0.89818006165E+03 0.  0.
         23    2    4    4    0    0 -0.28328169561E+03 -0.56529185495E+03  0.69006202378E+03  0.93994138075E+03  0.86607172013E+02 0.  0.
         23    2    4    4    0    0  0.30719397070E+03 -0.92986223941E+03  0.14538812184E+03  0.99416356256E+03  0.90617676129E+02 0.  0.
          2    1    3    3  502    0 -0.27043787363E+02  0.53148718986E+03  0.44945030641E+03  0.69657417219E+03  0.00000000000E+00 0. -1.
         -1    1    3    3    0  502  0.31315122732E+01  0.96366690450E+03  0.69378681851E+03  0.11874358335E+04  0.00000000000E+00 0.  1.
         13    1    5    5    0    0 -0.22045703228E+03 -0.35135283670E+03  0.46533829454E+03  0.62336975168E+03  0.00000000000E+00 0.  1.
        -13    1    5    5    0    0 -0.62824663331E+02 -0.21393901824E+03  0.22472372925E+03  0.31657162908E+03  0.00000000000E+00 0. -1.
          1    1    6    6  503    0  0.93648436295E+02 -0.23527037454E+03  0.71253258562E+00  0.25322457712E+03  0.00000000000E+00 0. -1.
         -1    1    6    6    0  503  0.21354553441E+03 -0.69459186487E+03  0.14467558925E+03  0.74093898544E+03  0.00000000000E+00 0.  1.
<mgrwt>
<rscale>  0 0.32653941E+04</rscale>
<asrwt>0</asrwt>
<pdfrwt beam="1">  1        2 0.44590786E+00 0.32653941E+04</pdfrwt>
<pdfrwt beam="2">  1       -1 0.14149444E+00 0.32653941E+04</pdfrwt>
<totfact> 0.78045534E-01</totfact>
</mgrwt>
</event>
<event>
12    7  0.2492439E-007  0.1991438E+04  0.7818608E-02  0.8610634E-01
          2   -1    0    0  501    0  0.00000000000E+00  0.00000000000E+00  0.18019880664E+04  0.18019880664E+04  0.00000000000E+00 0. -1.
         -1   -1    0    0    0  501 -0.00000000000E+00 -0.00000000000E+00 -0.55020132609E+03  0.55020132609E+03  0.00000000000E+00 0.  1.
         24    2    1    2    0    0 -0.46128467195E+03 -0.27151332249E+03 -0.18723075519E+03  0.57259982516E+03  0.79449173800E+02 0.  0.
        254    2    1    2    0    0  0.46128467195E+03  0.27151332249E+03  0.14390174955E+04  0.17795895673E+04  0.89981367122E+03 0.  0.
         23    2    4    4    0    0  0.64257738641E+03  0.44039492468E+03  0.10885571697E+04  0.13417091427E+04  0.91505872094E+02 0.  0.
         23    2    4    4    0    0 -0.18129271446E+03 -0.16888160219E+03  0.35046032579E+03  0.43788042464E+03  0.86768556828E+02 0.  0.
          4    1    3    3  502    0 -0.11463534780E+03 -0.47864179077E+02 -0.13435593906E+02  0.12495102155E+03  0.00000000000E+00 0. -1.
         -1    1    3    3    0  502 -0.34664932415E+03 -0.22364914341E+03 -0.17379516128E+03  0.44764880361E+03  0.00000000000E+00 0.  1.
         13    1    5    5    0    0  0.28950481355E+03  0.14417030375E+03  0.45764634419E+03  0.56039119364E+03  0.00000000000E+00 0. -1.
        -13    1    5    5    0    0  0.35307257286E+03  0.29622462093E+03  0.63091082551E+03  0.78131794904E+03  0.00000000000E+00 0.  1.
          2    1    6    6  503    0 -0.12468028747E+03 -0.16293796472E+03  0.26370157275E+03  0.33411446227E+03  0.00000000000E+00 0.  1.
         -2    1    6    6    0  503 -0.56612426990E+02 -0.59436374689E+01  0.86758753037E+02  0.10376596236E+03  0.00000000000E+00 0. -1.
<mgrwt>
<rscale>  0 0.19914379E+04</rscale>
<asrwt>0</asrwt>
<pdfrwt beam="1">  1        2 0.27722893E+00 0.19914379E+04</pdfrwt>
<pdfrwt beam="2">  1       -1 0.84646359E-01 0.19914379E+04</pdfrwt>
<totfact> 0.12588554E+01</totfact>
</mgrwt>
</event>
<event>
12    7  0.2492439E-007  0.1691548E+04  0.7818608E-02  0.8766199E-01
         -1   -1    0    0    0  501 -0.00000000000E+00  0.00000000000E+00  0.35090649000E+03  0.35090649000E+03  0.00000000000E+00 0.  1.
          2   -1    0    0  501    0  0.00000000000E+00 -0.00000000000E+00 -0.20385316098E+04  0.20385316098E+04  0.00000000000E+00 0. -1.
         24    2    1    2    0    0 -0.43026012934E+03 -0.27023027281E+03 -0.14545115650E+03  0.53416603502E+03  0.77647503445E+02 0.  0.
        254    2    1    2    0    0  0.43026012934E+03  0.27023027281E+03 -0.15421739633E+04  0.18552720647E+04  0.89754427301E+03 0.  0.
         23    2    4    4    0    0 -0.27703175002E+02 -0.64846476908E+02  0.75944181385E+02  0.13841644223E+03  0.91755443009E+02 0.  0.
         23    2    4    4    0    0  0.45796330434E+03  0.33507674972E+03 -0.16181181447E+04  0.17168556225E+04  0.85323397567E+02 0.  0.
          4    1    3    3  502    0 -0.78855226924E+02 -0.47190984295E+02 -0.58594821940E+02  0.10898848091E+03  0.00000000000E+00 0. -1.
         -1    1    3    3    0  502 -0.35140490242E+03 -0.22303928852E+03 -0.86856334563E+02  0.42517755411E+03  0.00000000000E+00 0.  1.
         13    1    5    5    0    0 -0.28640610057E+02 -0.15996603231E+02  0.82815955671E+02  0.89076699383E+02  0.00000000000E+00 0.  1.
        -13    1    5    5    0    0  0.93743505534E+00 -0.48849873677E+02 -0.68717742855E+01  0.49339742850E+02  0.00000000000E+00 0. -1.
          1    1    6    6  503    0  0.10049065675E+03  0.11916051809E+03 -0.41401258457E+03  0.44238447232E+03  0.00000000000E+00 0. -1.
         -1    1    6    6    0  503  0.35747264760E+03  0.21591623163E+03 -0.12041055601E+04  0.12744711502E+04  0.00000000000E+00 0.  1.
<mgrwt>
<rscale>  0 0.16915484E+04</rscale>
<asrwt>0</asrwt>
<pdfrwt beam="1">  1        2 0.31362025E+00 0.16915484E+04</pdfrwt>
<pdfrwt beam="2">  1       -1 0.53985613E-01 0.16915484E+04</pdfrwt>
<totfact> 0.23892256E+01</totfact>
</mgrwt>
</event>
<event>
12    7  0.2492439E-007  0.1125039E+04  0.7818608E-02  0.9181125E-01
          2   -1    0    0  501    0  0.00000000000E+00  0.00000000000E+00  0.72374782596E+03  0.72374782596E+03  0.00000000000E+00 0. -1.
         -1   -1    0    0    0  501 -0.00000000000E+00 -0.00000000000E+00 -0.43720761669E+03  0.43720761669E+03  0.00000000000E+00 0.  1.
         24    2    1    2    0    0 -0.11998187027E+03 -0.10016299200E+03 -0.57694346118E+02  0.18406562619E+03  0.78251153424E+02 0.  0.
        254    2    1    2    0    0  0.11998187027E+03  0.10016299200E+03  0.34423455538E+03  0.97688981646E+03  0.90077078673E+03 0.  0.
         23    2    4    4    0    0  0.46193656330E+03  0.24704165066E+03  0.19142905460E+03  0.56487538418E+03  0.89577625669E+02 0.  0.
         23    2    4    4    0    0 -0.34195469304E+03 -0.14687865866E+03  0.15280550078E+03  0.41201443228E+03  0.88882050386E+02 0.  0.
          4    1    3    3  502    0 -0.59129255249E+02 -0.96703966850E+02 -0.44042883579E+02  0.12160469409E+03  0.00000000000E+00 0. -1.
         -3    1    3    3    0  502 -0.60852615020E+02 -0.34590251512E+01 -0.13651462539E+02  0.62460932103E+02  0.00000000000E+00 0.  1.
         13    1    5    5    0    0  0.35096235204E+03  0.20750090932E+03  0.11208943473E+03  0.42284186322E+03  0.00000000000E+00 0. -1.
        -13    1    5    5    0    0  0.11097421127E+03  0.39540741348E+02  0.79339619876E+02  0.14203352095E+03  0.00000000000E+00 0.  1.
          4    1    6    6  503    0 -0.24013176724E+03 -0.13840816783E+03  0.13502298108E+03  0.30830389550E+03  0.00000000000E+00 0. -1.
         -4    1    6    6    0  503 -0.10182292580E+03 -0.84704908319E+01  0.17782519693E+02  0.10371053678E+03  0.00000000000E+00 0.  1.
<mgrwt>
<rscale>  0 0.11250388E+04</rscale>
<asrwt>0</asrwt>
<pdfrwt beam="1">  1        2 0.11134582E+00 0.11250388E+04</pdfrwt>
<pdfrwt beam="2">  1       -1 0.67262710E-01 0.11250388E+04</pdfrwt>
<totfact> 0.99553138E+01</totfact>
</mgrwt>
</event>
<event>
12    7  0.2492439E-007  0.2918148E+04  0.7818608E-02  0.8267498E-01
          2   -1    0    0  501    0  0.00000000000E+00  0.00000000000E+00  0.13441230595E+04  0.13441230595E+04  0.00000000000E+00 0. -1.
         -1   -1    0    0    0  501 -0.00000000000E+00 -0.00000000000E+00 -0.15838557713E+04  0.15838557713E+04  0.00000000000E+00 0.  1.
         24    2    1    2    0    0  0.14601336181E+03 -0.12006888969E+04 -0.63562498969E+03  0.13686671995E+04  0.79101495099E+02 0.  0.
        254    2    1    2    0    0 -0.14601336181E+03  0.12006888969E+04  0.39589227787E+03  0.15593116312E+04  0.90097077570E+03 0.  0.
         23    2    4    4    0    0  0.26306725902E+03  0.80307382811E+03 -0.15052628100E+02  0.85005486948E+03  0.90745486633E+02 0.  0.
         23    2    4    4    0    0 -0.40908062082E+03  0.39761506879E+03  0.41094490597E+03  0.70925676176E+03  0.93406322589E+02 0.  0.
          4    1    3    3  502    0  0.31081975145E+02 -0.51544334405E+03 -0.24467176602E+03  0.57141246328E+03  0.00000000000E+00 0. -1.
         -3    1    3    3    0  502  0.11493138666E+03 -0.68524555285E+03 -0.39095322367E+03  0.79725473623E+03  0.00000000000E+00 0.  1.
         13    1    5    5    0    0 -0.55585609882E+01  0.52617692327E+01  0.24944708789E+01  0.80502298528E+01  0.00000000000E+00 0. -1.
        -13    1    5    5    0    0  0.26862582000E+03  0.79781205888E+03 -0.17547098979E+02  0.84200463963E+03  0.00000000000E+00 0.  1.
          3    1    6    6  503    0  0.22580807914E+01 -0.30676180735E+01  0.33099240054E+01  0.50462665830E+01  0.00000000000E+00 0. -1.
         -3    1    6    6    0  503 -0.41133870162E+03  0.40068268686E+03  0.40763498196E+03  0.70421049517E+03  0.00000000000E+00 0.  1.
<mgrwt>
<rscale>  0 0.29181481E+04</rscale>
<asrwt>0</asrwt>
<pdfrwt beam="1">  1        2 0.20678816E+00 0.29181481E+04</pdfrwt>
<pdfrwt beam="2">  1       -1 0.24367012E+00 0.29181481E+04</pdfrwt>
<totfact> 0.11731988E+00</totfact>
</mgrwt>
</event>
<event>
12    7  0.2492439E-007  0.1884254E+04  0.7818608E-02  0.8662734E-01
         -1   -1    0    0    0  501 -0.00000000000E+00  0.00000000000E+00  0.22944617521E+03  0.22944617521E+03  0.00000000000E+00 0.  1.
          2   -1    0    0  501    0  0.00000000000E+00 -0.00000000000E+00 -0.38684590522E+04  0.38684590522E+04  0.00000000000E+00 0. -1.
         24    2    1    2    0    0 -0.45741557423E+03  0.32613251538E+03 -0.24039417132E+04  0.24700445113E+04  0.81195457442E+02 0.  0.
        254    2    1    2    0    0  0.45741557423E+03 -0.32613251538E+03 -0.12350711638E+04  0.16278607161E+04  0.89940997673E+03 0.  0.
         23    2    4    4    0    0  0.16961903698E+03 -0.17397375476E+03  0.78829968684E+02  0.27131459072E+03  0.91432806610E+02 0.  0.
         23    2    4    4    0    0  0.28779653726E+03 -0.15215876062E+03 -0.13139011325E+04  0.13565461254E+04  0.88893582644E+02 0.  0.
          2    1    3    3  502    0 -0.21056369534E+03  0.18272209297E+03 -0.13215567679E+04  0.13506430779E+04  0.00000000000E+00 0. -1.
         -1    1    3    3    0  502 -0.24685187889E+03  0.14341042241E+03 -0.10823849452E+04  0.11194014334E+04  0.00000000000E+00 0.  1.
         13    1    5    5    0    0  0.15781822193E+03 -0.10591729681E+03  0.50515322757E+02  0.19666434036E+03  0.00000000000E+00 0. -1.
        -13    1    5    5    0    0  0.11800815049E+02 -0.68056457956E+02  0.28314645927E+02  0.74650250363E+02  0.00000000000E+00 0.  1.
          3    1    6    6  503    0  0.12334359832E+03 -0.92047107057E+02 -0.76739573874E+03  0.78267651875E+03  0.00000000000E+00 0. -1.
         -3    1    6    6    0  503  0.16445293893E+03 -0.60111653561E+02 -0.54650539378E+03  0.57386960666E+03  0.00000000000E+00 0.  1.
<mgrwt>
<rscale>  0 0.18842538E+04</rscale>
<asrwt>0</asrwt>
<pdfrwt beam="1">  1        2 0.59514752E+00 0.18842538E+04</pdfrwt>
<pdfrwt beam="2">  1       -1 0.35299413E-01 0.18842538E+04</pdfrwt>
<totfact> 0.35884973E+00</totfact>
</mgrwt>
</event>
<event>
12    7  0.2492439E-007  0.1043680E+04  0.7818608E-02  0.9261893E-01
         -1   -1    0    0    0  501 -0.00000000000E+00  0.00000000000E+00  0.27731550684E+03  0.27731550684E+03  0.00000000000E+00 0.  1.
          2   -1    0    0  501    0  0.00000000000E+00 -0.00000000000E+00 -0.98197617744E+03  0.98197617744E+03  0.00000000000E+00 0. -1.
         24    2    1    2    0    0  0.96530573631E+02  0.12027831083E+01 -0.19262456457E+02  0.12556661061E+03  0.77950837953E+02 0.  0.
        254    2    1    2    0    0 -0.96530573631E+02 -0.12027831083E+01 -0.68539821414E+03  0.11337250737E+04  0.89790992444E+03 0.  0.
         23    2    4    4    0    0 -0.32430051731E+03 -0.33238485045E+03 -0.24937776132E+03  0.53379199675E+03  0.84226561247E+02 0.  0.
         23    2    4    4    0    0  0.22776994367E+03  0.33118206734E+03 -0.43602045282E+03  0.59993307693E+03  0.90802822331E+02 0.  0.
          2    1    3    3  502    0  0.38709389018E+02  0.38532182361E+02 -0.22177619257E+01  0.54663190024E+02  0.00000000000E+00 0. -1.
         -1    1    3    3    0  502  0.57821184613E+02 -0.37329399252E+02 -0.17044694531E+02  0.70903420582E+02  0.00000000000E+00 0.  1.
         13    1    5    5    0    0 -0.80463342113E+02 -0.67741002298E+02 -0.96746584032E+02  0.14290939206E+03  0.00000000000E+00 0.  1.
        -13    1    5    5    0    0 -0.24383717519E+03 -0.26464384816E+03 -0.15263117729E+03  0.39088260469E+03  0.00000000000E+00 0. -1.
          2    1    6    6  503    0  0.96817450136E+02  0.21971608321E+03 -0.25548517533E+03  0.35060155545E+03  0.00000000000E+00 0. -1.
         -2    1    6    6    0  503  0.13095249354E+03  0.11146598413E+03 -0.18053527749E+03  0.24933152148E+03  0.00000000000E+00 0.  1.
<mgrwt>
<rscale>  0 0.10436805E+04</rscale>
<asrwt>0</asrwt>
<pdfrwt beam="1">  1        2 0.15107326E+00 0.10436805E+04</pdfrwt>
<pdfrwt beam="2">  1       -1 0.42663924E-01 0.10436805E+04</pdfrwt>
<totfact> 0.15883314E+02</totfact>
</mgrwt>
</event>
<event>
12    7  0.2492439E-007  0.3882237E+04  0.7818608E-02  0.8028734E-01
         -1   -1    0    0    0  501 -0.00000000000E+00  0.00000000000E+00  0.14122787950E+04  0.14122787950E+04  0.00000000000E+00 0.  1.
          2   -1    0    0  501    0  0.00000000000E+00 -0.00000000000E+00 -0.26679871530E+04  0.26679871530E+04  0.00000000000E+00 0. -1.
         24    2    1    2    0    0  0.16886904882E+04  0.71107366900E+03 -0.46683343489E+03  0.18924137071E+04  0.77426451580E+02 0.  0.
        254    2    1    2    0    0 -0.16886904882E+04 -0.71107366900E+03 -0.78887492303E+03  0.21878522409E+04  0.89837211450E+03 0.  0.
         23    2    4    4    0    0 -0.12171022338E+02 -0.26118406058E+03  0.46791816143E+01  0.27710836544E+03  0.91661901433E+02 0.  0.
         23    2    4    4    0    0 -0.16765194658E+04 -0.44988960842E+03 -0.79355410464E+03  0.19107438754E+04  0.89977004756E+02 0.  0.
          2    1    3    3  502    0  0.76845990757E+03  0.28730922481E+03 -0.22859689504E+03  0.85166528673E+03  0.00000000000E+00 0. -1.
         -1    1    3    3    0  502  0.92023058061E+03  0.42376444419E+03 -0.23823653985E+03  0.10407484204E+04  0.00000000000E+00 0.  1.
         13    1    5    5    0    0  0.65683740547E+01 -0.28228914572E+02 -0.28983854471E+02  0.40988766457E+02  0.00000000000E+00 0. -1.
        -13    1    5    5    0    0 -0.18739396392E+02 -0.23295514601E+03  0.33663036086E+02  0.23611959899E+03  0.00000000000E+00 0.  1.
          3    1    6    6  503    0 -0.25819910032E+03 -0.10268266562E+03 -0.13424749611E+03  0.30859827517E+03  0.00000000000E+00 0. -1.
         -3    1    6    6    0  503 -0.14183203655E+04 -0.34720694280E+03 -0.65930660853E+03  0.16021456003E+04  0.00000000000E+00 0.  1.
<mgrwt>
<rscale>  0 0.38822373E+04</rscale>
<asrwt>0</asrwt>
<pdfrwt beam="1">  1        2 0.41045956E+00 0.38822373E+04</pdfrwt>
<pdfrwt beam="2">  1       -1 0.21727366E+00 0.38822373E+04</pdfrwt>
<totfact> 0.28815694E-01</totfact>
</mgrwt>
</event>
<event>
12    7  0.2492439E-007  0.1057527E+04  0.7818608E-02  0.9247607E-01
          2   -1    0    0  501    0  0.00000000000E+00  0.00000000000E+00  0.16631289155E+04  0.16631289155E+04  0.00000000000E+00 0. -1.
         -1   -1    0    0    0  501 -0.00000000000E+00 -0.00000000000E+00 -0.16811127676E+03  0.16811127676E+03  0.00000000000E+00 0.  1.
         24    2    1    2    0    0  0.56128622275E+01 -0.41099183742E+02  0.41445588152E+03  0.42435100103E+03  0.81113791856E+02 0.  0.
        254    2    1    2    0    0 -0.56128622275E+01  0.41099183742E+02  0.10805617572E+04  0.14068891912E+04  0.90000157670E+03 0.  0.
         23    2    4    4    0    0  0.38100421858E+03 -0.17869749978E+03  0.65074082429E+03  0.78158010325E+03  0.10152254134E+03 0.  0.
         23    2    4    4    0    0 -0.38661708081E+03  0.21979668352E+03  0.42982093289E+03  0.62530908793E+03  0.92098164163E+02 0.  0.
          2    1    3    3  502    0 -0.18036907774E+02 -0.22531531597E+01  0.30865260868E+03  0.30918738588E+03  0.00000000000E+00 0. -1.
         -1    1    3    3    0  502  0.23649770002E+02 -0.38846030582E+02  0.10580327284E+03  0.11516361516E+03  0.00000000000E+00 0.  1.
         13    1    5    5    0    0  0.15531226390E+03 -0.99440050992E+02  0.20524581992E+03  0.27592765294E+03  0.00000000000E+00 0.  1.
        -13    1    5    5    0    0  0.22569195468E+03 -0.79257448785E+02  0.44549500436E+03  0.50565245031E+03  0.00000000000E+00 0. -1.
          4    1    6    6  503    0 -0.39018061423E+03  0.20889731133E+03  0.42107701961E+03  0.61088857810E+03  0.00000000000E+00 0. -1.
         -4    1    6    6    0  503  0.35635334235E+01  0.10899372185E+02  0.87439132777E+01  0.14420509835E+02  0.00000000000E+00 0.  1.
<mgrwt>
<rscale>  0 0.10575268E+04</rscale>
<asrwt>0</asrwt>
<pdfrwt beam="1">  1        2 0.25586598E+00 0.10575268E+04</pdfrwt>
<pdfrwt beam="2">  1       -1 0.25863274E-01 0.10575268E+04</pdfrwt>
<totfact> 0.15402300E+02</totfact>
</mgrwt>
</event>
<event>
12    7  0.2492439E-007  0.1648953E+04  0.7818608E-02  0.8791026E-01
         -1   -1    0    0    0  501 -0.00000000000E+00  0.00000000000E+00  0.25445229521E+03  0.25445229521E+03  0.00000000000E+00 0.  1.
          2   -1    0    0  501    0  0.00000000000E+00 -0.00000000000E+00 -0.26714687416E+04  0.26714687416E+04  0.00000000000E+00 0. -1.
         24    2    1    2    0    0  0.20531486095E+03 -0.50806103153E+03 -0.11611745750E+04  0.12865185250E+04  0.80767058027E+02 0.  0.
        254    2    1    2    0    0 -0.20531486095E+03  0.50806103153E+03 -0.12558418714E+04  0.16394025118E+04  0.90012309485E+03 0.  0.
         23    2    4    4    0    0 -0.54909219801E+02  0.74708600834E+03 -0.85321584728E+03  0.11390477851E+04  0.91104601946E+02 0.  0.
         23    2    4    4    0    0 -0.15040564115E+03 -0.23902497680E+03 -0.40262602409E+03  0.50035472666E+03  0.92153897277E+02 0.  0.
          2    1    3    3  502    0  0.14186746596E+03 -0.27683181061E+03 -0.72181943785E+03  0.78599333974E+03  0.00000000000E+00 0. -1.
         -1    1    3    3    0  502  0.63447394990E+02 -0.23122922092E+03 -0.43935513716E+03  0.50052518527E+03  0.00000000000E+00 0.  1.
         13    1    5    5    0    0  0.18714814473E+02  0.23762795918E+03 -0.30414186880E+03  0.38641890174E+03  0.00000000000E+00 0. -1.
        -13    1    5    5    0    0 -0.73624034274E+02  0.50945804916E+03 -0.54907397848E+03  0.75262888339E+03  0.00000000000E+00 0.  1.
          3    1    6    6  503    0 -0.11818228196E+03 -0.10144857930E+03 -0.21334364601E+03  0.26414840015E+03  0.00000000000E+00 0. -1.
         -3    1    6    6    0  503 -0.32223359198E+02 -0.13757639750E+03 -0.18928237808E+03  0.23620632650E+03  0.00000000000E+00 0.  1.
<mgrwt>
<rscale>  0 0.16489528E+04</rscale>
<asrwt>0</asrwt>
<pdfrwt beam="1">  1        2 0.41099517E+00 0.16489528E+04</pdfrwt>
<pdfrwt beam="2">  1       -1 0.39146509E-01 0.16489528E+04</pdfrwt>
<totfact> 0.19088241E+01</totfact>
</mgrwt>
</event>
<event>
12    7  0.2492439E-007  0.1124618E+04  0.7818608E-02  0.9181524E-01
          2   -1    0    0  501    0  0.00000000000E+00  0.00000000000E+00  0.75564956794E+03  0.75564956794E+03  0.00000000000E+00 0. -1.
         -1   -1    0    0    0  501 -0.00000000000E+00 -0.00000000000E+00 -0.41843683648E+03  0.41843683648E+03  0.00000000000E+00 0.  1.
         24    2    1    2    0    0 -0.93143109556E+02 -0.16153451128E+03  0.79835106781E+02  0.21893711741E+03  0.82406188570E+02 0.  0.
        254    2    1    2    0    0  0.93143109556E+02  0.16153451128E+03  0.25737762467E+03  0.95514928700E+03  0.90072075672E+03 0.  0.
         23    2    4    4    0    0  0.24883849503E+03  0.11859655119E+03  0.54177223361E+03  0.61526046210E+03  0.95092294899E+02 0.  0.
         23    2    4    4    0    0 -0.15569538547E+03  0.42937960094E+02 -0.28439460894E+03  0.33988882490E+03  0.92517015862E+02 0.  0.
          2    1    3    3  502    0 -0.49991343450E+02 -0.28638626014E+02  0.49496304951E+02  0.75955181019E+02  0.00000000000E+00 0. -1.
         -1    1    3    3    0  502 -0.43151766107E+02 -0.13289588527E+03  0.30338801830E+02  0.14298193639E+03  0.00000000000E+00 0.  1.
         13    1    5    5    0    0  0.24593298275E+03  0.13114152673E+03  0.51704704896E+03  0.58738299505E+03  0.00000000000E+00 0. -1.
        -13    1    5    5    0    0  0.29055122821E+01 -0.12544975545E+02  0.24725184652E+02  0.27877467050E+02  0.00000000000E+00 0.  1.
          3    1    6    6  503    0 -0.13787780204E+03  0.64969439424E+02 -0.20402976197E+03  0.25467520516E+03  0.00000000000E+00 0. -1.
         -3    1    6    6    0  503 -0.17817583437E+02 -0.22031479330E+02 -0.80364846971E+02  0.85213619743E+02  0.00000000000E+00 0.  1.
<mgrwt>
<rscale>  0 0.11246184E+04</rscale>
<asrwt>0</asrwt>
<pdfrwt beam="1">  1        2 0.11625378E+00 0.11246184E+04</pdfrwt>
<pdfrwt beam="2">  1       -1 0.64374898E-01 0.11246184E+04</pdfrwt>
<totfact> 0.10288311E+02</totfact>
</mgrwt>
</event>
<event>
12    7  0.2492439E-007  0.2189092E+04  0.7818608E-02  0.8522982E-01
         -1   -1    0    0    0  501 -0.00000000000E+00  0.00000000000E+00  0.90886089844E+03  0.90886089844E+03  0.00000000000E+00 0.  1.
          2   -1    0    0  501    0  0.00000000000E+00 -0.00000000000E+00 -0.13181674358E+04  0.13181674358E+04  0.00000000000E+00 0. -1.
         24    2    1    2    0    0 -0.36993030394E+03  0.66386572378E+03  0.33490163064E+03  0.83429934802E+03  0.79562371177E+02 0.  0.
        254    2    1    2    0    0  0.36993030394E+03 -0.66386572378E+03 -0.74420816804E+03  0.13927289863E+04  0.89904510612E+03 0.  0.
         23    2    4    4    0    0 -0.21276508924E+02 -0.68612633459E+03 -0.21071798122E+03  0.72414108445E+03  0.93574599819E+02 0.  0.
         23    2    4    4    0    0  0.39120681287E+03  0.22260610809E+02 -0.53349018682E+03  0.66858790182E+03  0.94125967704E+02 0.  0.
          2    1    3    3  502    0 -0.16975667428E+03  0.22716375515E+03  0.13236914920E+03  0.31295733220E+03  0.00000000000E+00 0. -1.
         -1    1    3    3    0  502 -0.20017362967E+03  0.43670196864E+03  0.20253248143E+03  0.52134201582E+03  0.00000000000E+00 0.  1.
         13    1    5    5    0    0  0.53404179602E+01 -0.45571141546E+03 -0.97581147103E+02  0.46607241338E+03  0.00000000000E+00 0.  1.
        -13    1    5    5    0    0 -0.26616926884E+02 -0.23041491913E+03 -0.11313683412E+03  0.25806867108E+03  0.00000000000E+00 0. -1.
          1    1    6    6  503    0  0.24115041831E+03  0.31093556805E+02 -0.25643623728E+03  0.35338347064E+03  0.00000000000E+00 0. -1.
         -1    1    6    6    0  503  0.15005639455E+03 -0.88329459966E+01 -0.27705394954E+03  0.31520443118E+03  0.00000000000E+00 0.  1.
<mgrwt>
<rscale>  0 0.21890919E+04</rscale>
<asrwt>0</asrwt>
<pdfrwt beam="1">  1        2 0.20279499E+00 0.21890919E+04</pdfrwt>
<pdfrwt beam="2">  1       -1 0.13982475E+00 0.21890919E+04</pdfrwt>
<totfact> 0.70745190E+00</totfact>
</mgrwt>
</event>
<event>
12    7  0.2492439E-007  0.1328177E+04  0.7818608E-02  0.9007514E-01
         -1   -1    0    0    0  501 -0.00000000000E+00  0.00000000000E+00  0.81649692448E+03  0.81649692448E+03  0.00000000000E+00 0.  1.
          2   -1    0    0  501    0  0.00000000000E+00 -0.00000000000E+00 -0.54012894019E+03  0.54012894019E+03  0.00000000000E+00 0. -1.
         24    2    1    2    0    0 -0.29464935380E+03 -0.87737375837E+02 -0.10281704408E+03  0.33379847858E+03  0.79586374065E+02 0.  0.
        254    2    1    2    0    0  0.29464935380E+03  0.87737375837E+02  0.37918502837E+03  0.10228273861E+04  0.89882060901E+03 0.  0.
         23    2    4    4    0    0  0.53401378499E+03  0.23505712618E+03  0.71852398444E+02  0.59495077806E+03  0.91548271530E+02 0.  0.
         23    2    4    4    0    0 -0.23936443120E+03 -0.14731975034E+03  0.30733262993E+03  0.42787660804E+03  0.98115271622E+02 0.  0.
          4    1    3    3  502    0 -0.11705107219E+03 -0.62714851050E+02 -0.74380799249E+02  0.15220581244E+03  0.00000000000E+00 0. -1.
         -3    1    3    3    0  502 -0.17759828160E+03 -0.25022524787E+02 -0.28436244830E+02  0.18159266614E+03  0.00000000000E+00 0.  1.
         13    1    5    5    0    0  0.39255394868E+03  0.17936734382E+03  0.12571417106E+02  0.43177457913E+03  0.00000000000E+00 0. -1.
        -13    1    5    5    0    0  0.14145983631E+03  0.55689782356E+02  0.59280981337E+02  0.16317619893E+03  0.00000000000E+00 0.  1.
          1    1    6    6  503    0 -0.18501649296E+02 -0.40658111200E+02  0.16962417374E+02  0.47781969781E+02  0.00000000000E+00 0.  1.
         -1    1    6    6    0  503 -0.22086278190E+03 -0.10666163914E+03  0.29037021255E+03  0.38009463825E+03  0.00000000000E+00 0. -1.
<mgrwt>
<rscale>  0 0.13281771E+04</rscale>
<asrwt>0</asrwt>
<pdfrwt beam="1">  1        2 0.83096760E-01 0.13281771E+04</pdfrwt>
<pdfrwt beam="2">  1       -1 0.12561491E+00 0.13281771E+04</pdfrwt>
<totfact> 0.34785813E+01</totfact>
</mgrwt>
</event>
<event>
12    7  0.2492439E-007  0.1070570E+04  0.7818608E-02  0.9234361E-01
         -1   -1    0    0    0  501 -0.00000000000E+00  0.00000000000E+00  0.14629389293E+03  0.14629389293E+03  0.00000000000E+00 0.  1.
          2   -1    0    0  501    0  0.00000000000E+00 -0.00000000000E+00 -0.19585921405E+04  0.19585921405E+04  0.00000000000E+00 0. -1.
         24    2    1    2    0    0  0.25373823813E+02  0.59989844661E+02 -0.31452552413E+02  0.10787426080E+03  0.80031123280E+02 0.  0.
        254    2    1    2    0    0 -0.25373823813E+02 -0.59989844661E+02 -0.17808456952E+04  0.19970117727E+04  0.90133346641E+03 0.  0.
         23    2    4    4    0    0  0.24791390605E+03  0.31643942398E+03 -0.10212753467E+04  0.11019468196E+04  0.98428885556E+02 0.  0.
         23    2    4    4    0    0 -0.27328772987E+03 -0.37642926864E+03 -0.75957034845E+03  0.89506495306E+03  0.88368424018E+02 0.  0.
          4    1    3    3  502    0  0.37755413751E+02  0.16125806231E+02 -0.44420648876E+02  0.60487246099E+02  0.00000000000E+00 0. -1.
         -3    1    3    3    0  502 -0.12381589938E+02  0.43864038431E+02  0.12968096462E+02  0.47387014705E+02  0.00000000000E+00 0.  1.
         13    1    5    5    0    0  0.15786054224E+03  0.13168525784E+03 -0.57417540096E+03  0.60986748479E+03  0.00000000000E+00 0.  1.
        -13    1    5    5    0    0  0.90053363813E+02  0.18475416614E+03 -0.44709994577E+03  0.49207933481E+03  0.00000000000E+00 0. -1.
          4    1    6    6  503    0 -0.18962774144E+03 -0.29500695401E+03 -0.62705876592E+03  0.71846397207E+03  0.00000000000E+00 0. -1.
         -4    1    6    6    0  503 -0.83659988422E+02 -0.81422314632E+02 -0.13251158253E+03  0.17660098099E+03  0.00000000000E+00 0.  1.
<mgrwt>
<rscale>  0 0.10705701E+04</rscale>
<asrwt>0</asrwt>
<pdfrwt beam="1">  1        2 0.30132188E+00 0.10705701E+04</pdfrwt>
<pdfrwt beam="2">  1       -1 0.22506752E-01 0.10705701E+04</pdfrwt>
<totfact> 0.13406069E+02</totfact>
</mgrwt>
</event>
<event>
12    7  0.2492439E-007  0.1362055E+04  0.7818608E-02  0.8981753E-01
         -1   -1    0    0    0  501 -0.00000000000E+00  0.00000000000E+00  0.58051891040E+03  0.58051891040E+03  0.00000000000E+00 0.  1.
          2   -1    0    0  501    0  0.00000000000E+00 -0.00000000000E+00 -0.79893716922E+03  0.79893716922E+03  0.00000000000E+00 0. -1.
         24    2    1    2    0    0 -0.31499343396E+03 -0.38560504735E+02 -0.26893169726E+03  0.42337719591E+03  0.78842984850E+02 0.  0.
        254    2    1    2    0    0  0.31499343396E+03  0.38560504735E+02  0.50513438442E+02  0.95607888371E+03  0.90045957624E+03 0.  0.
         23    2    4    4    0    0  0.40225849485E+03  0.39097097161E+03  0.98465444195E+02  0.57760978822E+03  0.96267473381E+02 0.  0.
         23    2    4    4    0    0 -0.87265060884E+02 -0.35241046688E+03 -0.47952005752E+02  0.37846909549E+03  0.95556964002E+02 0.  0.
          4    1    3    3  502    0 -0.13279000005E+03  0.87434871491E+01 -0.15086467461E+03  0.20117102854E+03  0.00000000000E+00 0. -1.
         -3    1    3    3    0  502 -0.18220343391E+03 -0.47303991884E+02 -0.11806702265E+03  0.22220616737E+03  0.00000000000E+00 0.  1.
         13    1    5    5    0    0  0.28237797743E+03  0.30971726220E+03  0.10691105427E+03  0.43254141786E+03  0.00000000000E+00 0.  1.
        -13    1    5    5    0    0  0.11988051742E+03  0.81253709407E+02 -0.84456100728E+01  0.14506837036E+03  0.00000000000E+00 0. -1.
          2    1    6    6  503    0  0.17220446523E+02 -0.20458588960E+02  0.23523801832E+01  0.26844577352E+02  0.00000000000E+00 0. -1.
         -2    1    6    6    0  503 -0.10448550741E+03 -0.33195187792E+03 -0.50304385936E+02  0.35162451814E+03  0.00000000000E+00 0.  1.
<mgrwt>
<rscale>  0 0.13620545E+04</rscale>
<asrwt>0</asrwt>
<pdfrwt beam="1">  1        2 0.12291341E+00 0.13620545E+04</pdfrwt>
<pdfrwt beam="2">  1       -1 0.89310602E-01 0.13620545E+04</pdfrwt>
<totfact> 0.47260753E+01</totfact>
</mgrwt>
</event>
<event>
12    7  0.2492439E-007  0.2110629E+04  0.7818608E-02  0.8556575E-01
         -1   -1    0    0    0  501 -0.00000000000E+00  0.00000000000E+00  0.12335363515E+04  0.12335363515E+04  0.00000000000E+00 0.  1.
          2   -1    0    0  501    0  0.00000000000E+00 -0.00000000000E+00 -0.90284260507E+03  0.90284260507E+03  0.00000000000E+00 0. -1.
         24    2    1    2    0    0  0.76272064923E+03  0.70615556417E+02  0.53525104022E+03  0.93783993812E+03  0.79503005692E+02 0.  0.
        254    2    1    2    0    0 -0.76272064923E+03 -0.70615556417E+02 -0.20455729374E+03  0.11985390185E+04  0.89884522964E+03 0.  0.
         23    2    4    4    0    0 -0.89350973252E+03 -0.15974801137E+03  0.16841009016E+02  0.91205552087E+03  0.87650352658E+02 0.  0.
         23    2    4    4    0    0  0.13078908329E+03  0.89132454957E+02 -0.22139830276E+03  0.28648349762E+03  0.89471822985E+02 0.  0.
          4    1    3    3  502    0  0.30560540741E+03  0.43502340284E+01  0.17603886723E+03  0.35270848069E+03  0.00000000000E+00 0. -1.
         -3    1    3    3    0  502  0.45711524182E+03  0.66265322388E+02  0.35921217299E+03  0.58513145743E+03  0.00000000000E+00 0.  1.
         13    1    5    5    0    0 -0.51870853884E+03 -0.49512132618E+02  0.18015760590E+02  0.52137756681E+03  0.00000000000E+00 0. -1.
        -13    1    5    5    0    0 -0.37480119368E+03 -0.11023587876E+03 -0.11747515744E+01  0.39067795406E+03  0.00000000000E+00 0.  1.
          4    1    6    6  503    0  0.62102932097E+02  0.53497133800E+02 -0.18209715936E+03  0.19969499981E+03  0.00000000000E+00 0. -1.
         -4    1    6    6    0  503  0.68686151196E+02  0.35635321157E+02 -0.39301143393E+02  0.86788497809E+02  0.00000000000E+00 0.  1.
<mgrwt>
<rscale>  0 0.21106295E+04</rscale>
<asrwt>0</asrwt>
<pdfrwt beam="1">  1        2 0.13889886E+00 0.21106295E+04</pdfrwt>
<pdfrwt beam="2">  1       -1 0.18977482E+00 0.21106295E+04</pdfrwt>
<totfact> 0.54377339E+00</totfact>
</mgrwt>
</event>
<event>
12    7  0.2492439E-007  0.2881333E+04  0.7818608E-02  0.8278453E-01
          2   -1    0    0  501    0  0.00000000000E+00  0.00000000000E+00  0.25069829143E+04  0.25069829143E+04  0.00000000000E+00 0. -1.
         -1   -1    0    0    0  501 -0.00000000000E+00 -0.00000000000E+00 -0.82789531650E+03  0.82789531650E+03  0.00000000000E+00 0.  1.
         24    2    1    2    0    0 -0.10771079170E+04  0.88173324672E+02 -0.75771697062E+02  0.10862287690E+04  0.78839003103E+02 0.  0.
        254    2    1    2    0    0  0.10771079170E+04 -0.88173324672E+02  0.17548592948E+04  0.22486494618E+04  0.89942051195E+03 0.  0.
         23    2    4    4    0    0  0.71047385629E+03  0.84652620132E+02  0.16772990537E+04  0.18258761486E+04  0.92479338869E+02 0.  0.
         23    2    4    4    0    0  0.36663406072E+03 -0.17282594480E+03  0.77560241153E+02  0.42277331316E+03  0.91827782505E+02 0.  0.
          2    1    3    3  502    0 -0.47458484435E+03  0.91092394020E+01 -0.76480499816E+01  0.47473386797E+03  0.00000000000E+00 0. -1.
         -1    1    3    3    0  502 -0.60252307266E+03  0.79064085270E+02 -0.68123647080E+02  0.61149490101E+03  0.00000000000E+00 0.  1.
         13    1    5    5    0    0  0.53241304321E+03  0.10292001233E+03  0.12429101436E+04  0.13560537609E+04  0.00000000000E+00 0.  1.
        -13    1    5    5    0    0  0.17806081308E+03 -0.18267392201E+02  0.43438891008E+03  0.46982238769E+03  0.00000000000E+00 0. -1.
          3    1    6    6  503    0  0.70996735713E+02 -0.75378789273E+02  0.83278680138E+01  0.10388383772E+03  0.00000000000E+00 0. -1.
         -3    1    6    6    0  503  0.29563732500E+03 -0.97447155531E+02  0.69232373139E+02  0.31888947544E+03  0.00000000000E+00 0.  1.
<mgrwt>
<rscale>  0 0.28813326E+04</rscale>
<asrwt>0</asrwt>
<pdfrwt beam="1">  1        2 0.38568968E+00 0.28813326E+04</pdfrwt>
<pdfrwt beam="2">  1       -1 0.12736851E+00 0.28813326E+04</pdfrwt>
<totfact> 0.18090045E+00</totfact>
</mgrwt>
</event>
<event>
12    7  0.2492439E-007  0.1698488E+04  0.7818608E-02  0.8762227E-01
         -1   -1    0    0    0  501 -0.00000000000E+00  0.00000000000E+00  0.10112712932E+04  0.10112712932E+04  0.00000000000E+00 0.  1.
          2   -1    0    0  501    0  0.00000000000E+00 -0.00000000000E+00 -0.71317655216E+03  0.71317655216E+03  0.00000000000E+00 0. -1.
         24    2    1    2    0    0 -0.56510110468E+03 -0.19700822718E+03  0.19991240573E+03  0.63603009411E+03  0.80111238643E+02 0.  0.
        254    2    1    2    0    0  0.56510110468E+03  0.19700822718E+03  0.98182335332E+02  0.10884177513E+04  0.90380414375E+03 0.  0.
         23    2    4    4    0    0 -0.22388502700E+03  0.96238239735E+02 -0.73125266935E+02  0.26951303489E+03  0.88902571449E+02 0.  0.
         23    2    4    4    0    0  0.78898613167E+03  0.10076998745E+03  0.17130760227E+03  0.81890471640E+03  0.92762781320E+02 0.  0.
          2    1    3    3  502    0 -0.26050981746E+03 -0.76866849098E+02  0.51134528470E+02  0.27638490821E+03  0.00000000000E+00 0. -1.
         -1    1    3    3    0  502 -0.30459128722E+03 -0.12014137809E+03  0.14877787726E+03  0.35964518590E+03  0.00000000000E+00 0.  1.
         13    1    5    5    0    0 -0.90329916291E+02  0.26655846059E+02  0.14485233691E+02  0.95288246397E+02  0.00000000000E+00 0. -1.
        -13    1    5    5    0    0 -0.13355511070E+03  0.69582393675E+02 -0.87610500626E+02  0.17422478849E+03  0.00000000000E+00 0.  1.
          3    1    6    6  503    0  0.13097607013E+03  0.48052866378E+02  0.13344739495E+02  0.14014953081E+03  0.00000000000E+00 0. -1.
         -3    1    6    6    0  503  0.65801006154E+03  0.52717121072E+02  0.15796286277E+03  0.67875518559E+03  0.00000000000E+00 0.  1.
<mgrwt>
<rscale>  0 0.16984875E+04</rscale>
<asrwt>0</asrwt>
<pdfrwt beam="1">  1        2 0.10971947E+00 0.16984875E+04</pdfrwt>
<pdfrwt beam="2">  1       -1 0.15558020E+00 0.16984875E+04</pdfrwt>
<totfact> 0.13734809E+01</totfact>
</mgrwt>
</event>
<event>
12    7  0.2492439E-007  0.2509665E+04  0.7818608E-02  0.8399550E-01
          2   -1    0    0  501    0  0.00000000000E+00  0.00000000000E+00  0.13886384301E+04  0.13886384301E+04  0.00000000000E+00 0. -1.
         -1   -1    0    0    0  501 -0.00000000000E+00 -0.00000000000E+00 -0.11339199022E+04  0.11339199022E+04  0.00000000000E+00 0.  1.
         24    2    1    2    0    0  0.92738481911E+03 -0.11153149477E+03  0.69184610149E+03  0.11651021486E+04  0.79561997832E+02 0.  0.
        254    2    1    2    0    0 -0.92738481911E+03  0.11153149477E+03 -0.43712757357E+03  0.13574561837E+04  0.88268051874E+03 0.  0.
         23    2    4    4    0    0 -0.95772035332E+03 -0.11785324129E+03 -0.15547180292E+03  0.98153335492E+03  0.90103183451E+02 0.  0.
         23    2    4    4    0    0  0.30335534209E+02  0.22938473606E+03 -0.28165577065E+03  0.37592282882E+03  0.91926048102E+02 0.  0.
          4    1    3    3  502    0  0.40492366151E+03 -0.69765329430E+02  0.34587448749E+03  0.53708428942E+03  0.00000000000E+00 0. -1.
         -3    1    3    3    0  502  0.52246115760E+03 -0.41766165338E+02  0.34597161400E+03  0.62801785919E+03  0.00000000000E+00 0.  1.
         13    1    5    5    0    0 -0.67854963142E+03 -0.47668100256E+02 -0.88170348368E+02  0.68591242911E+03  0.00000000000E+00 0.  1.
        -13    1    5    5    0    0 -0.27917072190E+03 -0.70185141034E+02 -0.67301454555E+02  0.29562092580E+03  0.00000000000E+00 0. -1.
          3    1    6    6  503    0 -0.34648114921E+01  0.37742606504E+02 -0.58113782778E+01  0.38344248355E+02  0.00000000000E+00 0. -1.
         -3    1    6    6    0  503  0.33800345701E+02  0.19164212955E+03 -0.27584439237E+03  0.33757858047E+03  0.00000000000E+00 0.  1.
<mgrwt>
<rscale>  0 0.25096651E+04</rscale>
<asrwt>0</asrwt>
<pdfrwt beam="1">  1        2 0.21363668E+00 0.25096651E+04</pdfrwt>
<pdfrwt beam="2">  1       -1 0.17444921E+00 0.25096651E+04</pdfrwt>
<totfact> 0.34047610E+00</totfact>
</mgrwt>
</event>
<event>
12    7  0.2492439E-007  0.1507751E+04  0.7818608E-02  0.8879315E-01
          2   -1    0    0  501    0  0.00000000000E+00  0.00000000000E+00  0.28373994148E+04  0.28373994148E+04  0.00000000000E+00 0. -1.
         -1   -1    0    0    0  501 -0.00000000000E+00 -0.00000000000E+00 -0.20029905162E+03  0.20029905162E+03  0.00000000000E+00 0.  1.
         24    2    1    2    0    0 -0.29156761242E+03  0.29954094747E+03  0.37409438161E+03  0.56663401758E+03  0.79944053608E+02 0.  0.
        254    2    1    2    0    0  0.29156761242E+03 -0.29954094747E+03  0.22630059815E+04  0.24710644488E+04  0.90012609440E+03 0.  0.
         23    2    4    4    0    0 -0.10694914039E+03 -0.40272748028E+03  0.17785453666E+04  0.18289657085E+04  0.90908743253E+02 0.  0.
         23    2    4    4    0    0  0.39851675280E+03  0.10318653281E+03  0.48446061491E+03  0.64209874033E+03  0.90142343621E+02 0.  0.
          4    1    3    3  502    0 -0.22561536071E+03  0.18182017561E+03  0.27204733114E+03  0.39745517687E+03  0.00000000000E+00 0. -1.
         -3    1    3    3    0  502 -0.65952251712E+02  0.11772077186E+03  0.10204705047E+03  0.16917884071E+03  0.00000000000E+00 0.  1.
         13    1    5    5    0    0 -0.37108858834E+02 -0.14080193565E+03  0.44737446157E+03  0.47047440031E+03  0.00000000000E+00 0. -1.
        -13    1    5    5    0    0 -0.69840281553E+02 -0.26192554463E+03  0.13311709051E+04  0.13584913082E+04  0.00000000000E+00 0.  1.
          4    1    6    6  503    0  0.13301761644E+03  0.30267253016E+02  0.22875449729E+03  0.26634266072E+03  0.00000000000E+00 0. -1.
         -4    1    6    6    0  503  0.26549913636E+03  0.72919279798E+02  0.25570611762E+03  0.37575607961E+03  0.00000000000E+00 0.  1.
<mgrwt>
<rscale>  0 0.15077512E+04</rscale>
<asrwt>0</asrwt>
<pdfrwt beam="1">  1        2 0.43652296E+00 0.15077512E+04</pdfrwt>
<pdfrwt beam="2">  1       -1 0.30815241E-01 0.15077512E+04</pdfrwt>
<totfact> 0.23618483E+01</totfact>
</mgrwt>
</event>
<event>
12    7  0.2492439E-007  0.1650259E+04  0.7818608E-02  0.8790253E-01
         -1   -1    0    0    0  501 -0.00000000000E+00  0.00000000000E+00  0.58983920922E+03  0.58983920922E+03  0.00000000000E+00 0.  1.
          2   -1    0    0  501    0  0.00000000000E+00 -0.00000000000E+00 -0.11542783319E+04  0.11542783319E+04  0.00000000000E+00 0. -1.
         24    2    1    2    0    0  0.29110949227E+03  0.41125517411E+03  0.95746313277E+02  0.51803078552E+03  0.72890215510E+02 0.  0.
        254    2    1    2    0    0 -0.29110949227E+03 -0.41125517411E+03 -0.66018543596E+03  0.12260867556E+04  0.90198024796E+03 0.  0.
         23    2    4    4    0    0 -0.26812099989E+03 -0.29272582168E+03  0.12703423639E+03  0.42434062965E+03  0.79686859001E+02 0.  0.
         23    2    4    4    0    0 -0.22988492377E+02 -0.11852935243E+03 -0.78721967235E+03  0.80174612596E+03  0.92219085804E+02 0.  0.
          2    1    3    3  502    0  0.61969799820E+02  0.66439104368E+02 -0.80479711020E+01  0.91209541813E+02  0.00000000000E+00 0. -1.
         -1    1    3    3    0  502  0.22913969245E+03  0.34481606974E+03  0.10379428438E+03  0.42682124370E+03  0.00000000000E+00 0.  1.
         13    1    5    5    0    0 -0.16222358742E+03 -0.22911030310E+03  0.98916501864E+02  0.29764491872E+03  0.00000000000E+00 0. -1.
        -13    1    5    5    0    0 -0.10589741247E+03 -0.63615518578E+02  0.28117734530E+02  0.12669571093E+03  0.00000000000E+00 0.  1.
          4    1    6    6  503    0 -0.23505105509E+02 -0.11141464780E+03 -0.78635966702E+03  0.79456103582E+03  0.00000000000E+00 0. -1.
         -4    1    6    6    0  503  0.51661313235E+00 -0.71147046302E+01 -0.86000532827E+00  0.71850901364E+01  0.00000000000E+00 0.  1.
<mgrwt>
<rscale>  0 0.16502589E+04</rscale>
<asrwt>0</asrwt>
<pdfrwt beam="1">  1        2 0.17758128E+00 0.16502589E+04</pdfrwt>
<pdfrwt beam="2">  1       -1 0.90744494E-01 0.16502589E+04</pdfrwt>
<totfact> 0.26080441E+01</totfact>
</mgrwt>
</event>
<event>
12    7  0.2492439E-007  0.2005907E+04  0.7818608E-02  0.8603864E-01
         -1   -1    0    0    0  501 -0.00000000000E+00  0.00000000000E+00  0.76605675802E+03  0.76605675802E+03  0.00000000000E+00 0.  1.
          2   -1    0    0  501    0  0.00000000000E+00 -0.00000000000E+00 -0.13131090259E+04  0.13131090259E+04  0.00000000000E+00 0. -1.
         24    2    1    2    0    0  0.62501642750E+03 -0.48841853733E+03 -0.11582910722E+03  0.80534077186E+03  0.77195689633E+02 0.  0.
        254    2    1    2    0    0 -0.62501642750E+03  0.48841853733E+03 -0.43122316061E+03  0.12738250120E+04  0.89859809966E+03 0.  0.
         23    2    4    4    0    0  0.14401696875E+03  0.35369905186E+03 -0.35581897602E+02  0.39393147403E+03  0.89844466794E+02 0.  0.
         23    2    4    4    0    0 -0.76903339625E+03  0.13471948547E+03 -0.39564126301E+03  0.87989353798E+03  0.90105076846E+02 0.  0.
          4    1    3    3  502    0  0.28693082273E+03 -0.22173645424E+03 -0.91808394701E+02  0.37406568074E+03  0.00000000000E+00 0. -1.
         -3    1    3    3    0  502  0.33808560477E+03 -0.26668208309E+03 -0.24020712518E+02  0.43127509112E+03  0.00000000000E+00 0.  1.
         13    1    5    5    0    0  0.50342267402E+02  0.66226289802E+02 -0.38271467716E+02  0.91569485033E+02  0.00000000000E+00 0.  1.
        -13    1    5    5    0    0  0.93674701352E+02  0.28747276206E+03  0.26895701140E+01  0.30236198899E+03  0.00000000000E+00 0. -1.
          2    1    6    6  503    0 -0.58491668880E+03  0.88173137608E+02 -0.33870626058E+03  0.68163330757E+03  0.00000000000E+00 0. -1.
         -2    1    6    6    0  503 -0.18411670745E+03  0.46546347864E+02 -0.56935002430E+02  0.19826023041E+03  0.00000000000E+00 0.  1.
<mgrwt>
<rscale>  0 0.20059073E+04</rscale>
<asrwt>0</asrwt>
<pdfrwt beam="1">  1        2 0.20201677E+00 0.20059073E+04</pdfrwt>
<pdfrwt beam="2">  1       -1 0.11785489E+00 0.20059073E+04</pdfrwt>
<totfact> 0.11124013E+01</totfact>
</mgrwt>
</event>
<event>
12    7  0.2492439E-007  0.1460283E+04  0.7818608E-02  0.8911303E-01
          2   -1    0    0  501    0  0.00000000000E+00  0.00000000000E+00  0.29919528241E+04  0.29919528241E+04  0.00000000000E+00 0. -1.
         -1   -1    0    0    0  501 -0.00000000000E+00 -0.00000000000E+00 -0.17818009348E+03  0.17818009348E+03  0.00000000000E+00 0.  1.
         24    2    1    2    0    0  0.19435387567E+03 -0.58388855156E+02  0.17425363532E+04  0.17561872950E+04  0.81106014597E+02 0.  0.
        254    2    1    2    0    0 -0.19435387567E+03  0.58388855156E+02  0.10712363775E+04  0.14139456226E+04  0.90028448830E+03 0.  0.
         23    2    4    4    0    0 -0.32153587041E+03  0.37057767561E+03  0.89018298714E+03  0.10206716896E+04  0.92907576513E+02 0.  0.
         23    2    4    4    0    0  0.12718199474E+03 -0.31218882046E+03  0.18105339032E+03  0.39327393298E+03  0.90812646741E+02 0.  0.
          4    1    3    3  502    0  0.18144919136E+03 -0.27534333161E+02  0.13888863821E+04  0.14009594323E+04  0.00000000000E+00 0. -1.
         -3    1    3    3    0  502  0.12904684305E+02 -0.30854521995E+02  0.35364997113E+03  0.35522786276E+03  0.00000000000E+00 0.  1.
         13    1    5    5    0    0 -0.20215494519E+03  0.16215845560E+03  0.46189977588E+03  0.52963514757E+03  0.00000000000E+00 0.  1.
        -13    1    5    5    0    0 -0.11938092522E+03  0.20841922001E+03  0.42828321126E+03  0.49103654204E+03  0.00000000000E+00 0. -1.
          2    1    6    6  503    0  0.64912367697E+02 -0.25691070876E+03  0.12569085349E+03  0.29328300054E+03  0.00000000000E+00 0. -1.
         -2    1    6    6    0  503  0.62269627045E+02 -0.55278111696E+02  0.55362536830E+02  0.99990932435E+02  0.00000000000E+00 0.  1.
<mgrwt>
<rscale>  0 0.14602828E+04</rscale>
<asrwt>0</asrwt>
<pdfrwt beam="1">  1        2 0.46030040E+00 0.14602828E+04</pdfrwt>
<pdfrwt beam="2">  1       -1 0.27412324E-01 0.14602828E+04</pdfrwt>
<totfact> 0.23407113E+01</totfact>
</mgrwt>
</event>
<event>
12    7  0.2492439E-007  0.1774146E+04  0.7818608E-02  0.8720170E-01
         -3   -1    0    0    0  501 -0.00000000000E+00  0.00000000000E+00  0.31167683828E+03  0.31167683828E+03  0.00000000000E+00 0.  1.
          2   -1    0    0  501    0  0.00000000000E+00 -0.00000000000E+00 -0.25247265835E+04  0.25247265835E+04  0.00000000000E+00 0. -1.
         24    2    1    2    0    0 -0.16897643238E+02 -0.32475030293E+03  0.89430269574E+02  0.34648826650E+03  0.79423271819E+02 0.  0.
        254    2    1    2    0    0  0.16897643238E+02  0.32475030293E+03 -0.23024800148E+04  0.24899151553E+04  0.89023310002E+03 0.  0.
         23    2    4    4    0    0  0.19872506974E+02 -0.30393413593E+02 -0.20273050917E+04  0.20299421655E+04  0.96853417353E+02 0.  0.
         23    2    4    4    0    0 -0.29748637366E+01  0.35514371653E+03 -0.27517492315E+03  0.45997298981E+03  0.98579936175E+02 0.  0.
          4    1    3    3  502    0  0.22393540296E+02 -0.12654917754E+03  0.84046195477E+01  0.12878976129E+03  0.00000000000E+00 0. -1.
         -3    1    3    3    0  502 -0.39291183533E+02 -0.19820112539E+03  0.81025650026E+02  0.21769850521E+03  0.00000000000E+00 0.  1.
         13    1    5    5    0    0 -0.38865126408E+02 -0.17981489589E+02 -0.95170035554E+03  0.95266331868E+03  0.00000000000E+00 0.  1.
        -13    1    5    5    0    0  0.58737633382E+02 -0.12411924005E+02 -0.10756047361E+04  0.10772788468E+04  0.00000000000E+00 0. -1.
          4    1    6    6  503    0 -0.22283418072E+02  0.28048398985E+02 -0.53431727077E+02  0.64328942670E+02  0.00000000000E+00 0. -1.
         -4    1    6    6    0  503  0.19308554336E+02  0.32709531754E+03 -0.22174319608E+03  0.39564404714E+03  0.00000000000E+00 0.  1.
<mgrwt>
<rscale>  0 0.17741463E+04</rscale>
<asrwt>0</asrwt>
<pdfrwt beam="1">  1        2 0.38841947E+00 0.17741463E+04</pdfrwt>
<pdfrwt beam="2">  1       -3 0.47950284E-01 0.17741463E+04</pdfrwt>
<totfact> 0.88857615E+00</totfact>
</mgrwt>
</event>
<event>
12    7  0.2492439E-007  0.2077779E+04  0.7818608E-02  0.8571095E-01
          2   -1    0    0  501    0  0.00000000000E+00  0.00000000000E+00  0.61660506403E+03  0.61660506403E+03  0.00000000000E+00 0. -1.
         -1   -1    0    0    0  501 -0.00000000000E+00 -0.00000000000E+00 -0.17503777225E+04  0.17503777225E+04  0.00000000000E+00 0.  1.
         24    2    1    2    0    0  0.70067786830E+03  0.46700087722E+03 -0.44700590787E+03  0.95623834043E+03  0.74419000225E+02 0.  0.
        254    2    1    2    0    0 -0.70067786830E+03 -0.46700087722E+03 -0.68676675062E+03  0.14107444461E+04  0.89972886364E+03 0.  0.
         23    2    4    4    0    0  0.17459604380E+03 -0.36544350605E+02 -0.29389134689E+03  0.35521818686E+03  0.89378791852E+02 0.  0.
         23    2    4    4    0    0 -0.87527391209E+03 -0.43045652662E+03 -0.39287540374E+03  0.10555262593E+04  0.91582523643E+02 0.  0.
          4    1    3    3  502    0  0.55350626122E+03  0.33548962189E+03 -0.32570007157E+03  0.72457091042E+03  0.00000000000E+00 0. -1.
         -3    1    3    3    0  502  0.14717160708E+03  0.13151125533E+03 -0.12130583629E+03  0.23166743001E+03  0.00000000000E+00 0.  1.
         13    1    5    5    0    0  0.10089566451E+03 -0.44214560707E+02 -0.10446569266E+03  0.15181549143E+03  0.00000000000E+00 0. -1.
        -13    1    5    5    0    0  0.73700379287E+02  0.76702101024E+01 -0.18942565423E+03  0.20340269543E+03  0.00000000000E+00 0.  1.
          1    1    6    6  503    0 -0.72072327439E+02 -0.63597659392E+02 -0.49271007476E+02  0.10801256797E+03  0.00000000000E+00 0. -1.
         -1    1    6    6    0  503 -0.80320158466E+03 -0.36685886722E+03 -0.34360439626E+03  0.94751369129E+03  0.00000000000E+00 0.  1.
<mgrwt>
<rscale>  0 0.20777794E+04</rscale>
<asrwt>0</asrwt>
<pdfrwt beam="1">  1        2 0.94862319E-01 0.20777794E+04</pdfrwt>
<pdfrwt beam="2">  1       -1 0.26928888E+00 0.20777794E+04</pdfrwt>
<totfact> 0.26412288E+00</totfact>
</mgrwt>
</event>
<event>
12    7  0.2492439E-007  0.1851460E+04  0.7818608E-02  0.8679402E-01
         -1   -1    0    0    0  501 -0.00000000000E+00  0.00000000000E+00  0.90816471972E+03  0.90816471972E+03  0.00000000000E+00 0.  1.
          2   -1    0    0  501    0  0.00000000000E+00 -0.00000000000E+00 -0.94363540680E+03  0.94363540680E+03  0.00000000000E+00 0. -1.
         24    2    1    2    0    0  0.65793929167E+03 -0.75410509552E+02 -0.27926923632E+03  0.72326215033E+03  0.80907201610E+02 0.  0.
        254    2    1    2    0    0 -0.65793929167E+03  0.75410509552E+02  0.24379854924E+03  0.11285379762E+04  0.88067552177E+03 0.  0.
         23    2    4    4    0    0 -0.61341871941E+03  0.41322123344E+03  0.12918435938E+03  0.75784933307E+03  0.10301795875E+03 0.  0.
         23    2    4    4    0    0 -0.44520572253E+02 -0.33781072389E+03  0.11461418986E+03  0.37068864313E+03  0.90418422363E+02 0.  0.
          2    1    3    3  502    0  0.41647259750E+03 -0.61306194711E+02 -0.21650488282E+03  0.47337325469E+03  0.00000000000E+00 0. -1.
         -1    1    3    3    0  502  0.24146669417E+03 -0.14104314841E+02 -0.62764353501E+02  0.24988889563E+03  0.00000000000E+00 0.  1.
         13    1    5    5    0    0 -0.60638226516E+03  0.41808203498E+03  0.13305475016E+03  0.74846216070E+03  0.00000000000E+00 0. -1.
        -13    1    5    5    0    0 -0.70364542593E+01 -0.48608015338E+01 -0.38703907878E+01  0.93871723615E+01  0.00000000000E+00 0.  1.
          1    1    6    6  503    0 -0.30510966541E+02 -0.33437341210E+03  0.10043623738E+03  0.35046245958E+03  0.00000000000E+00 0. -1.
         -1    1    6    6    0  503 -0.14009605712E+02 -0.34373117940E+01  0.14177952484E+02  0.20226183555E+02  0.00000000000E+00 0.  1.
<mgrwt>
<rscale>  0 0.18514604E+04</rscale>
<asrwt>0</asrwt>
<pdfrwt beam="1">  1        2 0.14517468E+00 0.18514604E+04</pdfrwt>
<pdfrwt beam="2">  1       -1 0.13971765E+00 0.18514604E+04</pdfrwt>
<totfact> 0.12393390E+01</totfact>
</mgrwt>
</event>
<event>
12    7  0.2492439E-007  0.1645547E+04  0.7818608E-02  0.8793045E-01
          2   -1    0    0  501    0  0.00000000000E+00  0.00000000000E+00  0.85178687423E+03  0.85178687423E+03  0.00000000000E+00 0. -1.
         -1   -1    0    0    0  501 -0.00000000000E+00 -0.00000000000E+00 -0.79474809197E+03  0.79474809197E+03  0.00000000000E+00 0.  1.
         24    2    1    2    0    0  0.51990906783E+03  0.65316272377E+02 -0.21108436216E+03  0.57057319461E+03  0.80159267772E+02 0.  0.
        254    2    1    2    0    0 -0.51990906783E+03 -0.65316272377E+02  0.26812314442E+03  0.10759617716E+04  0.90068421720E+03 0.  0.
         23    2    4    4    0    0 -0.18326066961E+03  0.32078783912E+03  0.38625842474E+03  0.54235271016E+03  0.91986851145E+02 0.  0.
         23    2    4    4    0    0 -0.33664839822E+03 -0.38610411150E+03 -0.11813528032E+03  0.53360906144E+03  0.91510420444E+02 0.  0.
          4    1    3    3  502    0  0.23249241221E+03  0.50811026220E+02 -0.13193264608E+03  0.27210421758E+03  0.00000000000E+00 0. -1.
         -3    1    3    3    0  502  0.28741665562E+03  0.14505246157E+02 -0.79151716082E+02  0.29846897703E+03  0.00000000000E+00 0.  1.
         13    1    5    5    0    0 -0.66374516311E+02  0.13127960476E+03  0.92586474568E+02  0.17381647308E+03  0.00000000000E+00 0.  1.
        -13    1    5    5    0    0 -0.11688615330E+03  0.18950823436E+03  0.29367195017E+03  0.36853623708E+03  0.00000000000E+00 0. -1.
          1    1    6    6  503    0 -0.10259488026E+03 -0.59849586509E+02 -0.30547696913E+02  0.12264111973E+03  0.00000000000E+00 0. -1.
         -1    1    6    6    0  503 -0.23405351796E+03 -0.32625452499E+03 -0.87587583405E+02  0.41096794171E+03  0.00000000000E+00 0.  1.
<mgrwt>
<rscale>  0 0.16455467E+04</rscale>
<asrwt>0</asrwt>
<pdfrwt beam="1">  1        2 0.13104413E+00 0.16455467E+04</pdfrwt>
<pdfrwt beam="2">  1       -1 0.12226894E+00 0.16455467E+04</pdfrwt>
<totfact> 0.20411238E+01</totfact>
</mgrwt>
</event>
<event>
12    7  0.2492439E-007  0.1742127E+04  0.7818608E-02  0.8737696E-01
          2   -1    0    0  501    0  0.00000000000E+00  0.00000000000E+00  0.23984973912E+04  0.23984973912E+04  0.00000000000E+00 0. -1.
         -1   -1    0    0    0  501 -0.00000000000E+00 -0.00000000000E+00 -0.31634473105E+03  0.31634473105E+03  0.00000000000E+00 0.  1.
         24    2    1    2    0    0 -0.60274357035E+03  0.18557763423E+03  0.89425832447E+03  0.10972766712E+04  0.81112714385E+02 0.  0.
        254    2    1    2    0    0  0.60274357035E+03 -0.18557763423E+03  0.11878943356E+04  0.16175654510E+04  0.89871361712E+03 0.  0.
         23    2    4    4    0    0  0.62999432663E+03 -0.35728384560E+03  0.12169058073E+04  0.14192487489E+04  0.94141752065E+02 0.  0.
         23    2    4    4    0    0 -0.27250756276E+02  0.17170621137E+03 -0.29011471675E+02  0.19831670207E+03  0.90896766113E+02 0.  0.
          4    1    3    3  502    0 -0.38556927971E+03  0.84415926671E+02  0.59340611801E+03  0.71268544185E+03  0.00000000000E+00 0. -1.
         -3    1    3    3    0  502 -0.21717429064E+03  0.10116170756E+03  0.30085220646E+03  0.38459122939E+03  0.00000000000E+00 0.  1.
         13    1    5    5    0    0  0.34492790374E+03 -0.24203091427E+03  0.74792111364E+03  0.85845222026E+03  0.00000000000E+00 0. -1.
        -13    1    5    5    0    0  0.28506642289E+03 -0.11525293132E+03  0.46898469367E+03  0.56079652864E+03  0.00000000000E+00 0.  1.
          2    1    6    6  503    0 -0.26980247300E+02  0.95945396555E+02 -0.60144513073E+02  0.11640796930E+03  0.00000000000E+00 0.  1.
         -2    1    6    6    0  503 -0.27050897605E+00  0.75760814812E+02  0.31133041398E+02  0.81908732762E+02  0.00000000000E+00 0. -1.
<mgrwt>
<rscale>  0 0.17421274E+04</rscale>
<asrwt>0</asrwt>
<pdfrwt beam="1">  1        2 0.36899959E+00 0.17421274E+04</pdfrwt>
<pdfrwt beam="2">  1       -1 0.48668422E-01 0.17421274E+04</pdfrwt>
<totfact> 0.18195586E+01</totfact>
</mgrwt>
</event>
<event>
12    7  0.2492439E-007  0.1594933E+04  0.7818608E-02  0.8823667E-01
          2   -1    0    0  501    0  0.00000000000E+00  0.00000000000E+00  0.69766499635E+03  0.69766499635E+03  0.00000000000E+00 0. -1.
         -1   -1    0    0    0  501 -0.00000000000E+00 -0.00000000000E+00 -0.91154482737E+03  0.91154482737E+03  0.00000000000E+00 0.  1.
         24    2    1    2    0    0 -0.51559327232E+03  0.14660982183E+03 -0.92625166186E+01  0.54188141256E+03  0.78859423917E+02 0.  0.
        254    2    1    2    0    0  0.51559327232E+03 -0.14660982183E+03 -0.20461731440E+03  0.10673284112E+04  0.89999490532E+03 0.  0.
         23    2    4    4    0    0 -0.45161284101E+02 -0.26127879448E+03 -0.37006283107E+03  0.46428634008E+03  0.91154575436E+02 0.  0.
         23    2    4    4    0    0  0.56075455642E+03  0.11466897265E+03  0.16544551667E+03  0.60304207107E+03  0.93235586878E+02 0.  0.
          2    1    3    3  502    0 -0.34320798434E+03  0.92454335175E+02  0.30889083802E+02  0.35678237079E+03  0.00000000000E+00 0. -1.
         -1    1    3    3    0  502 -0.17238528799E+03  0.54155486656E+02 -0.40151600421E+02  0.18509904177E+03  0.00000000000E+00 0.  1.
         13    1    5    5    0    0 -0.71483022822E+02 -0.22065061828E+03 -0.30886260848E+03  0.38625461656E+03  0.00000000000E+00 0. -1.
        -13    1    5    5    0    0  0.26321738721E+02 -0.40628176197E+02 -0.61200222591E+02  0.78031723520E+02  0.00000000000E+00 0.  1.
          1    1    6    6  503    0  0.34645330806E+03  0.72791443108E+02  0.54732721563E+02  0.35822361684E+03  0.00000000000E+00 0. -1.
         -1    1    6    6    0  503  0.21430124837E+03  0.41877529542E+02  0.11071279511E+03  0.24481845423E+03  0.00000000000E+00 0.  1.
<mgrwt>
<rscale>  0 0.15949331E+04</rscale>
<asrwt>0</asrwt>
<pdfrwt beam="1">  1        2 0.10733308E+00 0.15949331E+04</pdfrwt>
<pdfrwt beam="2">  1       -1 0.14023766E+00 0.15949331E+04</pdfrwt>
<totfact> 0.18815155E+01</totfact>
</mgrwt>
</event>
<event>
12    7  0.2492439E-007  0.2307625E+04  0.7818608E-02  0.8474921E-01
          2   -1    0    0  501    0  0.00000000000E+00  0.00000000000E+00  0.11949348968E+04  0.11949348968E+04  0.00000000000E+00 0. -1.
         -1   -1    0    0    0  501 -0.00000000000E+00 -0.00000000000E+00 -0.11141049593E+04  0.11141049593E+04  0.00000000000E+00 0.  1.
         24    2    1    2    0    0 -0.81216821178E+03  0.52165608609E+03  0.18437376349E+03  0.98572303277E+03  0.76902121477E+02 0.  0.
        254    2    1    2    0    0  0.81216821178E+03 -0.52165608609E+03 -0.10354382604E+03  0.13233168233E+04  0.89927960871E+03 0.  0.
         23    2    4    4    0    0  0.15502887708E+02 -0.23350482638E+03  0.29037827357E+03  0.38453151160E+03  0.93702178084E+02 0.  0.
         23    2    4    4    0    0  0.79666532407E+03 -0.28815125971E+03 -0.39392209961E+03  0.93878531174E+03  0.91850171115E+02 0.  0.
          4    1    3    3  502    0 -0.74736009389E+03  0.50237869330E+03  0.16642373516E+03  0.91576652103E+03  0.00000000000E+00 0. -1.
         -3    1    3    3    0  502 -0.64808117897E+02  0.19277392793E+02  0.17950028327E+02  0.69956511742E+02  0.00000000000E+00 0.  1.
         13    1    5    5    0    0  0.52863677995E+02 -0.12081290752E+03  0.13190593947E+03  0.18651944655E+03  0.00000000000E+00 0. -1.
        -13    1    5    5    0    0 -0.37360790288E+02 -0.11269191887E+03  0.15847233410E+03  0.19801206505E+03  0.00000000000E+00 0.  1.
          1    1    6    6  503    0  0.50008718780E+03 -0.13823712652E+03 -0.21801665758E+03  0.56278589316E+03  0.00000000000E+00 0. -1.
         -1    1    6    6    0  503  0.29657813627E+03 -0.14991413319E+03 -0.17590544202E+03  0.37599941859E+03  0.00000000000E+00 0.  1.
<mgrwt>
<rscale>  0 0.23076247E+04</rscale>
<asrwt>0</asrwt>
<pdfrwt beam="1">  1        2 0.18383614E+00 0.23076247E+04</pdfrwt>
<pdfrwt beam="2">  1       -1 0.17140076E+00 0.23076247E+04</pdfrwt>
<totfact> 0.47339485E+00</totfact>
</mgrwt>
</event>
<event>
12    7  0.2492439E-007  0.3774846E+04  0.7818608E-02  0.8051575E-01
          2   -1    0    0  501    0  0.00000000000E+00  0.00000000000E+00  0.19883252677E+04  0.19883252677E+04  0.00000000000E+00 0. -1.
         -1   -1    0    0    0  501 -0.00000000000E+00 -0.00000000000E+00 -0.17916410825E+04  0.17916410825E+04  0.00000000000E+00 0.  1.
         24    2    1    2    0    0  0.20281209010E+03 -0.11777877075E+04 -0.12266251695E+04  0.17144478209E+04  0.80033719880E+02 0.  0.
        254    2    1    2    0    0 -0.20281209010E+03  0.11777877075E+04  0.14233093547E+04  0.20655185294E+04  0.90124394488E+03 0.  0.
         23    2    4    4    0    0  0.27933851151E+03  0.17888810083E+03  0.15188308382E+03  0.37587389390E+03  0.90453061496E+02 0.  0.
         23    2    4    4    0    0 -0.48215060161E+03  0.99889960668E+03  0.12714262709E+04  0.16896446355E+04  0.90025579989E+02 0.  0.
          4    1    3    3  502    0  0.11834804617E+03 -0.78259504547E+03 -0.76229609396E+03  0.10988888024E+04  0.00000000000E+00 0. -1.
         -3    1    3    3    0  502  0.84464043925E+02 -0.39519266204E+03 -0.46432907553E+03  0.61555901848E+03  0.00000000000E+00 0.  1.
         13    1    5    5    0    0  0.11124870153E+03  0.86082190101E+02  0.11190629809E+03  0.17974825895E+03  0.00000000000E+00 0.  1.
        -13    1    5    5    0    0  0.16808980999E+03  0.92805910729E+02  0.39976785728E+02  0.19612563495E+03  0.00000000000E+00 0. -1.
          1    1    6    6  503    0 -0.32544348259E+02  0.10674989554E+03  0.16166984917E+03  0.19644799549E+03  0.00000000000E+00 0. -1.
         -1    1    6    6    0  503 -0.44960625335E+03  0.89214971114E+03  0.11097564217E+04  0.14931966400E+04  0.00000000000E+00 0.  1.
<mgrwt>
<rscale>  0 0.37748458E+04</rscale>
<asrwt>0</asrwt>
<pdfrwt beam="1">  1        2 0.30589620E+00 0.37748458E+04</pdfrwt>
<pdfrwt beam="2">  1       -1 0.27563709E+00 0.37748458E+04</pdfrwt>
<totfact> 0.29444153E-01</totfact>
</mgrwt>
</event>
<event>
12    7  0.2492439E-007  0.2670196E+04  0.7818608E-02  0.8344741E-01
          2   -1    0    0  501    0  0.00000000000E+00  0.00000000000E+00  0.29778471543E+04  0.29778471543E+04  0.00000000000E+00 0. -1.
         -1   -1    0    0    0  501 -0.00000000000E+00 -0.00000000000E+00 -0.59858214486E+03  0.59858214486E+03  0.00000000000E+00 0.  1.
         24    2    1    2    0    0  0.54581171863E+03  0.11783606989E+03 -0.33877259099E+03  0.65841365410E+03  0.83342065804E+02 0.  0.
        254    2    1    2    0    0 -0.54581171863E+03 -0.11783606989E+03  0.27180376005E+04  0.29180156451E+04  0.90293473511E+03 0.  0.
         23    2    4    4    0    0  0.23850380794E+02  0.59169480185E+02  0.18910495030E+04  0.18943159158E+04  0.91075232786E+02 0.  0.
         23    2    4    4    0    0 -0.56966209942E+03 -0.17700555008E+03  0.82698809747E+03  0.10236997293E+04  0.90586699413E+02 0.  0.
          4    1    3    3  502    0  0.38839318214E+02  0.31740806749E+02 -0.25440578061E+02  0.56242283600E+02  0.00000000000E+00 0. -1.
         -3    1    3    3    0  502  0.50697240041E+03  0.86095263141E+02 -0.31333201293E+03  0.60217137050E+03  0.00000000000E+00 0.  1.
         13    1    5    5    0    0 -0.18048346483E+02  0.60433618463E+02  0.80902619679E+03  0.81148096228E+03  0.00000000000E+00 0. -1.
        -13    1    5    5    0    0  0.41898727278E+02 -0.12641382778E+01  0.10820233062E+04  0.10828349535E+04  0.00000000000E+00 0.  1.
          1    1    6    6  503    0 -0.43912224715E+02 -0.31179870469E+02  0.44961257802E+02  0.70156842182E+02  0.00000000000E+00 0. -1.
         -1    1    6    6    0  503 -0.52574987471E+03 -0.14582567961E+03  0.78202683967E+03  0.95354288711E+03  0.00000000000E+00 0.  1.
<mgrwt>
<rscale>  0 0.26701956E+04</rscale>
<asrwt>0</asrwt>
<pdfrwt beam="1">  1        2 0.45813032E+00 0.26701956E+04</pdfrwt>
<pdfrwt beam="2">  1       -1 0.92089563E-01 0.26701956E+04</pdfrwt>
<totfact> 0.20627220E+00</totfact>
</mgrwt>
</event>
<event>
12    7  0.2492439E-007  0.2062264E+04  0.7818608E-02  0.8578051E-01
         -1   -1    0    0    0  501 -0.00000000000E+00  0.00000000000E+00  0.25109697326E+03  0.25109697326E+03  0.00000000000E+00 0.  1.
          2   -1    0    0  501    0  0.00000000000E+00 -0.00000000000E+00 -0.42343516296E+04  0.42343516296E+04  0.00000000000E+00 0. -1.
         24    2    1    2    0    0 -0.51518300575E+03 -0.46088341614E+03 -0.26223524402E+04  0.27130949380E+04  0.79528416830E+02 0.  0.
        254    2    1    2    0    0  0.51518300575E+03  0.46088341614E+03 -0.13609022162E+04  0.17723536649E+04  0.90075280679E+03 0.  0.
         23    2    4    4    0    0  0.13006194424E+03 -0.17614250456E+03 -0.80345191293E+03  0.83772397844E+03  0.91127363658E+02 0.  0.
         23    2    4    4    0    0  0.38512106151E+03  0.63702592070E+03 -0.55745030324E+03  0.93462968649E+03  0.93067473585E+02 0.  0.
          2    1    3    3  502    0 -0.48564538000E+03 -0.40891790607E+03 -0.24371976441E+04  0.25185308506E+04  0.00000000000E+00 0. -1.
         -1    1    3    3    0  502 -0.29537625746E+02 -0.51965510075E+02 -0.18515479614E+03  0.19456408740E+03  0.00000000000E+00 0.  1.
         13    1    5    5    0    0  0.83713889195E+02 -0.59819930038E+02 -0.47949138127E+03  0.49040638656E+03  0.00000000000E+00 0. -1.
        -13    1    5    5    0    0  0.46348055045E+02 -0.11632257452E+03 -0.32396053167E+03  0.34731759188E+03  0.00000000000E+00 0.  1.
          1    1    6    6  503    0  0.11485017793E+03  0.27522136995E+03 -0.23587814676E+03  0.38023133217E+03  0.00000000000E+00 0. -1.
         -1    1    6    6    0  503  0.27027088358E+03  0.36180455075E+03 -0.32157215648E+03  0.55439835432E+03  0.00000000000E+00 0.  1.
<mgrwt>
<rscale>  0 0.20622637E+04</rscale>
<asrwt>0</asrwt>
<pdfrwt beam="1">  1        2 0.65143872E+00 0.20622637E+04</pdfrwt>
<pdfrwt beam="2">  1       -1 0.38630303E-01 0.20622637E+04</pdfrwt>
<totfact> 0.14997276E+00</totfact>
</mgrwt>
</event>
<event>
12    7  0.2492439E-007  0.2251583E+04  0.7818608E-02  0.8497260E-01
          2   -1    0    0  501    0  0.00000000000E+00  0.00000000000E+00  0.32946839059E+04  0.32946839059E+04  0.00000000000E+00 0. -1.
         -1   -1    0    0    0  501 -0.00000000000E+00 -0.00000000000E+00 -0.38468230774E+03  0.38468230774E+03  0.00000000000E+00 0.  1.
         24    2    1    2    0    0  0.48494608187E+03  0.63083376898E+01 -0.97709352035E+02  0.50231086558E+03  0.86928653240E+02 0.  0.
        254    2    1    2    0    0 -0.48494608187E+03 -0.63083376898E+01  0.30077109502E+04  0.31770553481E+04  0.90118978425E+03 0.  0.
         23    2    4    4    0    0  0.72831724648E+02  0.26745846193E+02  0.21245373729E+04  0.21279700632E+04  0.92616093921E+02 0.  0.
         23    2    4    4    0    0 -0.55777780652E+03 -0.33054183883E+02  0.88317357731E+03  0.10490852848E+04  0.91518886812E+02 0.  0.
          2    1    3    3  502    0  0.74741248744E+02 -0.50907207312E+01  0.15748788159E+02  0.76551904156E+02  0.00000000000E+00 0. -1.
         -1    1    3    3    0  502  0.41020483313E+03  0.11399058421E+02 -0.11345814019E+03  0.42575896142E+03  0.00000000000E+00 0.  1.
         13    1    5    5    0    0  0.29547062454E+02 -0.31652929497E+02  0.52534308435E+03  0.52712455181E+03  0.00000000000E+00 0. -1.
        -13    1    5    5    0    0  0.43284662194E+02  0.58398775690E+02  0.15991942885E+04  0.16008455114E+04  0.00000000000E+00 0.  1.
          4    1    6    6  503    0 -0.15339155441E+03 -0.47570214394E+02  0.27907216376E+03  0.32198317790E+03  0.00000000000E+00 0. -1.
         -4    1    6    6    0  503 -0.40438625211E+03  0.14516030511E+02  0.60410141355E+03  0.72710210692E+03  0.00000000000E+00 0.  1.
<mgrwt>
<rscale>  0 0.22515831E+04</rscale>
<asrwt>0</asrwt>
<pdfrwt beam="1">  1        2 0.50687443E+00 0.22515831E+04</pdfrwt>
<pdfrwt beam="2">  1       -1 0.59181896E-01 0.22515831E+04</pdfrwt>
<totfact> 0.33726818E+00</totfact>
</mgrwt>
</event>
<event>
12    7  0.2492439E-007  0.1924424E+04  0.7818608E-02  0.8642794E-01
          2   -1    0    0  501    0  0.00000000000E+00  0.00000000000E+00  0.27049671949E+04  0.27049671949E+04  0.00000000000E+00 0. -1.
         -1   -1    0    0    0  501 -0.00000000000E+00 -0.00000000000E+00 -0.34227847428E+03  0.34227847428E+03  0.00000000000E+00 0.  1.
         24    2    1    2    0    0  0.67912015950E+03  0.62076701110E+02  0.14232498415E+04  0.15805589863E+04  0.86422739500E+02 0.  0.
        254    2    1    2    0    0 -0.67912015950E+03 -0.62076701110E+02  0.93943887911E+03  0.14666866829E+04  0.89641882528E+03 0.  0.
         23    2    4    4    0    0 -0.16565740512E+02 -0.21993757495E+03 -0.67248548289E+02  0.24773140202E+03  0.90562241947E+02 0.  0.
         23    2    4    4    0    0 -0.66255441899E+03  0.15786087384E+03  0.10066874274E+04  0.12189552809E+04  0.92379579269E+02 0.  0.
          2    1    3    3  502    0  0.58800464882E+03  0.82620619864E+02  0.12156928021E+04  0.13529540358E+04  0.00000000000E+00 0. -1.
         -1    1    3    3    0  502  0.91115510679E+02 -0.20543918754E+02  0.20755703939E+03  0.22760495048E+03  0.00000000000E+00 0.  1.
         13    1    5    5    0    0 -0.50579452180E+02 -0.13559696703E+03 -0.22796716556E+02  0.14650770880E+03  0.00000000000E+00 0. -1.
        -13    1    5    5    0    0  0.34013711668E+02 -0.84340607918E+02 -0.44451831733E+02  0.10122369322E+03  0.00000000000E+00 0.  1.
          1    1    6    6  503    0 -0.55359310247E+03  0.12943443550E+03  0.89535136621E+03  0.10606001439E+04  0.00000000000E+00 0. -1.
         -1    1    6    6    0  503 -0.10896131652E+03  0.28426438343E+02  0.11133606119E+03  0.15835513700E+03  0.00000000000E+00 0.  1.
<mgrwt>
<rscale>  0 0.19244241E+04</rscale>
<asrwt>0</asrwt>
<pdfrwt beam="1">  1        2 0.41614878E+00 0.19244241E+04</pdfrwt>
<pdfrwt beam="2">  1       -1 0.52658229E-01 0.19244241E+04</pdfrwt>
<totfact> 0.10215238E+01</totfact>
</mgrwt>
</event>
<event>
12    7  0.3175579E-007  0.2490458E+04  0.7818608E-02  0.8406393E-01
         -1   -1    0    0    0  501 -0.00000000000E+00  0.00000000000E+00  0.15803871427E+04  0.15803871427E+04  0.00000000000E+00 0.  1.
          2   -1    0    0  501    0  0.00000000000E+00 -0.00000000000E+00 -0.98114904122E+03  0.98114904122E+03  0.00000000000E+00 0. -1.
         24    2    1    2    0    0 -0.96078156974E+03 -0.22515609919E+03 -0.18782608148E+03  0.10077474672E+04  0.80497372869E+02 0.  0.
        254    2    1    2    0    0  0.96078156974E+03  0.22515609919E+03  0.78706418295E+03  0.15537887167E+04  0.90608656006E+03 0.  0.
         23    2    4    4    0    0  0.48730921246E+03  0.14290403900E+03 -0.11361736522E+03  0.52890010963E+03  0.94522946273E+02 0.  0.
         23    2    4    4    0    0  0.47347235728E+03  0.82252060191E+02  0.90068154817E+03  0.10248886071E+04  0.90707944410E+02 0.  0.
          2    1    3    3  502    0 -0.41346189837E+03 -0.13103878876E+03 -0.59853278832E+02  0.43784051954E+03  0.00000000000E+00 0. -1.
         -1    1    3    3    0  502 -0.54731967137E+03 -0.94117310431E+02 -0.12797280265E+03  0.56990694767E+03  0.00000000000E+00 0.  1.
         13    1    5    5    0    0  0.15227843748E+03  0.16234784764E+02 -0.22115727348E-01  0.15314140932E+03  0.00000000000E+00 0. -1.
        -13    1    5    5    0    0  0.33503077498E+03  0.12666925424E+03 -0.11359524950E+03  0.37575870031E+03  0.00000000000E+00 0.  1.
          1    1    6    6  503    0  0.47679291519E+03  0.84500244933E+02  0.88620424213E+03  0.10098661962E+04  0.00000000000E+00 0.  1.
         -1    1    6    6    0  503 -0.33205579144E+01 -0.22481847415E+01  0.14477306046E+02  0.15022410919E+02  0.00000000000E+00 0. -1.
<mgrwt>
<rscale>  0 0.24904581E+04</rscale>
<asrwt>0</asrwt>
<pdfrwt beam="1">  1        2 0.15094601E+00 0.24904581E+04</pdfrwt>
<pdfrwt beam="2">  1       -1 0.24313648E+00 0.24904581E+04</pdfrwt>
<totfact> 0.20382792E+00</totfact>
</mgrwt>
</event>
<event>
12    7  0.2492439E-007  0.1607437E+04  0.7818608E-02  0.8815992E-01
         -1   -1    0    0    0  501 -0.00000000000E+00  0.00000000000E+00  0.32687980512E+03  0.32687980512E+03  0.00000000000E+00 0.  1.
          2   -1    0    0  501    0  0.00000000000E+00 -0.00000000000E+00 -0.19761507907E+04  0.19761507907E+04  0.00000000000E+00 0. -1.
         24    2    1    2    0    0 -0.19013084228E+03 -0.51334550696E+03 -0.52655525450E+03  0.76373058694E+03  0.79690819375E+02 0.  0.
        254    2    1    2    0    0  0.19013084228E+03  0.51334550696E+03 -0.11227157311E+04  0.15393000089E+04  0.89960022110E+03 0.  0.
         23    2    4    4    0    0 -0.28838153737E+03  0.42119214124E+03 -0.36497883914E+03  0.63410298123E+03  0.91160884399E+02 0.  0.
         23    2    4    4    0    0  0.47851237965E+03  0.92153365713E+02 -0.75773689191E+03  0.90519702762E+03  0.88034772488E+02 0.  0.
          2    1    3    3  502    0 -0.63571720388E+02 -0.22597404896E+03 -0.27365986220E+03  0.36054868550E+03  0.00000000000E+00 0. -1.
         -1    1    3    3    0  502 -0.12655912189E+03 -0.28737145799E+03 -0.25289539230E+03  0.40318190144E+03  0.00000000000E+00 0.  1.
         13    1    5    5    0    0 -0.15343954794E+03  0.29164752477E+03 -0.20619828238E+03  0.38874118027E+03  0.00000000000E+00 0.  1.
        -13    1    5    5    0    0 -0.13494198942E+03  0.12954461647E+03 -0.15878055676E+03  0.24536180096E+03  0.00000000000E+00 0. -1.
          1    1    6    6  503    0  0.35487938042E+03  0.96141224675E+02 -0.51523571404E+03  0.63296947063E+03  0.00000000000E+00 0. -1.
         -1    1    6    6    0  503  0.12363299923E+03 -0.39878589621E+01 -0.24250117787E+03  0.27222755699E+03  0.00000000000E+00 0.  1.
<mgrwt>
<rscale>  0 0.16074374E+04</rscale>
<asrwt>0</asrwt>
<pdfrwt beam="1">  1        2 0.30402319E+00 0.16074374E+04</pdfrwt>
<pdfrwt beam="2">  1       -1 0.50289203E-01 0.16074374E+04</pdfrwt>
<totfact> 0.29858454E+01</totfact>
</mgrwt>
</event>
<event>
12    7  0.2492439E-007  0.3728979E+04  0.7818608E-02  0.8061570E-01
          2   -1    0    0  501    0  0.00000000000E+00  0.00000000000E+00  0.24235400765E+04  0.24235400765E+04  0.00000000000E+00 0. -1.
         -1   -1    0    0    0  501 -0.00000000000E+00 -0.00000000000E+00 -0.14343982289E+04  0.14343982289E+04  0.00000000000E+00 0.  1.
         24    2    1    2    0    0 -0.12595641921E+04  0.20056166675E+03 -0.78113349493E+03  0.14980275852E+04  0.84794887851E+02 0.  0.
        254    2    1    2    0    0  0.12595641921E+04 -0.20056166675E+03  0.17702753425E+04  0.23599107202E+04  0.89920903178E+03 0.  0.
         23    2    4    4    0    0  0.38064340373E+03 -0.46655909851E+03  0.93051798829E+03  0.11122613067E+04  0.93245346884E+02 0.  0.
         23    2    4    4    0    0  0.87892078839E+03  0.26599743176E+03  0.83975735418E+03  0.12476494135E+04  0.90444784332E+02 0.  0.
          2    1    3    3  502    0 -0.63235653271E+03  0.57915448188E+02 -0.39227800199E+03  0.74639869671E+03  0.00000000000E+00 0. -1.
         -1    1    3    3    0  502 -0.62720765940E+03  0.14264621856E+03 -0.38885549294E+03  0.75162888853E+03  0.00000000000E+00 0.  1.
         13    1    5    5    0    0  0.36280890558E+03 -0.46523689124E+03  0.88786797920E+03  0.10660137032E+04  0.00000000000E+00 0. -1.
        -13    1    5    5    0    0  0.17834498150E+02 -0.13222072725E+01  0.42650009097E+02  0.46247603530E+02  0.00000000000E+00 0.  1.
          2    1    6    6  503    0  0.87641378024E+03  0.25942509997E+03  0.83878295145E+03  0.12405479984E+04  0.00000000000E+00 0. -1.
         -2    1    6    6    0  503  0.25070081556E+01  0.65723317950E+01  0.97440273219E+00  0.71014150562E+01  0.00000000000E+00 0.  1.
<mgrwt>
<rscale>  0 0.37289793E+04</rscale>
<asrwt>0</asrwt>
<pdfrwt beam="1">  1        2 0.37285232E+00 0.37289793E+04</pdfrwt>
<pdfrwt beam="2">  1       -1 0.22067665E+00 0.37289793E+04</pdfrwt>
<totfact> 0.38471168E-01</totfact>
</mgrwt>
</event>
<event>
12    7  0.2492439E-007  0.3809925E+04  0.7818608E-02  0.8044028E-01
         -1   -1    0    0    0  501 -0.00000000000E+00  0.00000000000E+00  0.23713865012E+04  0.23713865012E+04  0.00000000000E+00 0.  1.
          2   -1    0    0  501    0  0.00000000000E+00 -0.00000000000E+00 -0.15302787419E+04  0.15302787419E+04  0.00000000000E+00 0. -1.
         24    2    1    2    0    0 -0.16970257419E+04  0.48458250368E+03  0.47274518509E+02  0.17672926602E+04  0.79824151742E+02 0.  0.
        254    2    1    2    0    0  0.16970257419E+04 -0.48458250368E+03  0.79383324079E+03  0.21343725829E+04  0.90036577953E+03 0.  0.
         23    2    4    4    0    0  0.97299846370E+03 -0.43301436313E+03  0.19559185287E+02  0.10692043708E+04  0.92671332031E+02 0.  0.
         23    2    4    4    0    0  0.72402727821E+03 -0.51568140550E+02  0.77427405550E+03  0.10651682121E+04  0.90599306596E+02 0.  0.
          2    1    3    3  502    0 -0.11290247131E+04  0.35869936334E+03  0.45426892650E+02  0.11855064903E+04  0.00000000000E+00 0. -1.
         -1    1    3    3    0  502 -0.56800102887E+03  0.12588314035E+03  0.18476258596E+01  0.58178616994E+03  0.00000000000E+00 0.  1.
         13    1    5    5    0    0  0.82223471669E+03 -0.34511852320E+03  0.44915015661E+02  0.89285725792E+03  0.00000000000E+00 0. -1.
        -13    1    5    5    0    0  0.15076374701E+03 -0.87895839932E+02 -0.25355830374E+02  0.17634711289E+03  0.00000000000E+00 0.  1.
          4    1    6    6  503    0  0.65161650159E+03 -0.40908262340E+02  0.73108206441E+03  0.98018290945E+03  0.00000000000E+00 0. -1.
         -4    1    6    6    0  503  0.72410776618E+02 -0.10659878210E+02  0.43191991090E+02  0.84985302660E+02  0.00000000000E+00 0.  1.
<mgrwt>
<rscale>  0 0.38099251E+04</rscale>
<asrwt>0</asrwt>
<pdfrwt beam="1">  1        2 0.23542750E+00 0.38099251E+04</pdfrwt>
<pdfrwt beam="2">  1       -1 0.36482869E+00 0.38099251E+04</pdfrwt>
<totfact> 0.13771198E-01</totfact>
</mgrwt>
</event>
<event>
12    7  0.2492439E-007  0.2201675E+04  0.7818608E-02  0.8517731E-01
         -1   -1    0    0    0  501 -0.00000000000E+00  0.00000000000E+00  0.75344228029E+03  0.75344228029E+03  0.00000000000E+00 0.  1.
          2   -1    0    0  501    0  0.00000000000E+00 -0.00000000000E+00 -0.16084089833E+04  0.16084089833E+04  0.00000000000E+00 0. -1.
         24    2    1    2    0    0 -0.42709668366E+03 -0.69170315163E+03  0.93214595756E+02  0.82207868048E+03  0.79117437215E+02 0.  0.
        254    2    1    2    0    0  0.42709668366E+03  0.69170315163E+03 -0.94818129876E+03  0.15397725831E+04  0.90054816928E+03 0.  0.
         23    2    4    4    0    0  0.46905202154E+03  0.39310172719E+03 -0.10412659957E+04  0.12112323418E+04  0.91159997773E+02 0.  0.
         23    2    4    4    0    0 -0.41955337884E+02  0.29860142444E+03  0.93084696907E+02  0.32854024133E+03  0.91383085527E+02 0.  0.
          2    1    3    3  502    0 -0.90687055062E+02 -0.12191057514E+03 -0.10520243392E+02  0.15230563288E+03  0.00000000000E+00 0. -1.
         -1    1    3    3    0  502 -0.33640962860E+03 -0.56979257648E+03  0.10373483915E+03  0.66977304759E+03  0.00000000000E+00 0.  1.
         13    1    5    5    0    0  0.17207307096E+01 -0.15565065601E+01  0.11602671596E+01  0.25941948131E+01  0.00000000000E+00 0. -1.
        -13    1    5    5    0    0  0.46733129084E+03  0.39465823375E+03 -0.10424262628E+04  0.12086381470E+04  0.00000000000E+00 0.  1.
          1    1    6    6  503    0  0.10832697409E+02  0.19340369483E+02 -0.12387578144E+02  0.25393883460E+02  0.00000000000E+00 0. -1.
         -1    1    6    6    0  503 -0.52788035292E+02  0.27926105496E+03  0.10547227505E+03  0.30314635787E+03  0.00000000000E+00 0.  1.
<mgrwt>
<rscale>  0 0.22016751E+04</rscale>
<asrwt>0</asrwt>
<pdfrwt beam="1">  1        2 0.24744753E+00 0.22016751E+04</pdfrwt>
<pdfrwt beam="2">  1       -1 0.11591420E+00 0.22016751E+04</pdfrwt>
<totfact> 0.77333117E+00</totfact>
</mgrwt>
</event>
<event>
12    7  0.2492439E-007  0.2369820E+04  0.7818608E-02  0.8450889E-01
          2   -1    0    0  501    0  0.00000000000E+00  0.00000000000E+00  0.18037826854E+04  0.18037826854E+04  0.00000000000E+00 0. -1.
         -1   -1    0    0    0  501 -0.00000000000E+00 -0.00000000000E+00 -0.77837106502E+03  0.77837106502E+03  0.00000000000E+00 0.  1.
         24    2    1    2    0    0 -0.36737227809E+03  0.61284808831E+03  0.12239020646E+04  0.14193398302E+04  0.77743937498E+02 0.  0.
        254    2    1    2    0    0  0.36737227809E+03 -0.61284808831E+03 -0.19849044424E+03  0.11628139202E+04  0.89565204544E+03 0.  0.
         23    2    4    4    0    0  0.32385356684E+02  0.22143260734E+03 -0.56493491993E+02  0.24839268738E+03  0.91794343978E+02 0.  0.
         23    2    4    4    0    0  0.33498692140E+03 -0.83428069565E+03 -0.14199695225E+03  0.91442123282E+03  0.88105277517E+02 0.  0.
          4    1    3    3  502    0 -0.17928232618E+03  0.30543284754E+03  0.53019075062E+03  0.63759988149E+03  0.00000000000E+00 0. -1.
         -3    1    3    3    0  502 -0.18808995191E+03  0.30741524077E+03  0.69371131399E+03  0.78173994872E+03  0.00000000000E+00 0.  1.
         13    1    5    5    0    0  0.42834118362E+02  0.19279000652E+03 -0.16607159123E+02  0.19818815818E+03  0.00000000000E+00 0. -1.
        -13    1    5    5    0    0 -0.10448761678E+02  0.28642600822E+02 -0.39886332870E+02  0.50204529200E+02  0.00000000000E+00 0.  1.
          2    1    6    6  503    0  0.29233606080E+03 -0.72901275291E+03 -0.15335886942E+03  0.80027427122E+03  0.00000000000E+00 0. -1.
         -2    1    6    6    0  503  0.42650860601E+02 -0.10526794274E+03  0.11361917170E+02  0.11414696160E+03  0.00000000000E+00 0.  1.
<mgrwt>
<rscale>  0 0.23698205E+04</rscale>
<asrwt>0</asrwt>
<pdfrwt beam="1">  1        2 0.27750503E+00 0.23698205E+04</pdfrwt>
<pdfrwt beam="2">  1       -1 0.11974940E+00 0.23698205E+04</pdfrwt>
<totfact> 0.54834625E+00</totfact>
</mgrwt>
</event>
<event>
12    7  0.2492439E-007  0.1477392E+04  0.7818608E-02  0.8899628E-01
         -1   -1    0    0    0  501 -0.00000000000E+00  0.00000000000E+00  0.38829097499E+03  0.38829097499E+03  0.00000000000E+00 0.  1.
          2   -1    0    0  501    0  0.00000000000E+00 -0.00000000000E+00 -0.14053159057E+04  0.14053159057E+04  0.00000000000E+00 0. -1.
         24    2    1    2    0    0  0.11866312071E+03 -0.52137170534E+02  0.21604818443E+03  0.26352488092E+03  0.77261401140E+02 0.  0.
        254    2    1    2    0    0 -0.11866312071E+03  0.52137170534E+02 -0.12330731151E+04  0.15300819997E+04  0.89659489067E+03 0.  0.
         23    2    4    4    0    0  0.27054333732E+03 -0.26822110537E+03 -0.47628414196E+03  0.61606919378E+03  0.86939110376E+02 0.  0.
         23    2    4    4    0    0 -0.38920645803E+03  0.32035827590E+03 -0.75678897314E+03  0.91401280596E+03  0.92621637172E+02 0.  0.
          4    1    3    3  502    0  0.51901644693E+02 -0.37034927308E+02  0.41606027406E+02  0.76134276637E+02  0.00000000000E+00 0. -1.
         -3    1    3    3    0  502  0.66761476012E+02 -0.15102243227E+02  0.17444215702E+03  0.18739060429E+03  0.00000000000E+00 0.  1.
         13    1    5    5    0    0  0.23029128592E+03 -0.25789459710E+03 -0.44754383000E+03  0.56554326038E+03  0.00000000000E+00 0. -1.
        -13    1    5    5    0    0  0.40252051402E+02 -0.10326508262E+02 -0.28740311955E+02  0.50525933403E+02  0.00000000000E+00 0.  1.
          3    1    6    6  503    0 -0.37719177036E+03  0.30012271471E+03 -0.74586747529E+03  0.88806844681E+03  0.00000000000E+00 0. -1.
         -3    1    6    6    0  503 -0.12014687672E+02  0.20235561189E+02 -0.10921497849E+02  0.25944359151E+02  0.00000000000E+00 0.  1.
<mgrwt>
<rscale>  0 0.14773916E+04</rscale>
<asrwt>0</asrwt>
<pdfrwt beam="1">  1        2 0.21620245E+00 0.14773916E+04</pdfrwt>
<pdfrwt beam="2">  1       -1 0.59737072E-01 0.14773916E+04</pdfrwt>
<totfact> 0.45029511E+01</totfact>
</mgrwt>
</event>
<event>
12    7  0.2492439E-007  0.4492268E+04  0.7818608E-02  0.7911992E-01
          2   -1    0    0  501    0  0.00000000000E+00  0.00000000000E+00  0.29990180935E+04  0.29990180935E+04  0.00000000000E+00 0. -1.
         -1   -1    0    0    0  501 -0.00000000000E+00 -0.00000000000E+00 -0.16822566867E+04  0.16822566867E+04  0.00000000000E+00 0.  1.
         24    2    1    2    0    0 -0.75455167309E+03  0.19838176418E+04  0.10212981096E+04  0.23569937281E+04  0.86538676650E+02 0.  0.
        254    2    1    2    0    0  0.75455167309E+03 -0.19838176418E+04  0.29546329720E+03  0.23242810521E+04  0.90005732373E+03 0.  0.
         23    2    4    4    0    0  0.92512458675E+03 -0.15720697664E+04  0.36254931466E+03  0.18620839659E+04  0.93036762679E+02 0.  0.
         23    2    4    4    0    0 -0.17057291366E+03 -0.41174787541E+03 -0.67086017459E+02  0.46219708620E+03  0.10244110977E+03 0.  0.
          2    1    3    3  502    0 -0.57507768078E+03  0.15511137790E+04  0.83222867492E+03  0.18518295984E+04  0.00000000000E+00 0. -1.
         -1    1    3    3    0  502 -0.17947399230E+03  0.43270386280E+03  0.18906943465E+03  0.50516412968E+03  0.00000000000E+00 0.  1.
         13    1    5    5    0    0  0.20125273116E+03 -0.42194700859E+03  0.91146778193E+02  0.47628738702E+03  0.00000000000E+00 0. -1.
        -13    1    5    5    0    0  0.72387185558E+03 -0.11501227578E+04  0.27140253647E+03  0.13857965789E+04  0.00000000000E+00 0.  1.
          1    1    6    6  503    0  0.20089171484E+01 -0.10470463907E+03 -0.77256030583E+01  0.10500848600E+03  0.00000000000E+00 0. -1.
         -1    1    6    6    0  503 -0.17258183081E+03 -0.30704323635E+03 -0.59360414401E+02  0.35718860020E+03  0.00000000000E+00 0.  1.
<mgrwt>
<rscale>  0 0.44922681E+04</rscale>
<asrwt>0</asrwt>
<pdfrwt beam="1">  1        2 0.46138740E+00 0.44922681E+04</pdfrwt>
<pdfrwt beam="2">  1       -1 0.25880872E+00 0.44922681E+04</pdfrwt>
<totfact> 0.91686156E-02</totfact>
</mgrwt>
</event>
<event>
12    7  0.2492439E-007  0.1958984E+04  0.7818608E-02  0.8626041E-01
         -1   -1    0    0    0  501 -0.00000000000E+00  0.00000000000E+00  0.59310990991E+03  0.59310990991E+03  0.00000000000E+00 0.  1.
          2   -1    0    0  501    0  0.00000000000E+00 -0.00000000000E+00 -0.16175836308E+04  0.16175836308E+04  0.00000000000E+00 0. -1.
         24    2    1    2    0    0 -0.54122488561E+03 -0.33549526617E+03 -0.89046777908E+03  0.10976524802E+04  0.80166396913E+02 0.  0.
        254    2    1    2    0    0  0.54122488561E+03  0.33549526617E+03 -0.13400594177E+03  0.11130410605E+04  0.90300684355E+03 0.  0.
         23    2    4    4    0    0  0.32405169916E+03  0.27425049666E+03  0.35930824780E+03  0.56292156880E+03  0.86922017002E+02 0.  0.
         23    2    4    4    0    0  0.21717318645E+03  0.61244769513E+02 -0.49331418957E+03  0.55011949169E+03  0.91419094323E+02 0.  0.
          4    1    3    3  502    0 -0.78947696783E+02 -0.18156335703E+02 -0.11804143386E+03  0.14316484017E+03  0.00000000000E+00 0. -1.
         -3    1    3    3    0  502 -0.46227718883E+03 -0.31733893047E+03 -0.77242634522E+03  0.95448763999E+03  0.00000000000E+00 0.  1.
         13    1    5    5    0    0  0.20239042100E+03  0.16225348438E+03  0.16349100305E+03  0.30662254285E+03  0.00000000000E+00 0.  1.
        -13    1    5    5    0    0  0.12166127816E+03  0.11199701229E+03  0.19581724475E+03  0.25629902596E+03  0.00000000000E+00 0. -1.
          3    1    6    6  503    0  0.10725013802E+03  0.19860523098E+02 -0.13803363572E+03  0.17592702201E+03  0.00000000000E+00 0. -1.
         -3    1    6    6    0  503  0.10992304844E+03  0.41384246415E+02 -0.35528055384E+03  0.37419246968E+03  0.00000000000E+00 0.  1.
<mgrwt>
<rscale>  0 0.19589843E+04</rscale>
<asrwt>0</asrwt>
<pdfrwt beam="1">  1        2 0.24885902E+00 0.19589843E+04</pdfrwt>
<pdfrwt beam="2">  1       -1 0.91247677E-01 0.19589843E+04</pdfrwt>
<totfact> 0.13563156E+01</totfact>
</mgrwt>
</event>
<event>
12    7  0.2492439E-007  0.1587211E+04  0.7818608E-02  0.8828443E-01
         -1   -1    0    0    0  501 -0.00000000000E+00  0.00000000000E+00  0.26053103286E+03  0.26053103286E+03  0.00000000000E+00 0.  1.
          2   -1    0    0  501    0  0.00000000000E+00 -0.00000000000E+00 -0.24174078075E+04  0.24174078075E+04  0.00000000000E+00 0. -1.
         24    2    1    2    0    0  0.32738149043E+03  0.41538204175E+03 -0.60458559904E+03  0.80733770444E+03  0.80929238040E+02 0.  0.
        254    2    1    2    0    0 -0.32738149043E+03 -0.41538204175E+03 -0.15522911756E+04  0.18706011359E+04  0.89989990274E+03 0.  0.
         23    2    4    4    0    0  0.18195004556E+03  0.16820852630E+03 -0.38466425675E+03  0.46649161983E+03  0.90818024365E+02 0.  0.
         23    2    4    4    0    0 -0.50933153599E+03 -0.58359056804E+03 -0.11676269188E+04  0.14041095161E+04  0.90412094715E+02 0.  0.
          4    1    3    3  502    0  0.24030951560E+03  0.33830461412E+03 -0.50963277600E+03  0.65720943511E+03  0.00000000000E+00 0. -1.
         -3    1    3    3    0  502  0.87071974828E+02  0.77077427628E+02 -0.94952823033E+02  0.15012826933E+03  0.00000000000E+00 0.  1.
         13    1    5    5    0    0 -0.90785622928E+01  0.94251206641E+01 -0.36674343501E+02  0.38939191877E+02  0.00000000000E+00 0.  1.
        -13    1    5    5    0    0  0.19102860785E+03  0.15878340563E+03 -0.34798991325E+03  0.42755242795E+03  0.00000000000E+00 0. -1.
          4    1    6    6  503    0 -0.49366142626E+03 -0.56819828973E+03 -0.11554611821E+04  0.13790001608E+04  0.00000000000E+00 0. -1.
         -4    1    6    6    0  503 -0.15670109729E+02 -0.15392278314E+02 -0.12165736751E+02  0.25109355254E+02  0.00000000000E+00 0.  1.
<mgrwt>
<rscale>  0 0.15872111E+04</rscale>
<asrwt>0</asrwt>
<pdfrwt beam="1">  1        2 0.37190889E+00 0.15872111E+04</pdfrwt>
<pdfrwt beam="2">  1       -1 0.40081698E-01 0.15872111E+04</pdfrwt>
<totfact> 0.25816297E+01</totfact>
</mgrwt>
</event>
<event>
12    7  0.2492439E-007  0.1775358E+04  0.7818608E-02  0.8719515E-01
         -1   -1    0    0    0  501 -0.00000000000E+00  0.00000000000E+00  0.35088372622E+03  0.35088372622E+03  0.00000000000E+00 0.  1.
          2   -1    0    0  501    0  0.00000000000E+00 -0.00000000000E+00 -0.22456829027E+04  0.22456829027E+04  0.00000000000E+00 0. -1.
         24    2    1    2    0    0 -0.15542055352E+03 -0.63570586604E+03 -0.79245639022E+03  0.10308111433E+04  0.79416535784E+02 0.  0.
        254    2    1    2    0    0  0.15542055352E+03  0.63570586604E+03 -0.11023427863E+04  0.15657554857E+04  0.89897337327E+03 0.  0.
         23    2    4    4    0    0 -0.21573649720E+03  0.25786561398E+03 -0.94352981176E+03  0.10056495312E+04  0.89697061470E+02 0.  0.
         23    2    4    4    0    0  0.37115705072E+03  0.37784025206E+03 -0.15881297455E+03  0.56010595448E+03  0.89310172912E+02 0.  0.
          4    1    3    3  502    0 -0.14237387009E+03 -0.45134055165E+03 -0.59653730871E+03  0.76146922008E+03  0.00000000000E+00 0. -1.
         -3    1    3    3    0  502 -0.13046683434E+02 -0.18436531439E+03 -0.19591908152E+03  0.26934192321E+03  0.00000000000E+00 0.  1.
         13    1    5    5    0    0 -0.44088035518E+02  0.79805244839E+01 -0.11970391331E+03  0.12781420308E+03  0.00000000000E+00 0.  1.
        -13    1    5    5    0    0 -0.17164846168E+03  0.24988508950E+03 -0.82382589845E+03  0.87783532812E+03  0.00000000000E+00 0. -1.
          4    1    6    6  503    0  0.33333280198E+03  0.31327221694E+03 -0.10910742437E+03  0.47027084625E+03  0.00000000000E+00 0. -1.
         -4    1    6    6    0  503  0.37824248740E+02  0.64568035113E+02 -0.49705550181E+02  0.89835108226E+02  0.00000000000E+00 0.  1.
<mgrwt>
<rscale>  0 0.17753575E+04</rscale>
<asrwt>0</asrwt>
<pdfrwt beam="1">  1        2 0.34548967E+00 0.17753575E+04</pdfrwt>
<pdfrwt beam="2">  1       -1 0.53982112E-01 0.17753575E+04</pdfrwt>
<totfact> 0.18167884E+01</totfact>
</mgrwt>
</event>
<event>
12    7  0.2492439E-007  0.1168860E+04  0.7818608E-02  0.9140558E-01
          2   -1    0    0  501    0  0.00000000000E+00  0.00000000000E+00  0.21405776410E+03  0.21405776410E+03  0.00000000000E+00 0. -1.
         -1   -1    0    0    0  501 -0.00000000000E+00 -0.00000000000E+00 -0.15956379894E+04  0.15956379894E+04  0.00000000000E+00 0.  1.
         24    2    1    2    0    0 -0.11541068625E+03  0.14362581026E+03 -0.49021279514E+03  0.52992590095E+03  0.81023923020E+02 0.  0.
        254    2    1    2    0    0  0.11541068625E+03 -0.14362581026E+03 -0.89136743016E+03  0.12797698525E+04  0.89962602233E+03 0.  0.
         23    2    4    4    0    0 -0.79513280845E+02 -0.38083992933E+03 -0.81736219897E+02  0.40886409995E+03  0.95538625607E+02 0.  0.
         23    2    4    4    0    0  0.19492396710E+03  0.23721411907E+03 -0.80963121027E+03  0.87090575260E+03  0.93317962035E+02 0.  0.
          4    1    3    3  502    0 -0.10402150182E+03  0.11846348124E+03 -0.31182132684E+03  0.34940894250E+03  0.00000000000E+00 0. -1.
         -3    1    3    3    0  502 -0.11389184433E+02  0.25162329017E+02 -0.17839146830E+03  0.18051695845E+03  0.00000000000E+00 0.  1.
         13    1    5    5    0    0 -0.63963641526E+02 -0.30058927758E+03 -0.22945385926E+02  0.30817487238E+03  0.00000000000E+00 0. -1.
        -13    1    5    5    0    0 -0.15549639320E+02 -0.80250651751E+02 -0.58790833970E+02  0.10068922757E+03  0.00000000000E+00 0.  1.
          4    1    6    6  503    0  0.29029130173E+02  0.10123307732E+03 -0.30108134792E+03  0.31896834390E+03  0.00000000000E+00 0. -1.
         -4    1    6    6    0  503  0.16589483693E+03  0.13598104175E+03 -0.50854986235E+03  0.55193740870E+03  0.00000000000E+00 0.  1.
<mgrwt>
<rscale>  0 0.11688605E+04</rscale>
<asrwt>0</asrwt>
<pdfrwt beam="1">  1        2 0.32931964E-01 0.11688605E+04</pdfrwt>
<pdfrwt beam="2">  1       -1 0.24548276E+00 0.11688605E+04</pdfrwt>
<totfact> 0.13600102E+01</totfact>
</mgrwt>
</event>
<event>
12    7  0.2492439E-007  0.1248335E+04  0.7818608E-02  0.9071570E-01
         -1   -1    0    0    0  501 -0.00000000000E+00  0.00000000000E+00  0.66062083582E+03  0.66062083582E+03  0.00000000000E+00 0.  1.
          2   -1    0    0  501    0  0.00000000000E+00 -0.00000000000E+00 -0.58972545004E+03  0.58972545004E+03  0.00000000000E+00 0. -1.
         24    2    1    2    0    0  0.39980855035E+02  0.20325898905E+03  0.22364581247E+03  0.31408097958E+03  0.75609039815E+02 0.  0.
        254    2    1    2    0    0 -0.39980855035E+02 -0.20325898905E+03 -0.15275042669E+03  0.93626530628E+03  0.90019294903E+03 0.  0.
         23    2    4    4    0    0 -0.38360175883E+03 -0.74570156984E+02  0.17314754101E+03  0.43686688136E+03  0.90341482053E+02 0.  0.
         23    2    4    4    0    0  0.34362090379E+03 -0.12868883206E+03 -0.32589796770E+03  0.49939842492E+03  0.92483298190E+02 0.  0.
          2    1    3    3  502    0  0.49635256367E+02  0.85693820950E+02  0.74497871808E+02  0.12392345431E+03  0.00000000000E+00 0. -1.
         -1    1    3    3    0  502 -0.96544013313E+01  0.11756516810E+03  0.14914794066E+03  0.19015752527E+03  0.00000000000E+00 0.  1.
         13    1    5    5    0    0 -0.22196241995E+03 -0.32551189984E+02  0.51289762910E+02  0.23012504344E+03  0.00000000000E+00 0. -1.
        -13    1    5    5    0    0 -0.16163933887E+03 -0.42018966999E+02  0.12185777810E+03  0.20674183791E+03  0.00000000000E+00 0.  1.
          3    1    6    6  503    0  0.11374457132E+03 -0.62247333524E+01 -0.67018992059E+02  0.13216701595E+03  0.00000000000E+00 0. -1.
         -3    1    6    6    0  503  0.22987633248E+03 -0.12246409871E+03 -0.25887897564E+03  0.36723140897E+03  0.00000000000E+00 0.  1.
<mgrwt>
<rscale>  0 0.12483348E+04</rscale>
<asrwt>0</asrwt>
<pdfrwt beam="1">  1        2 0.90726993E-01 0.12483348E+04</pdfrwt>
<pdfrwt beam="2">  1       -1 0.10163397E+00 0.12483348E+04</pdfrwt>
<totfact> 0.52304162E+01</totfact>
</mgrwt>
</event>
<event>
12    7  0.2492439E-007  0.2127039E+04  0.7818608E-02  0.8549425E-01
         -1   -1    0    0    0  501 -0.00000000000E+00  0.00000000000E+00  0.63710147868E+03  0.63710147868E+03  0.00000000000E+00 0.  1.
          2   -1    0    0  501    0  0.00000000000E+00 -0.00000000000E+00 -0.17753433578E+04  0.17753433578E+04  0.00000000000E+00 0. -1.
         24    2    1    2    0    0  0.82306480159E+03  0.51851177590E+02 -0.14183029504E+03  0.84052300726E+03  0.78986586911E+02 0.  0.
        254    2    1    2    0    0 -0.82306480159E+03 -0.51851177590E+02 -0.99641158410E+03  0.15719218292E+04  0.89329613234E+03 0.  0.
         23    2    4    4    0    0 -0.20036907033E+03  0.13973043298E+03  0.11120066455E+03  0.28367670783E+03  0.91839689262E+02 0.  0.
         23    2    4    4    0    0 -0.62269573126E+03 -0.19158161057E+03 -0.11076122486E+04  0.12882451214E+04  0.91198202989E+02 0.  0.
          2    1    3    3  502    0  0.27720750150E+03  0.18340817979E+02 -0.85873431833E+02  0.29078278970E+03  0.00000000000E+00 0. -1.
         -1    1    3    3    0  502  0.54585730009E+03  0.33510359610E+02 -0.55956863205E+02  0.54974021756E+03  0.00000000000E+00 0.  1.
         13    1    5    5    0    0 -0.11515301555E+03  0.12025185144E+03  0.40756942396E+02  0.17141135644E+03  0.00000000000E+00 0.  1.
        -13    1    5    5    0    0 -0.85216054780E+02  0.19478581539E+02  0.70443722150E+02  0.11226535138E+03  0.00000000000E+00 0. -1.
          3    1    6    6  503    0 -0.12892259531E+03 -0.44505310119E+01 -0.19288298676E+03  0.23204458492E+03  0.00000000000E+00 0. -1.
         -3    1    6    6    0  503 -0.49377313595E+03 -0.18713107955E+03 -0.91472926188E+03  0.10562005365E+04  0.00000000000E+00 0.  1.
<mgrwt>
<rscale>  0 0.21270391E+04</rscale>
<asrwt>0</asrwt>
<pdfrwt beam="1">  1        2 0.27312975E+00 0.21270391E+04</pdfrwt>
<pdfrwt beam="2">  1       -1 0.98015612E-01 0.21270391E+04</pdfrwt>
<totfact> 0.93024389E+00</totfact>
</mgrwt>
</event>
<event>
12    7  0.2492439E-007  0.1653409E+04  0.7818608E-02  0.8788392E-01
          2   -1    0    0  501    0  0.00000000000E+00  0.00000000000E+00  0.17810843260E+04  0.17810843260E+04  0.00000000000E+00 0. -1.
         -1   -1    0    0    0  501 -0.00000000000E+00 -0.00000000000E+00 -0.38372141392E+03  0.38372141392E+03  0.00000000000E+00 0.  1.
         24    2    1    2    0    0 -0.42689070752E+03 -0.24745409567E+03  0.97806496410E+02  0.50931206637E+03  0.79771326755E+02 0.  0.
        254    2    1    2    0    0  0.42689070752E+03  0.24745409567E+03  0.12995564157E+04  0.16554936736E+04  0.89907909555E+03 0.  0.
         23    2    4    4    0    0  0.62006665419E+03  0.40728571679E+03  0.84340751557E+03  0.11270926052E+04  0.92936497948E+02 0.  0.
         23    2    4    4    0    0 -0.19317594667E+03 -0.15983162112E+03  0.45614890012E+03  0.52840106837E+03  0.90954804658E+02 0.  0.
          4    1    3    3  502    0 -0.23795542905E+03 -0.12844718340E+03  0.93043711880E+02  0.28596957436E+03  0.00000000000E+00 0. -1.
         -3    1    3    3    0  502 -0.18893527847E+03 -0.11900691228E+03  0.47627845298E+01  0.22334249201E+03  0.00000000000E+00 0.  1.
         13    1    5    5    0    0  0.81159695760E+02  0.57856016620E+02  0.70151995938E+02  0.12188321217E+03  0.00000000000E+00 0.  1.
        -13    1    5    5    0    0  0.53890695843E+03  0.34942970017E+03  0.77325551963E+03  0.10052093930E+04  0.00000000000E+00 0. -1.
          2    1    6    6  503    0 -0.35158479335E+02 -0.15951927128E+01  0.26558381213E+02  0.44090939223E+02  0.00000000000E+00 0. -1.
         -2    1    6    6    0  503 -0.15801746734E+03 -0.15823642840E+03  0.42959051891E+03  0.48431012915E+03  0.00000000000E+00 0.  1.
<mgrwt>
<rscale>  0 0.16534088E+04</rscale>
<asrwt>0</asrwt>
<pdfrwt beam="1">  1        2 0.27401297E+00 0.16534088E+04</pdfrwt>
<pdfrwt beam="2">  1       -1 0.59034065E-01 0.16534088E+04</pdfrwt>
<totfact> 0.27969211E+01</totfact>
</mgrwt>
</event>
<event>
12    7  0.2492439E-007  0.1459992E+04  0.7818608E-02  0.8911502E-01
         -1   -1    0    0    0  501 -0.00000000000E+00  0.00000000000E+00  0.36494677637E+03  0.36494677637E+03  0.00000000000E+00 0.  1.
          2   -1    0    0  501    0  0.00000000000E+00 -0.00000000000E+00 -0.14601971719E+04  0.14601971719E+04  0.00000000000E+00 0. -1.
         24    2    1    2    0    0 -0.44323948996E+03  0.13274211675E+02 -0.41597683061E+03  0.61328187349E+03  0.80252617336E+02 0.  0.
        254    2    1    2    0    0  0.44323948996E+03 -0.13274211675E+02 -0.67927356495E+03  0.12118620748E+04  0.90031086973E+03 0.  0.
         23    2    4    4    0    0  0.35006006199E+03  0.33565440451E+03 -0.67806180483E+03  0.83849025538E+03  0.89956494686E+02 0.  0.
         23    2    4    4    0    0  0.93179427979E+02 -0.34892861619E+03 -0.12117601229E+01  0.37337181943E+03  0.94717802907E+02 0.  0.
          2    1    3    3  502    0 -0.42688853611E+03  0.94358649395E+01 -0.41648993612E+03  0.59647860372E+03  0.00000000000E+00 0. -1.
         -1    1    3    3    0  502 -0.16350953858E+02  0.38383467357E+01  0.51310551128E+00  0.16803269771E+02  0.00000000000E+00 0.  1.
         13    1    5    5    0    0  0.21808037936E+03  0.19969996204E+03 -0.33707989474E+03  0.44839935564E+03  0.00000000000E+00 0.  1.
        -13    1    5    5    0    0  0.13197968263E+03  0.13595444247E+03 -0.34098191009E+03  0.39009089974E+03  0.00000000000E+00 0. -1.
          3    1    6    6  503    0  0.94980289813E+02 -0.20193743332E+03  0.23179869936E+02  0.22435973079E+03  0.00000000000E+00 0. -1.
         -3    1    6    6    0  503 -0.18008618346E+01 -0.14699118286E+03 -0.24391630059E+02  0.14901208864E+03  0.00000000000E+00 0.  1.
<mgrwt>
<rscale>  0 0.14599921E+04</rscale>
<asrwt>0</asrwt>
<pdfrwt beam="1">  1        2 0.22464571E+00 0.14599921E+04</pdfrwt>
<pdfrwt beam="2">  1       -1 0.56145659E-01 0.14599921E+04</pdfrwt>
<totfact> 0.47386629E+01</totfact>
</mgrwt>
</event>
<event>
12    7  0.2492439E-007  0.2909422E+04  0.7818608E-02  0.8270080E-01
         -1   -1    0    0    0  501 -0.00000000000E+00  0.00000000000E+00  0.15882110419E+04  0.15882110419E+04  0.00000000000E+00 0.  1.
          2   -1    0    0  501    0  0.00000000000E+00 -0.00000000000E+00 -0.13324321435E+04  0.13324321435E+04  0.00000000000E+00 0. -1.
         24    2    1    2    0    0  0.55280844222E+03  0.17620919370E+00  0.13120763222E+04  0.14258512154E+04  0.76877879676E+02 0.  0.
        254    2    1    2    0    0 -0.55280844222E+03 -0.17620919370E+00 -0.10562974237E+04  0.14947919700E+04  0.90168818409E+03 0.  0.
         23    2    4    4    0    0  0.55872647148E+01 -0.34232031603E+03 -0.17849401522E+03  0.39574085636E+03  0.86811840365E+02 0.  0.
         23    2    4    4    0    0 -0.55839570693E+03  0.34214410684E+03 -0.87780340850E+03  0.10990511136E+04  0.92228905564E+02 0.  0.
          2    1    3    3  502    0  0.39072162361E+03 -0.33441590175E+02  0.89627157343E+03  0.97830693571E+03  0.00000000000E+00 0. -1.
         -1    1    3    3    0  502  0.16208681861E+03  0.33617799369E+02  0.41580474877E+03  0.44754427971E+03  0.00000000000E+00 0.  1.
         13    1    5    5    0    0  0.58577961970E+01 -0.69337658595E+02 -0.78793755581E+02  0.10512126614E+03  0.00000000000E+00 0.  1.
        -13    1    5    5    0    0 -0.27053148224E+00 -0.27298265744E+03 -0.99700259635E+02  0.29061959022E+03  0.00000000000E+00 0. -1.
          3    1    6    6  503    0 -0.48714501255E+03  0.31531611091E+03 -0.81429925601E+03  0.99990889155E+03  0.00000000000E+00 0. -1.
         -3    1    6    6    0  503 -0.71250694383E+02  0.26827995929E+02 -0.63504152490E+02  0.99142222081E+02  0.00000000000E+00 0.  1.
<mgrwt>
<rscale>  0 0.29094216E+04</rscale>
<asrwt>0</asrwt>
<pdfrwt beam="1">  1        2 0.20498956E+00 0.29094216E+04</pdfrwt>
<pdfrwt beam="2">  1       -1 0.24434016E+00 0.29094216E+04</pdfrwt>
<totfact> 0.11805246E+00</totfact>
</mgrwt>
</event>
<event>
12    7  0.2492439E-007  0.3404076E+04  0.7818608E-02  0.8136907E-01
         -1   -1    0    0    0  501 -0.00000000000E+00  0.00000000000E+00  0.92029399087E+03  0.92029399087E+03  0.00000000000E+00 0.  1.
          2   -1    0    0  501    0  0.00000000000E+00 -0.00000000000E+00 -0.31478338566E+04  0.31478338566E+04  0.00000000000E+00 0. -1.
         24    2    1    2    0    0  0.15799440678E+04  0.12797933525E+02 -0.10692757101E+04  0.19095891585E+04  0.82420660891E+02 0.  0.
        254    2    1    2    0    0 -0.15799440678E+04 -0.12797933525E+02 -0.11582641556E+04  0.21585386890E+04  0.90627058502E+03 0.  0.
         23    2    4    4    0    0 -0.13904050316E+04  0.31992811286E+03 -0.90728239001E+03  0.16932155987E+04  0.90761111497E+02 0.  0.
         23    2    4    4    0    0 -0.18953903622E+03 -0.33272604638E+03 -0.25098176556E+03  0.46532309024E+03  0.83078658369E+02 0.  0.
          2    1    3    3  502    0  0.41148511600E+03  0.12602564055E+02 -0.23700900540E+03  0.47502851909E+03  0.00000000000E+00 0. -1.
         -1    1    3    3    0  502  0.11684589518E+04  0.19536947022E+00 -0.83226670475E+03  0.14345606394E+04  0.00000000000E+00 0.  1.
         13    1    5    5    0    0 -0.89000746246E+03  0.20496583058E+03 -0.52866820553E+03  0.10552792742E+04  0.00000000000E+00 0.  1.
        -13    1    5    5    0    0 -0.50039756912E+03  0.11496228228E+03 -0.37861418448E+03  0.63793632458E+03  0.00000000000E+00 0. -1.
          3    1    6    6  503    0  0.31970219872E+01 -0.29440493285E+02 -0.54665308368E+01  0.30113893037E+02  0.00000000000E+00 0. -1.
         -3    1    6    6    0  503 -0.19273605821E+03 -0.30328555310E+03 -0.24551523472E+03  0.43520919720E+03  0.00000000000E+00 0.  1.
<mgrwt>
<rscale>  0 0.34040755E+04</rscale>
<asrwt>0</asrwt>
<pdfrwt beam="1">  1        2 0.48428213E+00 0.34040755E+04</pdfrwt>
<pdfrwt beam="2">  1       -1 0.14158369E+00 0.34040755E+04</pdfrwt>
<totfact> 0.53604678E-01</totfact>
</mgrwt>
</event>
<event>
12    7  0.2492439E-007  0.2065886E+04  0.7818608E-02  0.8576422E-01
          2   -1    0    0  501    0  0.00000000000E+00  0.00000000000E+00  0.32980054253E+04  0.32980054253E+04  0.00000000000E+00 0. -1.
         -1   -1    0    0    0  501 -0.00000000000E+00 -0.00000000000E+00 -0.32352001415E+03  0.32352001415E+03  0.00000000000E+00 0.  1.
         24    2    1    2    0    0  0.53447681403E+03  0.64097084020E+03  0.12006090099E+04  0.14643063613E+04  0.78879923514E+02 0.  0.
        254    2    1    2    0    0 -0.53447681403E+03 -0.64097084020E+03  0.17738764013E+04  0.21572190782E+04  0.90024862209E+03 0.  0.
         23    2    4    4    0    0 -0.29088675857E+03  0.14527112383E+03  0.23955847782E+03  0.41364066144E+03  0.89395339764E+02 0.  0.
         23    2    4    4    0    0 -0.24359005546E+03 -0.78624196403E+03  0.15343179234E+04  0.17435784167E+04  0.91769624466E+02 0.  0.
          2    1    3    3  502    0  0.25404433573E+03  0.25625601706E+03  0.47640172723E+03  0.59763222512E+03  0.00000000000E+00 0. -1.
         -1    1    3    3    0  502  0.28043247831E+03  0.38471482314E+03  0.72420728266E+03  0.86667413617E+03  0.00000000000E+00 0.  1.
         13    1    5    5    0    0 -0.38053603661E+02  0.53466577295E+02  0.27656940984E+02  0.71215574306E+02  0.00000000000E+00 0.  1.
        -13    1    5    5    0    0 -0.25283315491E+03  0.91804546540E+02  0.21190153683E+03  0.34242508713E+03  0.00000000000E+00 0. -1.
          4    1    6    6  503    0 -0.17376492163E+03 -0.63088691713E+03  0.11486067409E+04  0.13219341873E+04  0.00000000000E+00 0. -1.
         -4    1    6    6    0  503 -0.69825133835E+02 -0.15535504690E+03  0.38571118254E+03  0.42164422948E+03  0.00000000000E+00 0.  1.
<mgrwt>
<rscale>  0 0.20658855E+04</rscale>
<asrwt>0</asrwt>
<pdfrwt beam="1">  1        2 0.50738543E+00 0.20658855E+04</pdfrwt>
<pdfrwt beam="2">  1       -1 0.49772312E-01 0.20658855E+04</pdfrwt>
<totfact> 0.47747053E+00</totfact>
</mgrwt>
</event>
<event>
12    7  0.2492439E-007  0.1385319E+04  0.7818608E-02  0.8964515E-01
          2   -1    0    0  501    0  0.00000000000E+00  0.00000000000E+00  0.34232602130E+04  0.34232602130E+04  0.00000000000E+00 0. -1.
         -1   -1    0    0    0  501 -0.00000000000E+00 -0.00000000000E+00 -0.14015205924E+03  0.14015205924E+03  0.00000000000E+00 0.  1.
         24    2    1    2    0    0  0.38777119468E+03  0.36880889213E+02  0.79848717113E+03  0.89201861216E+03  0.79929610079E+02 0.  0.
        254    2    1    2    0    0 -0.38777119468E+03 -0.36880889213E+02  0.24846209826E+04  0.26713936600E+04  0.90070858794E+03 0.  0.
         23    2    4    4    0    0 -0.49698001020E+03 -0.33746953701E+03  0.12083654044E+04  0.13524935526E+04  0.90647890836E+02 0.  0.
         23    2    4    4    0    0  0.10920881552E+03  0.30058864779E+03  0.12762555781E+04  0.13189001075E+04  0.91591987657E+02 0.  0.
          4    1    3    3  502    0  0.19813184684E+03 -0.76171840156E+00  0.48220890329E+03  0.52132737830E+03  0.00000000000E+00 0. -1.
         -1    1    3    3    0  502  0.18963934784E+03  0.37642607615E+02  0.31627826784E+03  0.37069123387E+03  0.00000000000E+00 0.  1.
         13    1    5    5    0    0 -0.53238558149E+02 -0.74996566209E+02  0.18375880649E+03  0.20548997050E+03  0.00000000000E+00 0.  1.
        -13    1    5    5    0    0 -0.44374145206E+03 -0.26247297080E+03  0.10246065980E+04  0.11470035821E+04  0.00000000000E+00 0. -1.
          3    1    6    6  503    0  0.12035441676E+03  0.29194139385E+03  0.11760429334E+04  0.12176994474E+04  0.00000000000E+00 0. -1.
         -3    1    6    6    0  503 -0.11145601239E+02  0.86472539390E+01  0.10021264476E+03  0.10120066006E+03  0.00000000000E+00 0.  1.
<mgrwt>
<rscale>  0 0.13853187E+04</rscale>
<asrwt>0</asrwt>
<pdfrwt beam="1">  1        2 0.52665536E+00 0.13853187E+04</pdfrwt>
<pdfrwt beam="2">  1       -1 0.21561858E-01 0.13853187E+04</pdfrwt>
<totfact> 0.18680516E+01</totfact>
</mgrwt>
</event>
<event>
12    7  0.2492439E-007  0.1474753E+04  0.7818608E-02  0.8901418E-01
          2   -1    0    0  501    0  0.00000000000E+00  0.00000000000E+00  0.34602283629E+04  0.34602283629E+04  0.00000000000E+00 0. -1.
         -1   -1    0    0    0  501 -0.00000000000E+00 -0.00000000000E+00 -0.15713525810E+03  0.15713525810E+03  0.00000000000E+00 0.  1.
         24    2    1    2    0    0 -0.24472168492E+03  0.38209445117E+03  0.88665510470E+03  0.99920495936E+03  0.79802277083E+02 0.  0.
        254    2    1    2    0    0  0.24472168492E+03 -0.38209445117E+03  0.24164380001E+04  0.26181586616E+04  0.89983181568E+03 0.  0.
         23    2    4    4    0    0  0.43780080255E+03 -0.44261964699E+03  0.97914889592E+03  0.11637051333E+04  0.88855963299E+02 0.  0.
         23    2    4    4    0    0 -0.19307911763E+03  0.60525195821E+02  0.14372891041E+04  0.14544535283E+04  0.93232248742E+02 0.  0.
          2    1    3    3  502    0 -0.12063895596E+03  0.19184522459E+03  0.52928396514E+03  0.57576024841E+03  0.00000000000E+00 0. -1.
         -1    1    3    3    0  502 -0.12408272896E+03  0.19024922658E+03  0.35737113956E+03  0.42344471095E+03  0.00000000000E+00 0.  1.
         13    1    5    5    0    0  0.38265502946E+03 -0.34544950861E+03  0.83513689253E+03  0.98143459478E+03  0.00000000000E+00 0. -1.
        -13    1    5    5    0    0  0.55145773090E+02 -0.97170138377E+02  0.14401200340E+03  0.18227053850E+03  0.00000000000E+00 0.  1.
          3    1    6    6  503    0 -0.59334573454E+02  0.63370990082E+02  0.46896391750E+03  0.47693147297E+03  0.00000000000E+00 0.  1.
         -3    1    6    6    0  503 -0.13374454417E+03 -0.28457942610E+01  0.96832518663E+03  0.97752205535E+03  0.00000000000E+00 0. -1.
<mgrwt>
<rscale>  0 0.14747527E+04</rscale>
<asrwt>0</asrwt>
<pdfrwt beam="1">  1        2 0.53234277E+00 0.14747527E+04</pdfrwt>
<pdfrwt beam="2">  1       -1 0.24174658E-01 0.14747527E+04</pdfrwt>
<totfact> 0.14376622E+01</totfact>
</mgrwt>
</event>
<event>
12    7  0.2492439E-007  0.2618566E+04  0.7818608E-02  0.8361922E-01
         -1   -1    0    0    0  501 -0.00000000000E+00  0.00000000000E+00  0.94884725957E+03  0.94884725957E+03  0.00000000000E+00 0.  1.
          2   -1    0    0  501    0  0.00000000000E+00 -0.00000000000E+00 -0.18066370143E+04  0.18066370143E+04  0.00000000000E+00 0. -1.
         24    2    1    2    0    0  0.72029823020E+03  0.78687226396E+03 -0.83642615136E+03  0.13579002969E+04  0.79290664294E+02 0.  0.
        254    2    1    2    0    0 -0.72029823020E+03 -0.78687226396E+03 -0.21363603341E+02  0.13975839769E+04  0.90265556488E+03 0.  0.
         23    2    4    4    0    0 -0.32700406493E+03 -0.91181282937E+03 -0.23463979377E+02  0.97320905234E+03  0.90835053520E+02 0.  0.
         23    2    4    4    0    0 -0.39329416527E+03  0.12494056540E+03  0.21003760359E+01  0.42437492460E+03  0.98991008319E+02 0.  0.
          2    1    3    3  502    0  0.26839642396E+03  0.32321950039E+03 -0.37142545147E+03  0.56077121166E+03  0.00000000000E+00 0. -1.
         -1    1    3    3    0  502  0.45190180624E+03  0.46365276357E+03 -0.46500069989E+03  0.79712908525E+03  0.00000000000E+00 0.  1.
         13    1    5    5    0    0 -0.30726524084E+03 -0.81792081606E+03 -0.44955410845E+02  0.87488706616E+03  0.00000000000E+00 0. -1.
        -13    1    5    5    0    0 -0.19738824087E+02 -0.93892013308E+02  0.21491431468E+02  0.98321986178E+02  0.00000000000E+00 0.  1.
          3    1    6    6  503    0 -0.28808292864E+03  0.89576642266E+02  0.45687339865E+02  0.30512797584E+03  0.00000000000E+00 0. -1.
         -3    1    6    6    0  503 -0.10521123663E+03  0.35363923137E+02 -0.43586963829E+02  0.11924694876E+03  0.00000000000E+00 0.  1.
<mgrwt>
<rscale>  0 0.26185665E+04</rscale>
<asrwt>0</asrwt>
<pdfrwt beam="1">  1        2 0.27794415E+00 0.26185665E+04</pdfrwt>
<pdfrwt beam="2">  1       -1 0.14597650E+00 0.26185665E+04</pdfrwt>
<totfact> 0.32280017E+00</totfact>
</mgrwt>
</event>
<event>
12    7  0.2492439E-007  0.1671211E+04  0.7818608E-02  0.8777957E-01
          2   -1    0    0  501    0  0.00000000000E+00  0.00000000000E+00  0.20246179221E+04  0.20246179221E+04  0.00000000000E+00 0. -1.
         -1   -1    0    0    0  501 -0.00000000000E+00 -0.00000000000E+00 -0.34487306357E+03  0.34487306357E+03  0.00000000000E+00 0.  1.
         24    2    1    2    0    0  0.51348819038E+03 -0.11375066791E+03  0.95404135242E+03  0.10922839732E+04  0.79246702726E+02 0.  0.
        254    2    1    2    0    0 -0.51348819038E+03  0.11375066791E+03  0.72570350607E+03  0.12772070124E+04  0.90994661259E+03 0.  0.
         23    2    4    4    0    0 -0.69637361232E+03  0.13169619628E+01  0.24974839217E+03  0.74544166818E+03  0.91493600510E+02 0.  0.
         23    2    4    4    0    0  0.18288542195E+03  0.11243370595E+03  0.47595511391E+03  0.53176534425E+03  0.10076058306E+03 0.  0.
          2    1    3    3  502    0  0.47467650194E+03 -0.11279576286E+03  0.91652289704E+03  0.10382942196E+04  0.00000000000E+00 0. -1.
         -1    1    3    3    0  502  0.38811688435E+02 -0.95490505015E+00  0.37518455387E+02  0.53989753634E+02  0.00000000000E+00 0.  1.
         13    1    5    5    0    0 -0.10832165175E+03  0.28131764963E+02  0.20844698845E+02  0.11383970269E+03  0.00000000000E+00 0. -1.
        -13    1    5    5    0    0 -0.58805196057E+03 -0.26814803000E+02  0.22890369332E+03  0.63160196549E+03  0.00000000000E+00 0.  1.
          1    1    6    6  503    0  0.40049090908E+02 -0.25269864158E+01  0.17345124285E+03  0.17803271887E+03  0.00000000000E+00 0. -1.
         -1    1    6    6    0  503  0.14283633104E+03  0.11496069236E+03  0.30250387106E+03  0.35373262538E+03  0.00000000000E+00 0.  1.
<mgrwt>
<rscale>  0 0.16712106E+04</rscale>
<asrwt>0</asrwt>
<pdfrwt beam="1">  1        2 0.31147967E+00 0.16712106E+04</pdfrwt>
<pdfrwt beam="2">  1       -1 0.53057396E-01 0.16712106E+04</pdfrwt>
<totfact> 0.25192316E+01</totfact>
</mgrwt>
</event>
<event>
12    7  0.2492439E-007  0.1346863E+04  0.7818608E-02  0.8993207E-01
         -1   -1    0    0    0  501 -0.00000000000E+00  0.00000000000E+00  0.99878705711E+03  0.99878705711E+03  0.00000000000E+00 0.  1.
          2   -1    0    0  501    0  0.00000000000E+00 -0.00000000000E+00 -0.45406042743E+03  0.45406042743E+03  0.00000000000E+00 0. -1.
         24    2    1    2    0    0 -0.35678376055E+03 -0.90689013435E+01  0.23947127189E+03  0.43745226251E+03  0.81492914728E+02 0.  0.
        254    2    1    2    0    0  0.35678376055E+03  0.90689013435E+01  0.30525535779E+03  0.10153952220E+04  0.90026092146E+03 0.  0.
         23    2    4    4    0    0  0.45293495145E+03  0.81862454703E+01  0.56186022828E+03  0.72729291054E+03  0.89727235179E+02 0.  0.
         23    2    4    4    0    0 -0.96151190900E+02  0.88265587324E+00 -0.25660487049E+03  0.28810231150E+03  0.88944093322E+02 0.  0.
          4    1    3    3  502    0 -0.60717198049E+02  0.13896559018E+02  0.12112831200E+02  0.63454024074E+02  0.00000000000E+00 0. -1.
         -3    1    3    3    0  502 -0.29606656250E+03 -0.22965460361E+02  0.22735844069E+03  0.37399823844E+03  0.00000000000E+00 0.  1.
         13    1    5    5    0    0  0.29785838294E+03 -0.27533340304E+02  0.40828691591E+03  0.50613822896E+03  0.00000000000E+00 0.  1.
        -13    1    5    5    0    0  0.15507656851E+03  0.35719585774E+02  0.15357331237E+03  0.22115468158E+03  0.00000000000E+00 0. -1.
          4    1    6    6  503    0 -0.31889006390E+01  0.37802846303E+01  0.69999197305E+01  0.85707943275E+01  0.00000000000E+00 0. -1.
         -4    1    6    6    0  503 -0.92962290261E+02 -0.28976287570E+01 -0.26360479022E+03  0.27953151717E+03  0.00000000000E+00 0.  1.
<mgrwt>
<rscale>  0 0.13468625E+04</rscale>
<asrwt>0</asrwt>
<pdfrwt beam="1">  1        2 0.69855450E-01 0.13468625E+04</pdfrwt>
<pdfrwt beam="2">  1       -1 0.15365955E+00 0.13468625E+04</pdfrwt>
<totfact> 0.25140468E+01</totfact>
</mgrwt>
</event>
<event>
12    7  0.2492439E-007  0.2351705E+04  0.7818608E-02  0.8457809E-01
          2   -1    0    0  501    0  0.00000000000E+00  0.00000000000E+00  0.29303293035E+04  0.29303293035E+04  0.00000000000E+00 0. -1.
         -1   -1    0    0    0  501 -0.00000000000E+00 -0.00000000000E+00 -0.47183418336E+03  0.47183418336E+03  0.00000000000E+00 0.  1.
         24    2    1    2    0    0  0.23627189829E+03 -0.97241778189E+03  0.11240280295E+04  0.15070732615E+04  0.80062800498E+02 0.  0.
        254    2    1    2    0    0 -0.23627189829E+03  0.97241778189E+03  0.13344670906E+04  0.18950902253E+04  0.89952420408E+03 0.  0.
         23    2    4    4    0    0  0.74744111862E+02  0.60344889332E+03  0.12545410459E+04  0.13973285074E+04  0.94427076117E+02 0.  0.
         23    2    4    4    0    0 -0.31101601016E+03  0.36896888857E+03  0.79926044790E+02  0.49776171797E+03  0.92247254305E+02 0.  0.
          4    1    3    3  502    0  0.16582259152E+03 -0.59939792811E+03  0.64700083446E+03  0.89743249766E+03  0.00000000000E+00 0. -1.
         -3    1    3    3    0  502  0.70449306775E+02 -0.37301985379E+03  0.47702719506E+03  0.60964076387E+03  0.00000000000E+00 0.  1.
         13    1    5    5    0    0  0.88939204619E+02  0.57950804593E+03  0.11769355488E+04  0.13148829010E+04  0.00000000000E+00 0.  1.
        -13    1    5    5    0    0 -0.14195092758E+02  0.23940847385E+02  0.77605497061E+02  0.82445606348E+02  0.00000000000E+00 0. -1.
          2    1    6    6  503    0 -0.73976749046E+02  0.44626843954E+02  0.36158523959E+02  0.93656571876E+02  0.00000000000E+00 0. -1.
         -2    1    6    6    0  503 -0.23703926111E+03  0.32434204462E+03  0.43767520831E+02  0.40410514609E+03  0.00000000000E+00 0.  1.
<mgrwt>
<rscale>  0 0.23517054E+04</rscale>
<asrwt>0</asrwt>
<pdfrwt beam="1">  1        2 0.45081988E+00 0.23517054E+04</pdfrwt>
<pdfrwt beam="2">  1       -1 0.72589876E-01 0.23517054E+04</pdfrwt>
<totfact> 0.37841371E+00</totfact>
</mgrwt>
</event>
<event>
12    7  0.2492439E-007  0.1748919E+04  0.7818608E-02  0.8733945E-01
         -1   -1    0    0    0  501 -0.00000000000E+00  0.00000000000E+00  0.40434945680E+03  0.40434945680E+03  0.00000000000E+00 0.  1.
          2   -1    0    0  501    0  0.00000000000E+00 -0.00000000000E+00 -0.18911359775E+04  0.18911359775E+04  0.00000000000E+00 0. -1.
         24    2    1    2    0    0  0.27124359502E+03  0.83061293754E+02 -0.13011196486E+04  0.13350060075E+04  0.94108626269E+02 0.  0.
        254    2    1    2    0    0 -0.27124359502E+03 -0.83061293754E+02 -0.18566687204E+03  0.96047942682E+03  0.89865247766E+03 0.  0.
         23    2    4    4    0    0 -0.42358271446E+03  0.83712155201E+02 -0.42981535739E+03  0.61594413734E+03  0.90641590673E+02 0.  0.
         23    2    4    4    0    0  0.15233911945E+03 -0.16677344896E+03  0.24414848534E+03  0.34453528948E+03  0.89863742448E+02 0.  0.
          4    1    3    3  502    0  0.18370201332E+03  0.53035403667E+02 -0.10523483532E+04  0.10695775990E+04  0.00000000000E+00 0. -1.
         -3    1    3    3    0  502  0.87541581691E+02  0.30025890088E+02 -0.24877129543E+03  0.26542840848E+03  0.00000000000E+00 0.  1.
         13    1    5    5    0    0 -0.36814666442E+03  0.42158909492E+02 -0.34360141261E+03  0.50534272619E+03  0.00000000000E+00 0. -1.
        -13    1    5    5    0    0 -0.55436050049E+02  0.41553245709E+02 -0.86213944779E+02  0.11060141115E+03  0.00000000000E+00 0.  1.
          4    1    6    6  503    0  0.14194963821E+03 -0.14188945663E+03  0.24602191624E+03  0.31750448967E+03  0.00000000000E+00 0. -1.
         -4    1    6    6    0  503  0.10389481243E+02 -0.24883992327E+02 -0.18734309010E+01  0.27030799803E+02  0.00000000000E+00 0.  1.
<mgrwt>
<rscale>  0 0.17489194E+04</rscale>
<asrwt>0</asrwt>
<pdfrwt beam="1">  1        2 0.29094400E+00 0.17489194E+04</pdfrwt>
<pdfrwt beam="2">  1       -1 0.62207608E-01 0.17489194E+04</pdfrwt>
<totfact> 0.21731959E+01</totfact>
</mgrwt>
</event>
<event>
12    7  0.2492439E-007  0.2710780E+04  0.7818608E-02  0.8331516E-01
         -1   -1    0    0    0  501 -0.00000000000E+00  0.00000000000E+00  0.88443250921E+03  0.88443250921E+03  0.00000000000E+00 0.  1.
          2   -1    0    0  501    0  0.00000000000E+00 -0.00000000000E+00 -0.20771302584E+04  0.20771302584E+04  0.00000000000E+00 0. -1.
         24    2    1    2    0    0 -0.11860374294E+04  0.17959109261E+03 -0.65599420123E+03  0.13694707049E+04  0.78637619308E+02 0.  0.
        254    2    1    2    0    0  0.11860374294E+04 -0.17959109261E+03 -0.53670354797E+03  0.15920920627E+04  0.89875953020E+03 0.  0.
         23    2    4    4    0    0  0.46719313243E+03 -0.28702059333E+03  0.16199382362E+03  0.57974272001E+03  0.95965506969E+02 0.  0.
         23    2    4    4    0    0  0.71884429697E+03  0.10742950072E+03 -0.69869737159E+03  0.10123493427E+04  0.91623979382E+02 0.  0.
          4    1    3    3  502    0 -0.87681164806E+03  0.11681237613E+03 -0.44786976355E+03  0.99147925974E+03  0.00000000000E+00 0. -1.
         -3    1    3    3    0  502 -0.30922578134E+03  0.62778716487E+02 -0.20812443768E+03  0.37799144521E+03  0.00000000000E+00 0.  1.
         13    1    5    5    0    0  0.35374212212E+03 -0.23048411083E+03  0.82702135724E+02  0.43022791351E+03  0.00000000000E+00 0.  1.
        -13    1    5    5    0    0  0.11345101031E+03 -0.56536482498E+02  0.79291687899E+02  0.14951480650E+03  0.00000000000E+00 0. -1.
          4    1    6    6  503    0  0.15876603643E+03 -0.17611375564E+01 -0.11483229640E+03  0.19594951448E+03  0.00000000000E+00 0. -1.
         -4    1    6    6    0  503  0.56007826054E+03  0.10919063827E+03 -0.58386507519E+03  0.81639982818E+03  0.00000000000E+00 0.  1.
<mgrwt>
<rscale>  0 0.27107796E+04</rscale>
<asrwt>0</asrwt>
<pdfrwt beam="1">  1        2 0.31955850E+00 0.27107796E+04</pdfrwt>
<pdfrwt beam="2">  1       -1 0.13606654E+00 0.27107796E+04</pdfrwt>
<totfact> 0.27235499E+00</totfact>
</mgrwt>
</event>
<event>
12    7  0.2492439E-007  0.1597199E+04  0.7818608E-02  0.8822271E-01
         -1   -1    0    0    0  501 -0.00000000000E+00  0.00000000000E+00  0.44436734633E+03  0.44436734633E+03  0.00000000000E+00 0.  1.
          2   -1    0    0  501    0  0.00000000000E+00 -0.00000000000E+00 -0.14352110595E+04  0.14352110595E+04  0.00000000000E+00 0. -1.
         24    2    1    2    0    0  0.30617926469E+03 -0.42646447735E+03 -0.18131691282E+03  0.56078113505E+03  0.77343170283E+02 0.  0.
        254    2    1    2    0    0 -0.30617926469E+03  0.42646447735E+03 -0.80952680032E+03  0.13187972707E+04  0.89904110492E+03 0.  0.
         23    2    4    4    0    0 -0.61575155845E+03  0.29572835745E+03 -0.49713590010E+03  0.84968959084E+03  0.90681059100E+02 0.  0.
         23    2    4    4    0    0  0.30957229376E+03  0.13073611990E+03 -0.31239090022E+03  0.46910767991E+03  0.97708764711E+02 0.  0.
          2    1    3    3  502    0  0.14015445618E+03 -0.19383421455E+03 -0.12348169629E+03  0.26918897384E+03  0.00000000000E+00 0. -1.
         -1    1    3    3    0  502  0.16602480852E+03 -0.23263026279E+03 -0.57835216531E+02  0.29159216121E+03  0.00000000000E+00 0.  1.
         13    1    5    5    0    0 -0.48164304101E+03  0.21425827600E+03 -0.33800780077E+03  0.62620755438E+03  0.00000000000E+00 0.  1.
        -13    1    5    5    0    0 -0.13410851744E+03  0.81470081451E+02 -0.15912809933E+03  0.22348203646E+03  0.00000000000E+00 0. -1.
          4    1    6    6  503    0  0.79875549022E+01  0.26072229796E+02 -0.90253632112E+01  0.28723150610E+02  0.00000000000E+00 0. -1.
         -4    1    6    6    0  503  0.30158473886E+03  0.10466389010E+03 -0.30336553701E+03  0.44038452930E+03  0.00000000000E+00 0.  1.
<mgrwt>
<rscale>  0 0.15971987E+04</rscale>
<asrwt>0</asrwt>
<pdfrwt beam="1">  1        2 0.22080170E+00 0.15971987E+04</pdfrwt>
<pdfrwt beam="2">  1       -1 0.68364207E-01 0.15971987E+04</pdfrwt>
<totfact> 0.32705802E+01</totfact>
</mgrwt>
</event>
<event>
12    7  0.2492439E-007  0.1149726E+04  0.7818608E-02  0.9158037E-01
         -3   -1    0    0    0  501 -0.00000000000E+00  0.00000000000E+00  0.61677157424E+03  0.61677157424E+03  0.00000000000E+00 0.  1.
          2   -1    0    0  501    0  0.00000000000E+00 -0.00000000000E+00 -0.53580179829E+03  0.53580179829E+03  0.00000000000E+00 0. -1.
         24    2    1    2    0    0 -0.50846713871E+01  0.71000442364E+02 -0.18307594630E+03  0.21172355849E+03  0.79013583686E+02 0.  0.
        254    2    1    2    0    0  0.50846713871E+01 -0.71000442364E+02  0.26404572226E+03  0.94084981404E+03  0.90022847790E+03 0.  0.
         23    2    4    4    0    0  0.16001928827E+03  0.27644946790E+03 -0.15552676858E+03  0.36733421630E+03  0.93356144952E+02 0.  0.
         23    2    4    4    0    0 -0.15493461689E+03 -0.34744991026E+03  0.41957249084E+03  0.57351559773E+03  0.90293355915E+02 0.  0.
          4    1    3    3  502    0  0.27425980582E+01  0.51788043860E+01 -0.12025828237E+03  0.12040098146E+03  0.00000000000E+00 0. -1.
         -3    1    3    3    0  502 -0.78272694453E+01  0.65821637978E+02 -0.62817663935E+02  0.91322577029E+02  0.00000000000E+00 0.  1.
         13    1    5    5    0    0  0.13584160987E+03  0.16626902627E+03 -0.13221360417E+03  0.25214830794E+03  0.00000000000E+00 0. -1.
        -13    1    5    5    0    0  0.24177678399E+02  0.11018044163E+03 -0.23313164411E+02  0.11518590836E+03  0.00000000000E+00 0.  1.
          4    1    6    6  503    0 -0.14843393884E+03 -0.34203537083E+03  0.42345088301E+03  0.56420871973E+03  0.00000000000E+00 0. -1.
         -4    1    6    6    0  503 -0.65006780489E+01 -0.54145394363E+01 -0.38783921690E+01  0.93068780060E+01  0.00000000000E+00 0.  1.
<mgrwt>
<rscale>  0 0.11497257E+04</rscale>
<asrwt>0</asrwt>
<pdfrwt beam="1">  1        2 0.82431046E-01 0.11497257E+04</pdfrwt>
<pdfrwt beam="2">  1       -3 0.94887934E-01 0.11497257E+04</pdfrwt>
<totfact> 0.34975400E+01</totfact>
</mgrwt>
</event>
<event>
12    7  0.2492439E-007  0.1790197E+04  0.7818608E-02  0.8711530E-01
         -1   -1    0    0    0  501 -0.00000000000E+00  0.00000000000E+00  0.57857640778E+03  0.57857640778E+03  0.00000000000E+00 0.  1.
          2   -1    0    0  501    0  0.00000000000E+00 -0.00000000000E+00 -0.13847806978E+04  0.13847806978E+04  0.00000000000E+00 0. -1.
         24    2    1    2    0    0 -0.36406817570E+03  0.50336063218E+03 -0.38278902665E+02  0.62765461544E+03  0.81039985900E+02 0.  0.
        254    2    1    2    0    0  0.36406817570E+03 -0.50336063218E+03 -0.76792538735E+03  0.13357024901E+04  0.89915192211E+03 0.  0.
         23    2    4    4    0    0  0.15642251715E+03  0.23681238958E+03 -0.10248202997E+03  0.31489627952E+03  0.90049923159E+02 0.  0.
         23    2    4    4    0    0  0.20764565856E+03 -0.74017302175E+03 -0.66544335738E+03  0.10208062106E+04  0.90871536271E+02 0.  0.
          4    1    3    3  502    0 -0.13659408201E+03  0.17766192097E+03 -0.52347859014E+02  0.23013474259E+03  0.00000000000E+00 0. -1.
         -3    1    3    3    0  502 -0.22747409370E+03  0.32569871120E+03  0.14068956349E+02  0.39751987285E+03  0.00000000000E+00 0.  1.
         13    1    5    5    0    0  0.62779075523E+02  0.10181497758E+03  0.30028826313E+01  0.11965165810E+03  0.00000000000E+00 0. -1.
        -13    1    5    5    0    0  0.93643441622E+02  0.13499741200E+03 -0.10548491260E+03  0.19524462141E+03  0.00000000000E+00 0.  1.
          1    1    6    6  503    0  0.31515903665E+02 -0.87738966139E+02 -0.12242185772E+03  0.15387816483E+03  0.00000000000E+00 0. -1.
         -1    1    6    6    0  503  0.17612975489E+03 -0.65243405561E+03 -0.54302149966E+03  0.86692804579E+03  0.00000000000E+00 0.  1.
<mgrwt>
<rscale>  0 0.17901971E+04</rscale>
<asrwt>0</asrwt>
<pdfrwt beam="1">  1        2 0.21304318E+00 0.17901971E+04</pdfrwt>
<pdfrwt beam="2">  1       -1 0.89011756E-01 0.17901971E+04</pdfrwt>
<totfact> 0.19679562E+01</totfact>
</mgrwt>
</event>
<event>
12    7  0.2492439E-007  0.1391167E+04  0.7818608E-02  0.8960237E-01
          2   -1    0    0  501    0  0.00000000000E+00  0.00000000000E+00  0.77695641864E+03  0.77695641864E+03  0.00000000000E+00 0. -1.
         -1   -1    0    0    0  501 -0.00000000000E+00 -0.00000000000E+00 -0.62273278955E+03  0.62273278955E+03  0.00000000000E+00 0.  1.
         24    2    1    2    0    0 -0.30748461344E+03  0.48672066770E+02 -0.20504453774E+03  0.38115585008E+03  0.79503220137E+02 0.  0.
        254    2    1    2    0    0  0.30748461344E+03 -0.48672066770E+02  0.35926816683E+03  0.10185333581E+04  0.90078900322E+03 0.  0.
         23    2    4    4    0    0  0.15348118892E+03 -0.26073260342E+02 -0.29222780027E+03  0.34308253276E+03  0.89845683110E+02 0.  0.
         23    2    4    4    0    0  0.15400342451E+03 -0.22598806428E+02  0.65149596710E+03  0.67545082536E+03  0.86942863509E+02 0.  0.
          4    1    3    3  502    0 -0.18282157028E+03  0.36812816466E+02 -0.76127260517E+02  0.20143055828E+03  0.00000000000E+00 0. -1.
         -3    1    3    3    0  502 -0.12466304316E+03  0.11859250304E+02 -0.12891727722E+03  0.17972529180E+03  0.00000000000E+00 0.  1.
         13    1    5    5    0    0  0.62927487090E+02 -0.54171279551E+02 -0.11181370249E+03  0.13927203676E+03  0.00000000000E+00 0.  1.
        -13    1    5    5    0    0  0.90553701834E+02  0.28098019209E+02 -0.18041409778E+03  0.20381049599E+03  0.00000000000E+00 0. -1.
          4    1    6    6  503    0  0.88551194009E+02 -0.46624933252E+02  0.48003808472E+03  0.49035880857E+03  0.00000000000E+00 0. -1.
         -4    1    6    6    0  503  0.65452230504E+02  0.24026126823E+02  0.17145788238E+03  0.18509201679E+03  0.00000000000E+00 0.  1.
<mgrwt>
<rscale>  0 0.13911668E+04</rscale>
<asrwt>0</asrwt>
<pdfrwt beam="1">  1        2 0.11953176E+00 0.13911668E+04</pdfrwt>
<pdfrwt beam="2">  1       -1 0.95805045E-01 0.13911668E+04</pdfrwt>
<totfact> 0.41851872E+01</totfact>
</mgrwt>
</event>
<event>
12    7  0.2492439E-007  0.2469106E+04  0.7818608E-02  0.8414075E-01
         -1   -1    0    0    0  501 -0.00000000000E+00  0.00000000000E+00  0.11154211074E+04  0.11154211074E+04  0.00000000000E+00 0.  1.
          2   -1    0    0  501    0  0.00000000000E+00 -0.00000000000E+00 -0.13664085418E+04  0.13664085418E+04  0.00000000000E+00 0. -1.
         24    2    1    2    0    0  0.77865579861E+03  0.54911627555E+03  0.37715999990E+03  0.10277751974E+04  0.78985151353E+02 0.  0.
        254    2    1    2    0    0 -0.77865579861E+03 -0.54911627555E+03 -0.62814743431E+03  0.14540544518E+04  0.90103918490E+03 0.  0.
         23    2    4    4    0    0 -0.81078651809E+02 -0.26689148039E+03 -0.63121137194E+03  0.69659249577E+03  0.94913112979E+02 0.  0.
         23    2    4    4    0    0 -0.69757714680E+03 -0.28222479516E+03  0.30639376306E+01  0.75746195600E+03  0.86455285178E+02 0.  0.
          4    1    3    3  502    0  0.22458991301E+03  0.16701589887E+03  0.73338706011E+02  0.28933286246E+03  0.00000000000E+00 0. -1.
         -3    1    3    3    0  502  0.55406588560E+03  0.38210037668E+03  0.30382129389E+03  0.73844233497E+03  0.00000000000E+00 0.  1.
         13    1    5    5    0    0 -0.69569166764E+02 -0.22220216521E+03 -0.41829083095E+03  0.47872840990E+03  0.00000000000E+00 0.  1.
        -13    1    5    5    0    0 -0.11509485045E+02 -0.44689315179E+02 -0.21292054099E+03  0.21786408588E+03  0.00000000000E+00 0. -1.
          2    1    6    6  503    0 -0.83165418929E+02 -0.64598764866E+02 -0.73604555593E+01  0.10556355258E+03  0.00000000000E+00 0. -1.
         -2    1    6    6    0  503 -0.61441172787E+03 -0.21762603030E+03  0.10424393190E+02  0.65189840342E+03  0.00000000000E+00 0.  1.
<mgrwt>
<rscale>  0 0.24691059E+04</rscale>
<asrwt>0</asrwt>
<pdfrwt beam="1">  1        2 0.21021670E+00 0.24691059E+04</pdfrwt>
<pdfrwt beam="2">  1       -1 0.17160325E+00 0.24691059E+04</pdfrwt>
<totfact> 0.36910253E+00</totfact>
</mgrwt>
</event>
<event>
12    7  0.2492439E-007  0.2816009E+04  0.7818608E-02  0.8298315E-01
         -1   -1    0    0    0  501 -0.00000000000E+00  0.00000000000E+00  0.59151197676E+03  0.59151197676E+03  0.00000000000E+00 0.  1.
          2   -1    0    0  501    0  0.00000000000E+00 -0.00000000000E+00 -0.33515409498E+04  0.33515409498E+04  0.00000000000E+00 0. -1.
         24    2    1    2    0    0  0.80162342097E+03  0.17476049808E+03 -0.25845006624E+04  0.27127667110E+04  0.79487190212E+02 0.  0.
        254    2    1    2    0    0 -0.80162342097E+03 -0.17476049808E+03 -0.17552831055E+03  0.12302862155E+04  0.89980700349E+03 0.  0.
         23    2    4    4    0    0 -0.98636945504E+02  0.29495959716E+03 -0.19803990700E+03  0.37964108419E+03  0.90427523836E+02 0.  0.
         23    2    4    4    0    0 -0.70298647547E+03 -0.46972009524E+03  0.22511596458E+02  0.85064513132E+03  0.90903327196E+02 0.  0.
          4    1    3    3  502    0  0.62658091492E+03  0.10655645059E+03 -0.20452901222E+04  0.21417678689E+04  0.00000000000E+00 0. -1.
         -3    1    3    3    0  502  0.17504250605E+03  0.68204047498E+02 -0.53921054024E+03  0.57099884214E+03  0.00000000000E+00 0.  1.
         13    1    5    5    0    0 -0.99036779593E+01  0.16977551895E+03 -0.11336633492E+03  0.20438624114E+03  0.00000000000E+00 0.  1.
        -13    1    5    5    0    0 -0.88733267545E+02  0.12518407820E+03 -0.84673572086E+02  0.17525484306E+03  0.00000000000E+00 0. -1.
          3    1    6    6  503    0 -0.16243144046E+03 -0.15492736519E+03  0.16596978898E+02  0.22508203181E+03  0.00000000000E+00 0. -1.
         -3    1    6    6    0  503 -0.54055503501E+03 -0.31479273005E+03  0.59146175599E+01  0.62556309951E+03  0.00000000000E+00 0.  1.
<mgrwt>
<rscale>  0 0.28160090E+04</rscale>
<asrwt>0</asrwt>
<pdfrwt beam="1">  1        2 0.51562169E+00 0.28160090E+04</pdfrwt>
<pdfrwt beam="2">  1       -1 0.91001842E-01 0.28160090E+04</pdfrwt>
<totfact> 0.11968726E+00</totfact>
</mgrwt>
</event>
<event>
12    7  0.2698240E-007  0.1873724E+04  0.7818608E-02  0.8668047E-01
          2   -1    0    0  501    0  0.00000000000E+00  0.00000000000E+00  0.22763277056E+04  0.22763277056E+04  0.00000000000E+00 0. -1.
         -1   -1    0    0    0  501 -0.00000000000E+00 -0.00000000000E+00 -0.38558166437E+03  0.38558166437E+03  0.00000000000E+00 0.  1.
         24    2    1    2    0    0 -0.56941797122E+03 -0.15311852029E+02  0.10817899795E+03  0.58522941700E+03  0.79495258702E+02 0.  0.
        254    2    1    2    0    0  0.56941797122E+03  0.15311852029E+02  0.17825670433E+04  0.20766799530E+04  0.90032387757E+03 0.  0.
         23    2    4    4    0    0  0.72542216878E+03 -0.11609365973E+03  0.89905108245E+03  0.11646942163E+04  0.92220973324E+02 0.  0.
         23    2    4    4    0    0 -0.15600419755E+03  0.13140551175E+03  0.88351596085E+03  0.91198573666E+03  0.97533648624E+02 0.  0.
          4    1    3    3  502    0 -0.54118454908E+02  0.12178719438E+02  0.30737476396E+02  0.63418615752E+02  0.00000000000E+00 0. -1.
         -3    1    3    3    0  502 -0.51529951631E+03 -0.27490571467E+02  0.77441521557E+02  0.52181080124E+03  0.00000000000E+00 0.  1.
         13    1    5    5    0    0  0.48793206651E+03 -0.64595901954E+02  0.66474326053E+03  0.82712389308E+03  0.00000000000E+00 0. -1.
        -13    1    5    5    0    0  0.23749010226E+03 -0.51497757771E+02  0.23430782192E+03  0.33757032325E+03  0.00000000000E+00 0.  1.
          3    1    6    6  503    0 -0.64019401431E+02  0.13455226580E+02  0.15443147845E+03  0.16771585620E+03  0.00000000000E+00 0. -1.
         -3    1    6    6    0  503 -0.91984796122E+02  0.11795028517E+03  0.72908448240E+03  0.74426988046E+03  0.00000000000E+00 0.  1.
<mgrwt>
<rscale>  0 0.18737238E+04</rscale>
<asrwt>0</asrwt>
<pdfrwt beam="1">  1        2 0.35020425E+00 0.18737238E+04</pdfrwt>
<pdfrwt beam="2">  1       -1 0.59320258E-01 0.18737238E+04</pdfrwt>
<totfact> 0.14399074E+01</totfact>
</mgrwt>
</event>
<event>
12    7  0.2492439E-007  0.2465645E+04  0.7818608E-02  0.8415328E-01
         -1   -1    0    0    0  501 -0.00000000000E+00  0.00000000000E+00  0.15214443403E+04  0.15214443403E+04  0.00000000000E+00 0.  1.
          2   -1    0    0  501    0  0.00000000000E+00 -0.00000000000E+00 -0.99895270831E+03  0.99895270831E+03  0.00000000000E+00 0. -1.
         24    2    1    2    0    0 -0.92448990714E+03 -0.50917928081E+03  0.70395811545E+02  0.10607919315E+04  0.79867535127E+02 0.  0.
        254    2    1    2    0    0  0.92448990714E+03  0.50917928081E+03  0.45209582045E+03  0.14596051171E+04  0.90117220260E+03 0.  0.
         23    2    4    4    0    0  0.76469924186E+03 -0.70371967472E+02  0.18375466817E+03  0.79489745660E+03  0.91537118864E+02 0.  0.
         23    2    4    4    0    0  0.15979066528E+03  0.57955124828E+03  0.26834115228E+03  0.66470766055E+03  0.91741996331E+02 0.  0.
          2    1    3    3  502    0 -0.60591672303E+03 -0.36636159926E+03  0.22710842659E+02  0.70842902187E+03  0.00000000000E+00 0. -1.
         -1    1    3    3    0  502 -0.31857318411E+03 -0.14281768155E+03  0.47684968886E+02  0.35236290959E+03  0.00000000000E+00 0.  1.
         13    1    5    5    0    0  0.50553309128E+03 -0.89790699601E+02  0.12524221062E+03  0.52849946777E+03  0.00000000000E+00 0. -1.
        -13    1    5    5    0    0  0.25916615058E+03  0.19418732129E+02  0.58512457548E+02  0.26639798883E+03  0.00000000000E+00 0.  1.
          4    1    6    6  503    0  0.12380930483E+03  0.42795806043E+03  0.15371669153E+03  0.47128087878E+03  0.00000000000E+00 0. -1.
         -4    1    6    6    0  503  0.35981360452E+02  0.15159318785E+03  0.11462446075E+03  0.19342678177E+03  0.00000000000E+00 0.  1.
<mgrwt>
<rscale>  0 0.24656447E+04</rscale>
<asrwt>0</asrwt>
<pdfrwt beam="1">  1        2 0.15368503E+00 0.24656447E+04</pdfrwt>
<pdfrwt beam="2">  1       -1 0.23406836E+00 0.24656447E+04</pdfrwt>
<totfact> 0.22821097E+00</totfact>
</mgrwt>
</event>
<event>
12    7  0.2492439E-007  0.3967391E+04  0.7818608E-02  0.8011157E-01
         -1   -1    0    0    0  501 -0.00000000000E+00  0.00000000000E+00  0.18995463896E+04  0.18995463896E+04  0.00000000000E+00 0.  1.
          2   -1    0    0  501    0  0.00000000000E+00 -0.00000000000E+00 -0.20715722166E+04  0.20715722166E+04  0.00000000000E+00 0. -1.
         24    2    1    2    0    0 -0.35544057286E+03 -0.17102098054E+04 -0.77296185626E+03  0.19119268939E+04  0.82697262717E+02 0.  0.
        254    2    1    2    0    0  0.35544057286E+03  0.17102098054E+04  0.60093602934E+03  0.20591917123E+04  0.90994000752E+03 0.  0.
         23    2    4    4    0    0 -0.13666982661E+03  0.85123650997E+03 -0.53639058603E+02  0.86880532805E+03  0.93076914605E+02 0.  0.
         23    2    4    4    0    0  0.49211039946E+03  0.85897329540E+03  0.65457508794E+03  0.11903863842E+04  0.92430679424E+02 0.  0.
          2    1    3    3  502    0 -0.85111194016E+02 -0.60272757172E+03 -0.26643381836E+03  0.66446325755E+03  0.00000000000E+00 0. -1.
         -1    1    3    3    0  502 -0.27032937884E+03 -0.11074822336E+04 -0.50652803789E+03  0.12474636364E+04  0.00000000000E+00 0.  1.
         13    1    5    5    0    0 -0.14102300959E+03  0.62412042830E+03 -0.32824659996E+02  0.64069591583E+03  0.00000000000E+00 0. -1.
        -13    1    5    5    0    0  0.43531829856E+01  0.22711608167E+03 -0.20814398607E+02  0.22810941222E+03  0.00000000000E+00 0.  1.
          4    1    6    6  503    0  0.26490541261E+02  0.83363072624E+02  0.36597874020E+02  0.94818537409E+02  0.00000000000E+00 0. -1.
         -4    1    6    6    0  503  0.46561985820E+03  0.77561022277E+03  0.61797721392E+03  0.10955678468E+04  0.00000000000E+00 0.  1.
<mgrwt>
<rscale>  0 0.39673908E+04</rscale>
<asrwt>0</asrwt>
<pdfrwt beam="1">  1        2 0.31870342E+00 0.39673908E+04</pdfrwt>
<pdfrwt beam="2">  1       -1 0.29223791E+00 0.39673908E+04</pdfrwt>
<totfact> 0.20334631E-01</totfact>
</mgrwt>
</event>
<event>
12    7  0.2492439E-007  0.1135351E+04  0.7818608E-02  0.9171405E-01
         -1   -1    0    0    0  501 -0.00000000000E+00  0.00000000000E+00  0.34017411535E+03  0.34017411535E+03  0.00000000000E+00 0.  1.
          2   -1    0    0  501    0  0.00000000000E+00 -0.00000000000E+00 -0.94732519552E+03  0.94732519552E+03  0.00000000000E+00 0. -1.
         24    2    1    2    0    0 -0.67607922091E+02 -0.13381854984E+03 -0.26254005299E+03  0.31249039427E+03  0.79023614659E+02 0.  0.
        254    2    1    2    0    0  0.67607922091E+02  0.13381854984E+03 -0.34461102718E+03  0.97500891660E+03  0.89967071309E+03 0.  0.
         23    2    4    4    0    0 -0.22686670896E+02  0.47715337100E+03 -0.36403930079E+03  0.60796021026E+03  0.94345006453E+02 0.  0.
         23    2    4    4    0    0  0.90294592988E+02 -0.34333482115E+03  0.19428273612E+02  0.36704870635E+03  0.91188716839E+02 0.  0.
          4    1    3    3  502    0 -0.38404499866E+02 -0.25752596261E+02 -0.13547438898E+03  0.14314821652E+03  0.00000000000E+00 0. -1.
         -3    1    3    3    0  502 -0.29203422225E+02 -0.10806595358E+03 -0.12706566402E+03  0.16934217775E+03  0.00000000000E+00 0.  1.
         13    1    5    5    0    0 -0.40583792790E+02  0.29159088317E+03 -0.26863025856E+03  0.39854046619E+03  0.00000000000E+00 0. -1.
        -13    1    5    5    0    0  0.17897121893E+02  0.18556248783E+03 -0.95409042236E+02  0.20941974406E+03  0.00000000000E+00 0.  1.
          3    1    6    6  503    0  0.49225898914E+02 -0.88952572015E+02 -0.27078651537E+02  0.10520932735E+03  0.00000000000E+00 0. -1.
         -3    1    6    6    0  503  0.41068694074E+02 -0.25438224914E+03  0.46506925149E+02  0.26183937900E+03  0.00000000000E+00 0.  1.
<mgrwt>
<rscale>  0 0.11353511E+04</rscale>
<asrwt>0</asrwt>
<pdfrwt beam="1">  1        2 0.14574234E+00 0.11353511E+04</pdfrwt>
<pdfrwt beam="2">  1       -1 0.52334480E-01 0.11353511E+04</pdfrwt>
<totfact> 0.11329735E+02</totfact>
</mgrwt>
</event>
<event>
12    7  0.2492439E-007  0.2492802E+04  0.7818608E-02  0.8405554E-01
          2   -1    0    0  501    0  0.00000000000E+00  0.00000000000E+00  0.24142533191E+04  0.24142533191E+04  0.00000000000E+00 0. -1.
         -1   -1    0    0    0  501 -0.00000000000E+00 -0.00000000000E+00 -0.64347646207E+03  0.64347646207E+03  0.00000000000E+00 0.  1.
         24    2    1    2    0    0  0.23831987122E+03  0.15138438668E+02  0.20659358643E+04  0.20812181548E+04  0.79702442026E+02 0.  0.
        254    2    1    2    0    0 -0.23831987122E+03 -0.15138438668E+02 -0.29515900725E+03  0.97651162635E+03  0.89968360188E+03 0.  0.
         23    2    4    4    0    0  0.47261511727E+02  0.40102299467E+03 -0.17836567186E+03  0.45046582262E+03  0.89733225223E+02 0.  0.
         23    2    4    4    0    0 -0.28558138295E+03 -0.41616143334E+03 -0.11679333539E+03  0.52604580373E+03  0.91304104743E+02 0.  0.
          4    1    3    3  502    0  0.47623981265E+02  0.31833227207E+02  0.62567168668E+03  0.62828851451E+03  0.00000000000E+00 0. -1.
         -3    1    3    3    0  502  0.19069588996E+03 -0.16694788539E+02  0.14402641776E+04  0.14529296403E+04  0.00000000000E+00 0.  1.
         13    1    5    5    0    0  0.68351324557E+02  0.19768041439E+03 -0.93758366057E+02  0.22921623199E+03  0.00000000000E+00 0. -1.
        -13    1    5    5    0    0 -0.21089812830E+02  0.20334258028E+03 -0.84607305804E+02  0.22124959063E+03  0.00000000000E+00 0.  1.
          1    1    6    6  503    0 -0.22011292712E+03 -0.25295347427E+03 -0.55834158403E+02  0.33993030768E+03  0.00000000000E+00 0. -1.
         -1    1    6    6    0  503 -0.65468455824E+02 -0.16320795907E+03 -0.60959176990E+02  0.18611549605E+03  0.00000000000E+00 0.  1.
<mgrwt>
<rscale>  0 0.24928018E+04</rscale>
<asrwt>0</asrwt>
<pdfrwt beam="1">  1        2 0.37142358E+00 0.24928018E+04</pdfrwt>
<pdfrwt beam="2">  1       -1 0.98996380E-01 0.24928018E+04</pdfrwt>
<totfact> 0.38617531E+00</totfact>
</mgrwt>
</event>
<event>
12    7  0.2492439E-007  0.5304724E+04  0.7818608E-02  0.7783146E-01
          2   -1    0    0  501    0  0.00000000000E+00  0.00000000000E+00  0.24405527363E+04  0.24405527363E+04  0.00000000000E+00 0. -1.
         -1   -1    0    0    0  501 -0.00000000000E+00 -0.00000000000E+00 -0.28825533647E+04  0.28825533647E+04  0.00000000000E+00 0.  1.
         24    2    1    2    0    0 -0.15276770454E+04  0.19893865052E+04  0.37112505419E+03  0.25368443492E+04  0.79935122732E+02 0.  0.
        254    2    1    2    0    0  0.15276770454E+04 -0.19893865052E+04 -0.81312568259E+03  0.27862617519E+04  0.90034735099E+03 0.  0.
         23    2    4    4    0    0  0.16079250332E+04 -0.16571213819E+04 -0.72122629511E+03  0.24207938474E+04  0.92743171959E+02 0.  0.
         23    2    4    4    0    0 -0.80247987888E+02 -0.33226512337E+03 -0.91899387478E+02  0.36546790455E+03  0.91002417949E+02 0.  0.
          2    1    3    3  502    0 -0.42989527553E+03  0.52145083609E+03  0.73057649522E+02  0.67974873485E+03  0.00000000000E+00 0. -1.
         -1    1    3    3    0  502 -0.10977817698E+04  0.14679356692E+04  0.29806740466E+03  0.18570956143E+04  0.00000000000E+00 0.  1.
         13    1    5    5    0    0  0.76683433427E+03 -0.73615665514E+03 -0.35988539941E+03  0.11222651281E+04  0.00000000000E+00 0. -1.
        -13    1    5    5    0    0  0.84109069897E+03 -0.92096472673E+03 -0.36134089570E+03  0.12985287192E+04  0.00000000000E+00 0.  1.
          1    1    6    6  503    0  0.13068038316E+02 -0.38924675786E+02 -0.31552742262E+02  0.51783004496E+02  0.00000000000E+00 0. -1.
         -1    1    6    6    0  503 -0.93316026204E+02 -0.29334044758E+03 -0.60346645216E+02  0.31368490005E+03  0.00000000000E+00 0.  1.
<mgrwt>
<rscale>  0 0.53047237E+04</rscale>
<asrwt>0</asrwt>
<pdfrwt beam="1">  1        2 0.37546965E+00 0.53047237E+04</pdfrwt>
<pdfrwt beam="2">  1       -1 0.44346975E+00 0.53047237E+04</pdfrwt>
<totfact> 0.10970533E-02</totfact>
</mgrwt>
</event>
<event>
12    7  0.2492439E-007  0.1724914E+04  0.7818608E-02  0.8747281E-01
         -1   -1    0    0    0  501 -0.00000000000E+00  0.00000000000E+00  0.18603151548E+03  0.18603151548E+03  0.00000000000E+00 0.  1.
          2   -1    0    0  501    0  0.00000000000E+00 -0.00000000000E+00 -0.39984175367E+04  0.39984175367E+04  0.00000000000E+00 0. -1.
         24    2    1    2    0    0 -0.25504337097E+03 -0.20758247021E+03 -0.10488042654E+03  0.35460152363E+03  0.81269512602E+02 0.  0.
        254    2    1    2    0    0  0.25504337097E+03  0.20758247021E+03 -0.37075055947E+04  0.38298475286E+04  0.90221768676E+03 0.  0.
         23    2    4    4    0    0  0.33929043943E+03 -0.37155270341E+02 -0.33890522462E+04  0.34073845088E+04  0.89975257303E+02 0.  0.
         23    2    4    4    0    0 -0.84247068464E+02  0.24473774055E+03 -0.31845334847E+03  0.42246301974E+03  0.10034110672E+03 0.  0.
          4    1    3    3  502    0 -0.14969773633E+02 -0.37989184113E+02 -0.31704474770E+02  0.51695705360E+02  0.00000000000E+00 0. -1.
         -3    1    3    3    0  502 -0.24007359733E+03 -0.16959328609E+03 -0.73175951774E+02  0.30290581827E+03  0.00000000000E+00 0.  1.
         13    1    5    5    0    0  0.30507711929E+03 -0.29924763615E+02 -0.32310552838E+04  0.32455640168E+04  0.00000000000E+00 0. -1.
        -13    1    5    5    0    0  0.34213320136E+02 -0.72305067265E+01 -0.15799696241E+03  0.16182049201E+03  0.00000000000E+00 0.  1.
          4    1    6    6  503    0 -0.68320976014E+02  0.17244028597E+03 -0.28767968531E+03  0.34229082566E+03  0.00000000000E+00 0. -1.
         -4    1    6    6    0  503 -0.15926092450E+02  0.72297454579E+02 -0.30773663163E+02  0.80172194081E+02  0.00000000000E+00 0.  1.
<mgrwt>
<rscale>  0 0.17249135E+04</rscale>
<asrwt>0</asrwt>
<pdfrwt beam="1">  1        2 0.61514115E+00 0.17249135E+04</pdfrwt>
<pdfrwt beam="2">  1       -1 0.28620234E-01 0.17249135E+04</pdfrwt>
<totfact> 0.41800120E+00</totfact>
</mgrwt>
</event>
<event>
12    7  0.2492439E-007  0.2025007E+04  0.7818608E-02  0.8595018E-01
          2   -1    0    0  501    0  0.00000000000E+00  0.00000000000E+00  0.23937285153E+04  0.23937285153E+04  0.00000000000E+00 0. -1.
         -1   -1    0    0    0  501 -0.00000000000E+00 -0.00000000000E+00 -0.42827049867E+03  0.42827049867E+03  0.00000000000E+00 0.  1.
         24    2    1    2    0    0 -0.79384996866E+03 -0.25604714778E+02  0.57810093725E+03  0.98550820488E+03  0.78564330913E+02 0.  0.
        254    2    1    2    0    0  0.79384996866E+03  0.25604714778E+02  0.13873570794E+04  0.18364908091E+04  0.90392779133E+03 0.  0.
         23    2    4    4    0    0 -0.16887168673E+03  0.10637200546E+03  0.37217528147E+03  0.43214428456E+03  0.91660200804E+02 0.  0.
         23    2    4    4    0    0  0.96272165539E+03 -0.80767290679E+02  0.10151817979E+04  0.14043465245E+04  0.90767489269E+02 0.  0.
          2    1    3    3  502    0 -0.52461665159E+03 -0.24356583928E+02  0.42632599491E+03  0.67643900556E+03  0.00000000000E+00 0. -1.
         -1    1    3    3    0  502 -0.26923331707E+03 -0.12481308501E+01  0.15177494233E+03  0.30906919932E+03  0.00000000000E+00 0.  1.
         13    1    5    5    0    0 -0.10609982580E+03  0.10047865903E+03  0.19217460496E+03  0.24142123508E+03  0.00000000000E+00 0. -1.
        -13    1    5    5    0    0 -0.62771860937E+02  0.58933464238E+01  0.18000067652E+03  0.19072304948E+03  0.00000000000E+00 0.  1.
          4    1    6    6  503    0  0.33564828714E+03 -0.71044424289E+02  0.36978597762E+03  0.50442913490E+03  0.00000000000E+00 0. -1.
         -4    1    6    6    0  503  0.62707336825E+03 -0.97228663905E+01  0.64539582028E+03  0.89991738962E+03  0.00000000000E+00 0.  1.
<mgrwt>
<rscale>  0 0.20250070E+04</rscale>
<asrwt>0</asrwt>
<pdfrwt beam="1">  1        2 0.36826592E+00 0.20250070E+04</pdfrwt>
<pdfrwt beam="2">  1       -1 0.65887771E-01 0.20250070E+04</pdfrwt>
<totfact> 0.98802792E+00</totfact>
</mgrwt>
</event>
<event>
12    7  0.2492439E-007  0.4563240E+04  0.7818608E-02  0.7899658E-01
         -1   -1    0    0    0  501 -0.00000000000E+00  0.00000000000E+00  0.31286878109E+04  0.31286878109E+04  0.00000000000E+00 0.  1.
          2   -1    0    0  501    0  0.00000000000E+00 -0.00000000000E+00 -0.16638892567E+04  0.16638892567E+04  0.00000000000E+00 0. -1.
         24    2    1    2    0    0  0.51419950178E+03  0.20183616758E+04  0.14224052064E+04  0.25234413289E+04  0.79590119595E+02 0.  0.
        254    2    1    2    0    0 -0.51419950178E+03 -0.20183616758E+04  0.42393347873E+02  0.22691357388E+04  0.89944139490E+03 0.  0.
         23    2    4    4    0    0 -0.43941846750E+03 -0.78759996688E+03 -0.35011422258E+03  0.97181500985E+03  0.91881157558E+02 0.  0.
         23    2    4    4    0    0 -0.74781034278E+02 -0.12307617090E+04  0.39250757046E+03  0.12973207289E+04  0.92802443179E+02 0.  0.
          2    1    3    3  502    0  0.13045291349E+03  0.42831374346E+03  0.27537262874E+03  0.52564313953E+03  0.00000000000E+00 0. -1.
         -3    1    3    3    0  502  0.38374658829E+03  0.15900479324E+04  0.11470325776E+04  0.19977981894E+04  0.00000000000E+00 0.  1.
         13    1    5    5    0    0 -0.42165540235E+03 -0.71794792539E+03 -0.33944104252E+03  0.89914555176E+03  0.00000000000E+00 0.  1.
        -13    1    5    5    0    0 -0.17763065151E+02 -0.69652041487E+02 -0.10673180065E+02  0.72669458094E+02  0.00000000000E+00 0. -1.
          1    1    6    6  503    0  0.14026038474E+02 -0.23735438311E+03  0.10001642381E+03  0.25794789778E+03  0.00000000000E+00 0. -1.
         -1    1    6    6    0  503 -0.88807072752E+02 -0.99340732584E+03  0.29249114664E+03  0.10393728311E+04  0.00000000000E+00 0.  1.
<mgrwt>
<rscale>  0 0.45632401E+04</rscale>
<asrwt>0</asrwt>
<pdfrwt beam="1">  1        2 0.25598296E+00 0.45632401E+04</pdfrwt>
<pdfrwt beam="2">  1       -1 0.48133659E+00 0.45632401E+04</pdfrwt>
<totfact> 0.17499265E-02</totfact>
</mgrwt>
</event>
<event>
12    7  0.2492439E-007  0.2503983E+04  0.7818608E-02  0.8401568E-01
          2   -1    0    0  501    0  0.00000000000E+00  0.00000000000E+00  0.13184229444E+04  0.13184229444E+04  0.00000000000E+00 0. -1.
         -1   -1    0    0    0  501 -0.00000000000E+00 -0.00000000000E+00 -0.11889068778E+04  0.11889068778E+04  0.00000000000E+00 0.  1.
         24    2    1    2    0    0 -0.99845911534E+03 -0.19230295040E+03  0.44628216327E+03  0.11132246145E+04  0.78741624118E+02 0.  0.
        254    2    1    2    0    0  0.99845911534E+03  0.19230295040E+03 -0.31676609666E+03  0.13941052076E+04  0.89960410191E+03 0.  0.
         23    2    4    4    0    0  0.51670141230E+03  0.32954671182E+03  0.21623320943E+03  0.65699144323E+03  0.96434282619E+02 0.  0.
         23    2    4    4    0    0  0.48175770304E+03 -0.13724376142E+03 -0.53299930609E+03  0.73711376439E+03  0.91225582302E+02 0.  0.
          2    1    3    3  502    0 -0.62073875818E+03 -0.11693402420E+03  0.23530565923E+03  0.67406151440E+03  0.00000000000E+00 0. -1.
         -1    1    3    3    0  502 -0.37772035716E+03 -0.75368926204E+02  0.21097650404E+03  0.43916310012E+03  0.00000000000E+00 0.  1.
         13    1    5    5    0    0  0.36809357998E+03  0.28184644142E+03  0.17525988735E+03  0.49562720696E+03  0.00000000000E+00 0. -1.
        -13    1    5    5    0    0  0.14860783232E+03  0.47700270401E+02  0.40973322084E+02  0.16136423627E+03  0.00000000000E+00 0.  1.
          2    1    6    6  503    0  0.38301046988E+03 -0.84475473076E+02 -0.36878979225E+03  0.53836700907E+03  0.00000000000E+00 0. -1.
         -2    1    6    6    0  503  0.98747233158E+02 -0.52768288347E+02 -0.16420951384E+03  0.19874675531E+03  0.00000000000E+00 0.  1.
<mgrwt>
<rscale>  0 0.25039825E+04</rscale>
<asrwt>0</asrwt>
<pdfrwt beam="1">  1        2 0.20283430E+00 0.25039825E+04</pdfrwt>
<pdfrwt beam="2">  1       -1 0.18290875E+00 0.25039825E+04</pdfrwt>
<totfact> 0.32500434E+00</totfact>
</mgrwt>
</event>
<event>
12    7  0.2492439E-007  0.2959034E+04  0.7818608E-02  0.8255527E-01
          2   -1    0    0  501    0  0.00000000000E+00  0.00000000000E+00  0.19122146924E+04  0.19122146924E+04  0.00000000000E+00 0. -1.
         -1   -1    0    0    0  501 -0.00000000000E+00 -0.00000000000E+00 -0.11447307058E+04  0.11447307058E+04  0.00000000000E+00 0.  1.
         24    2    1    2    0    0 -0.10079522071E+04 -0.61798857924E+03  0.99440923769E+03  0.15469797414E+04  0.80118988649E+02 0.  0.
        254    2    1    2    0    0  0.10079522071E+04  0.61798857924E+03 -0.22692525105E+03  0.15099656568E+04  0.91138558216E+03 0.  0.
         23    2    4    4    0    0  0.14252045890E+03  0.22488715472E+03  0.30664657312E+03  0.41606208108E+03  0.90494314403E+02 0.  0.
         23    2    4    4    0    0  0.86543174817E+03  0.39310142452E+03 -0.53357182417E+03  0.10939035757E+04  0.91789437127E+02 0.  0.
          2    1    3    3  502    0 -0.89552718618E+03 -0.52632711417E+03  0.89492129325E+03  0.13710847142E+04  0.00000000000E+00 0. -1.
         -1    1    3    3    0  502 -0.11242502089E+03 -0.91661465070E+02  0.99487944433E+02  0.17589502719E+03  0.00000000000E+00 0.  1.
         13    1    5    5    0    0  0.42043261719E+02  0.16767234518E+02  0.24909604401E+02  0.51664924279E+02  0.00000000000E+00 0.  1.
        -13    1    5    5    0    0  0.10047719719E+03  0.20811992021E+03  0.28173696872E+03  0.36439715680E+03  0.00000000000E+00 0. -1.
          2    1    6    6  503    0  0.32230881976E+03  0.16295353031E+03 -0.25118475916E+03  0.43992114244E+03  0.00000000000E+00 0.  1.
         -2    1    6    6    0  503  0.54312292841E+03  0.23014789421E+03 -0.28238706501E+03  0.65398243330E+03  0.00000000000E+00 0. -1.
<mgrwt>
<rscale>  0 0.29590342E+04</rscale>
<asrwt>0</asrwt>
<pdfrwt beam="1">  1        2 0.29418688E+00 0.29590342E+04</pdfrwt>
<pdfrwt beam="2">  1       -1 0.17611242E+00 0.29590342E+04</pdfrwt>
<totfact> 0.16219348E+00</totfact>
</mgrwt>
</event>
<event>
12    7  0.2492439E-007  0.2095689E+04  0.7818608E-02  0.8563145E-01
          2   -1    0    0  501    0  0.00000000000E+00  0.00000000000E+00  0.30618372749E+04  0.30618372749E+04  0.00000000000E+00 0. -1.
         -1   -1    0    0    0  501 -0.00000000000E+00 -0.00000000000E+00 -0.35860089343E+03  0.35860089343E+03  0.00000000000E+00 0.  1.
         24    2    1    2    0    0  0.80959391190E+03 -0.20693778029E+03  0.13785282091E+04  0.16139930982E+04  0.79800694188E+02 0.  0.
        254    2    1    2    0    0 -0.80959391190E+03  0.20693778029E+03  0.13247081724E+04  0.18064450701E+04  0.90007027630E+03 0.  0.
         23    2    4    4    0    0 -0.21918427152E+03  0.29806918254E+03  0.35660590843E+02  0.38275442687E+03  0.91336143397E+02 0.  0.
         23    2    4    4    0    0 -0.59040964038E+03 -0.91131402255E+02  0.12890475816E+04  0.14236906433E+04  0.91448915973E+02 0.  0.
          2    1    3    3  502    0  0.20054519532E+03 -0.85906694717E+02  0.33983937265E+03  0.40384295805E+03  0.00000000000E+00 0. -1.
         -1    1    3    3    0  502  0.60904871658E+03 -0.12103108557E+03  0.10386888364E+04  0.12101501402E+04  0.00000000000E+00 0.  1.
         13    1    5    5    0    0 -0.62911165069E+02  0.11150349814E+03  0.53451649237E+02  0.13873688620E+03  0.00000000000E+00 0.  1.
        -13    1    5    5    0    0 -0.15627310645E+03  0.18656568440E+03 -0.17791058394E+02  0.24401754067E+03  0.00000000000E+00 0. -1.
          2    1    6    6  503    0 -0.34950446756E+03 -0.11321086032E+02  0.70849983406E+03  0.79009718055E+03  0.00000000000E+00 0. -1.
         -2    1    6    6    0  503 -0.24090517282E+03 -0.79810316224E+02  0.58054774749E+03  0.63359346271E+03  0.00000000000E+00 0.  1.
<mgrwt>
<rscale>  0 0.20956885E+04</rscale>
<asrwt>0</asrwt>
<pdfrwt beam="1">  1        2 0.47105187E+00 0.20956885E+04</pdfrwt>
<pdfrwt beam="2">  1       -1 0.55169370E-01 0.20956885E+04</pdfrwt>
<totfact> 0.55570216E+00</totfact>
</mgrwt>
</event>
<event>
12    7  0.2492439E-007  0.3422946E+04  0.7818608E-02  0.8132297E-01
          2   -1    0    0  501    0  0.00000000000E+00  0.00000000000E+00  0.19521890135E+04  0.19521890135E+04  0.00000000000E+00 0. -1.
         -3   -1    0    0    0  501 -0.00000000000E+00 -0.00000000000E+00 -0.15004388996E+04  0.15004388996E+04  0.00000000000E+00 0.  1.
         24    2    1    2    0    0 -0.12126073884E+04  0.50258866507E+03 -0.69848092497E+03  0.14889142699E+04  0.77317889081E+02 0.  0.
        254    2    1    2    0    0  0.12126073884E+04 -0.50258866507E+03  0.11502310388E+04  0.19637136432E+04  0.90007098906E+03 0.  0.
         23    2    4    4    0    0  0.40768465397E+03 -0.49735113066E+03  0.91161991995E+03  0.11192830567E+04  0.90436487163E+02 0.  0.
         23    2    4    4    0    0  0.80492273440E+03 -0.52375344138E+01  0.23861111885E+03  0.84443058656E+03  0.90552246594E+02 0.  0.
          2    1    3    3  502    0 -0.65359181952E+03  0.23127455096E+03 -0.38223022711E+03  0.79168815261E+03  0.00000000000E+00 0. -1.
         -1    1    3    3    0  502 -0.55901556885E+03  0.27131411411E+03 -0.31625069786E+03  0.69722611729E+03  0.00000000000E+00 0.  1.
         13    1    5    5    0    0  0.91224844358E+02 -0.11528510954E+03  0.14759621909E+03  0.20832012049E+03  0.00000000000E+00 0.  1.
        -13    1    5    5    0    0  0.31645980961E+03 -0.38206602112E+03  0.76402370086E+03  0.91096293616E+03  0.00000000000E+00 0. -1.
          4    1    6    6  503    0  0.11800076964E+03  0.21320434592E+02  0.60434802229E+02  0.13427996085E+03  0.00000000000E+00 0.  1.
         -4    1    6    6    0  503  0.68692196476E+03 -0.26557969006E+02  0.17817631662E+03  0.71015062571E+03  0.00000000000E+00 0. -1.
<mgrwt>
<rscale>  0 0.34229463E+04</rscale>
<asrwt>0</asrwt>
<pdfrwt beam="1">  1        2 0.30033677E+00 0.34229463E+04</pdfrwt>
<pdfrwt beam="2">  1       -3 0.23083675E+00 0.34229463E+04</pdfrwt>
<totfact> 0.35127329E-01</totfact>
</mgrwt>
</event>
<event>
12    7  0.2492439E-007  0.1104682E+04  0.7818608E-02  0.9200641E-01
          2   -1    0    0  501    0  0.00000000000E+00  0.00000000000E+00  0.83707544670E+03  0.83707544670E+03  0.00000000000E+00 0. -1.
         -1   -1    0    0    0  501 -0.00000000000E+00 -0.00000000000E+00 -0.36445993283E+03  0.36445993283E+03  0.00000000000E+00 0.  1.
         24    2    1    2    0    0  0.15294927587E+03  0.10240283700E+02  0.23417208297E+00  0.17264476774E+03  0.79421763967E+02 0.  0.
        254    2    1    2    0    0 -0.15294927587E+03 -0.10240283700E+02  0.47238134179E+03  0.10288906118E+04  0.90109567446E+03 0.  0.
         23    2    4    4    0    0  0.13259819109E+03  0.46515179005E+02  0.65304217127E+03  0.67382155666E+03  0.88461690037E+02 0.  0.
         23    2    4    4    0    0 -0.28554746696E+03 -0.56755462705E+02 -0.18066082949E+03  0.35506905511E+03  0.93151275636E+02 0.  0.
          4    1    3    3  502    0  0.63104176093E+02  0.30443633875E+02  0.29495015376E+02  0.76019127961E+02  0.00000000000E+00 0. -1.
         -3    1    3    3    0  502  0.89845099782E+02 -0.20203350175E+02 -0.29260843294E+02  0.96625639782E+02  0.00000000000E+00 0.  1.
         13    1    5    5    0    0  0.14590839948E+02 -0.10653371149E+02  0.23508063629E+03  0.23577381637E+03  0.00000000000E+00 0. -1.
        -13    1    5    5    0    0  0.11800735114E+03  0.57168550153E+02  0.41796153498E+03  0.43804774029E+03  0.00000000000E+00 0.  1.
          1    1    6    6  503    0 -0.25003201461E+03 -0.73257245263E+02 -0.13040275887E+03  0.29135461526E+03  0.00000000000E+00 0. -1.
         -1    1    6    6    0  503 -0.35515452356E+02  0.16501782558E+02 -0.50258070622E+02  0.63714439857E+02  0.00000000000E+00 0.  1.
<mgrwt>
<rscale>  0 0.11046818E+04</rscale>
<asrwt>0</asrwt>
<pdfrwt beam="1">  1        2 0.12878084E+00 0.11046818E+04</pdfrwt>
<pdfrwt beam="2">  1       -1 0.56070759E-01 0.11046818E+04</pdfrwt>
<totfact> 0.11813480E+02</totfact>
</mgrwt>
</event>
<event>
12    7  0.2492439E-007  0.1283800E+04  0.7818608E-02  0.9042511E-01
         -1   -1    0    0    0  501 -0.00000000000E+00  0.00000000000E+00  0.37556941651E+03  0.37556941651E+03  0.00000000000E+00 0.  1.
          2   -1    0    0  501    0  0.00000000000E+00 -0.00000000000E+00 -0.10970964911E+04  0.10970964911E+04  0.00000000000E+00 0. -1.
         24    2    1    2    0    0 -0.27317940759E+03  0.16160801915E+03 -0.19239729712E+03  0.37934577338E+03  0.78373179481E+02 0.  0.
        254    2    1    2    0    0  0.27317940759E+03 -0.16160801915E+03 -0.52912977751E+03  0.10933201343E+04  0.90256659254E+03 0.  0.
         23    2    4    4    0    0  0.95847013959E+01 -0.37741171127E+03  0.73049302469E+02  0.39556985078E+03  0.92778445540E+02 0.  0.
         23    2    4    4    0    0  0.26359470619E+03  0.21580369212E+03 -0.60217907998E+03  0.69775028349E+03  0.90456680682E+02 0.  0.
          4    1    3    3  502    0 -0.11917831555E+02  0.28121637937E+02 -0.34826060327E+02  0.46321870722E+02  0.00000000000E+00 0. -1.
         -3    1    3    3    0  502 -0.26126157603E+03  0.13348638121E+03 -0.15757123680E+03  0.33302390266E+03  0.00000000000E+00 0.  1.
         13    1    5    5    0    0 -0.14148926591E+02 -0.15488643248E+03 -0.12397278124E+02  0.15602465060E+03  0.00000000000E+00 0.  1.
        -13    1    5    5    0    0  0.23733627987E+02 -0.22252527879E+03  0.85446580593E+02  0.23954520019E+03  0.00000000000E+00 0. -1.
          1    1    6    6  503    0 -0.38967302651E+00 -0.27221592605E+01 -0.34794301433E+02  0.34902799434E+02  0.00000000000E+00 0. -1.
         -1    1    6    6    0  503  0.26398437922E+03  0.21852585138E+03 -0.56738477854E+03  0.66284748405E+03  0.00000000000E+00 0.  1.
<mgrwt>
<rscale>  0 0.12838004E+04</rscale>
<asrwt>0</asrwt>
<pdfrwt beam="1">  1        2 0.16878407E+00 0.12838004E+04</pdfrwt>
<pdfrwt beam="2">  1       -1 0.57779912E-01 0.12838004E+04</pdfrwt>
<totfact> 0.74275343E+01</totfact>
</mgrwt>
</event>
<event>
12    7  0.2492439E-007  0.5502299E+04  0.7818608E-02  0.7755373E-01
         -1   -1    0    0    0  501 -0.00000000000E+00  0.00000000000E+00  0.20681786836E+04  0.20681786836E+04  0.00000000000E+00 0.  1.
          2   -1    0    0  501    0  0.00000000000E+00 -0.00000000000E+00 -0.36596568190E+04  0.36596568190E+04  0.00000000000E+00 0. -1.
         24    2    1    2    0    0 -0.25618541677E+04 -0.17240848286E+03  0.13616480553E+02  0.25688298310E+04  0.76680051972E+02 0.  0.
        254    2    1    2    0    0  0.25618541677E+04  0.17240848286E+03 -0.16050946159E+04  0.31590056715E+04  0.90009257586E+03 0.  0.
         23    2    4    4    0    0  0.22543582363E+04  0.13600749322E+03 -0.16931115455E+04  0.28241007897E+04  0.91046522632E+02 0.  0.
         23    2    4    4    0    0  0.30749593144E+03  0.36400989646E+02  0.88016929535E+02  0.33490488184E+03  0.92387878527E+02 0.  0.
          2    1    3    3  502    0 -0.23046204155E+04 -0.15779777718E+03 -0.10653697861E+02  0.23100408869E+04  0.00000000000E+00 0. -1.
         -1    1    3    3    0  502 -0.25723375224E+03 -0.14610705685E+02  0.24270178414E+02  0.25878894407E+03  0.00000000000E+00 0.  1.
         13    1    5    5    0    0  0.20461947894E+04  0.14822947398E+03 -0.15255473214E+04  0.25565953381E+04  0.00000000000E+00 0. -1.
        -13    1    5    5    0    0  0.20816344689E+03 -0.12221980764E+02 -0.16756422407E+03  0.26750545158E+03  0.00000000000E+00 0.  1.
          4    1    6    6  503    0  0.18882175539E+03 -0.10589011953E+02  0.84709864962E+02  0.20722341495E+03  0.00000000000E+00 0. -1.
         -4    1    6    6    0  503  0.11867417605E+03  0.46990001599E+02  0.33070645729E+01  0.12768146689E+03  0.00000000000E+00 0.  1.
<mgrwt>
<rscale>  0 0.55022992E+04</rscale>
<asrwt>0</asrwt>
<pdfrwt beam="1">  1        2 0.56302412E+00 0.55022992E+04</pdfrwt>
<pdfrwt beam="2">  1       -1 0.31818134E+00 0.55022992E+04</pdfrwt>
<totfact> 0.12460428E-02</totfact>
</mgrwt>
</event>
<event>
12    7  0.2492439E-007  0.2574095E+04  0.7818608E-02  0.8377054E-01
         -1   -1    0    0    0  501 -0.00000000000E+00  0.00000000000E+00  0.95120182026E+03  0.95120182026E+03  0.00000000000E+00 0.  1.
          2   -1    0    0  501    0  0.00000000000E+00 -0.00000000000E+00 -0.17414717883E+04  0.17414717883E+04  0.00000000000E+00 0. -1.
         24    2    1    2    0    0 -0.87499710934E+03 -0.34165470021E+03  0.30689110821E+03  0.99134718027E+03  0.78988632059E+02 0.  0.
        254    2    1    2    0    0  0.87499710934E+03  0.34165470021E+03 -0.10971610763E+04  0.17013264283E+04  0.89911140180E+03 0.  0.
         23    2    4    4    0    0  0.74717949127E+03 -0.14725691546E+03 -0.51283641324E+03  0.92268287299E+03  0.91546196254E+02 0.  0.
         23    2    4    4    0    0  0.12781761808E+03  0.48891161566E+03 -0.58432466304E+03  0.77864355532E+03  0.97357911803E+02 0.  0.
          4    1    3    3  502    0 -0.34559098504E+03 -0.12692040821E+03  0.80700228360E+02  0.37690110881E+03  0.00000000000E+00 0. -1.
         -3    1    3    3    0  502 -0.52940612430E+03 -0.21473429199E+03  0.22619087985E+03  0.61444607146E+03  0.00000000000E+00 0.  1.
         13    1    5    5    0    0  0.43620281462E+03 -0.94817583741E+02 -0.24668018110E+03  0.51001409924E+03  0.00000000000E+00 0. -1.
        -13    1    5    5    0    0  0.31097667664E+03 -0.52439331717E+02 -0.26615623214E+03  0.41266877376E+03  0.00000000000E+00 0.  1.
          2    1    6    6  503    0  0.17942395216E+02  0.17804613398E+03 -0.26413154775E+03  0.31904205035E+03  0.00000000000E+00 0. -1.
         -2    1    6    6    0  503  0.10987522286E+03  0.31086548168E+03 -0.32019311529E+03  0.45960150498E+03  0.00000000000E+00 0.  1.
<mgrwt>
<rscale>  0 0.25740949E+04</rscale>
<asrwt>0</asrwt>
<pdfrwt beam="1">  1        2 0.26791874E+00 0.25740949E+04</pdfrwt>
<pdfrwt beam="2">  1       -1 0.14633874E+00 0.25740949E+04</pdfrwt>
<totfact> 0.34988479E+00</totfact>
</mgrwt>
</event>
<event>
12    7  0.2492439E-007  0.1730989E+04  0.7818608E-02  0.8743885E-01
         -1   -1    0    0    0  501 -0.00000000000E+00  0.00000000000E+00  0.42550364087E+03  0.42550364087E+03  0.00000000000E+00 0.  1.
          2   -1    0    0  501    0  0.00000000000E+00 -0.00000000000E+00 -0.17604568614E+04  0.17604568614E+04  0.00000000000E+00 0. -1.
         24    2    1    2    0    0  0.29317815594E+03  0.28646079639E+03 -0.10868568935E+04  0.11652169059E+04  0.91974516592E+02 0.  0.
        254    2    1    2    0    0 -0.29317815594E+03 -0.28646079639E+03 -0.24809632696E+03  0.10207435964E+04  0.90130598749E+03 0.  0.
         23    2    4    4    0    0 -0.24347747827E+03 -0.13239481190E+03  0.31407884436E+03  0.42850285094E+03  0.90329973670E+02 0.  0.
         23    2    4    4    0    0 -0.49700677671E+02 -0.15406598450E+03 -0.56217517132E+03  0.59224074543E+03  0.92204622229E+02 0.  0.
          2    1    3    3  502    0  0.24871031994E+03  0.19107157366E+03 -0.85057980687E+03  0.90656007929E+03  0.00000000000E+00 0. -1.
         -1    1    3    3    0  502  0.44467836002E+02  0.95389222736E+02 -0.23627708666E+03  0.25865682657E+03  0.00000000000E+00 0.  1.
         13    1    5    5    0    0 -0.12406893664E+03 -0.93563992734E+02  0.22931442812E+03  0.27700618895E+03  0.00000000000E+00 0. -1.
        -13    1    5    5    0    0 -0.11940854163E+03 -0.38830819163E+02  0.84764416245E+02  0.15149666198E+03  0.00000000000E+00 0.  1.
          1    1    6    6  503    0 -0.65273991659E+02 -0.15566118186E+03 -0.53356955434E+03  0.55963163495E+03  0.00000000000E+00 0. -1.
         -1    1    6    6    0  503  0.15573313987E+02  0.15951973642E+01 -0.28605616986E+02  0.32609110480E+02  0.00000000000E+00 0.  1.
<mgrwt>
<rscale>  0 0.17309891E+04</rscale>
<asrwt>0</asrwt>
<pdfrwt beam="1">  1        2 0.27083952E+00 0.17309891E+04</pdfrwt>
<pdfrwt beam="2">  1       -1 0.65462098E-01 0.17309891E+04</pdfrwt>
<totfact> 0.23214493E+01</totfact>
</mgrwt>
</event>
<event>
12    7  0.2492439E-007  0.3779371E+04  0.7818608E-02  0.8050596E-01
         -1   -1    0    0    0  501 -0.00000000000E+00  0.00000000000E+00  0.15276367118E+04  0.15276367118E+04  0.00000000000E+00 0.  1.
          2   -1    0    0  501    0  0.00000000000E+00 -0.00000000000E+00 -0.23375401292E+04  0.23375401292E+04  0.00000000000E+00 0. -1.
         24    2    1    2    0    0  0.76838043122E+03 -0.15966497395E+04 -0.19297728240E+03  0.17840635771E+04  0.77095639166E+02 0.  0.
        254    2    1    2    0    0 -0.76838043122E+03  0.15966497395E+04 -0.61692613502E+03  0.20811132639E+04  0.90040862022E+03 0.  0.
         23    2    4    4    0    0  0.12744852586E+03  0.68356008795E+03 -0.15871713627E+03  0.71926797220E+03  0.93047116558E+02 0.  0.
         23    2    4    4    0    0 -0.89582895708E+03  0.91308965160E+03 -0.45820899875E+03  0.13618452917E+04  0.91787144421E+02 0.  0.
          4    1    3    3  502    0  0.74646858342E+03 -0.15235050724E+04 -0.19471484917E+03  0.17076875956E+04  0.00000000000E+00 0. -1.
         -3    1    3    3    0  502  0.21911847799E+02 -0.73144667111E+02  0.17375667780E+01  0.76375981428E+02  0.00000000000E+00 0.  1.
         13    1    5    5    0    0 -0.42556216984E+01  0.37220012126E+01 -0.92528790166E+01  0.10843402564E+02  0.00000000000E+00 0.  1.
        -13    1    5    5    0    0  0.13170414756E+03  0.67983808674E+03 -0.14946425725E+03  0.70842456963E+03  0.00000000000E+00 0. -1.
          3    1    6    6  503    0 -0.82260331845E+03  0.79912830561E+03 -0.41570803868E+03  0.12198751747E+04  0.00000000000E+00 0. -1.
         -3    1    6    6    0  503 -0.73225638633E+02  0.11396134599E+03 -0.42500960068E+02  0.14197011706E+03  0.00000000000E+00 0.  1.
<mgrwt>
<rscale>  0 0.37793714E+04</rscale>
<asrwt>0</asrwt>
<pdfrwt beam="1">  1        2 0.35962156E+00 0.37793714E+04</pdfrwt>
<pdfrwt beam="2">  1       -1 0.23502103E+00 0.37793714E+04</pdfrwt>
<totfact> 0.34458380E-01</totfact>
</mgrwt>
</event>
<event>
12    7  0.2492439E-007  0.2041393E+04  0.7818608E-02  0.8587509E-01
         -1   -1    0    0    0  501 -0.00000000000E+00  0.00000000000E+00  0.88889519976E+03  0.88889519976E+03  0.00000000000E+00 0.  1.
          2   -1    0    0  501    0  0.00000000000E+00 -0.00000000000E+00 -0.11720401666E+04  0.11720401666E+04  0.00000000000E+00 0. -1.
         24    2    1    2    0    0  0.20318167795E+03 -0.73023611509E+03  0.19461232730E+03  0.78676868780E+03  0.81261504619E+02 0.  0.
        254    2    1    2    0    0 -0.20318167795E+03  0.73023611509E+03 -0.47775729419E+03  0.12741666786E+04  0.90593659528E+03 0.  0.
         23    2    4    4    0    0  0.28984596835E+03  0.57489582728E+03 -0.33219452396E+03  0.73056214379E+03  0.94084784052E+02 0.  0.
         23    2    4    4    0    0 -0.49302764631E+03  0.15534028781E+03 -0.14556277022E+03  0.54360453481E+03  0.84323811284E+02 0.  0.
          4    1    3    3  502    0  0.12247575909E+03 -0.38255554082E+03  0.64284396787E+02  0.40679421953E+03  0.00000000000E+00 0. -1.
         -3    1    3    3    0  502  0.80705918870E+02 -0.34768057427E+03  0.13032793051E+03  0.37997446827E+03  0.00000000000E+00 0.  1.
         13    1    5    5    0    0  0.23418302709E+03  0.52721834114E+03 -0.28560154209E+03  0.64371508469E+03  0.00000000000E+00 0.  1.
        -13    1    5    5    0    0  0.55662941260E+02  0.47677486144E+02 -0.46592981872E+02  0.86847059101E+02  0.00000000000E+00 0. -1.
          3    1    6    6  503    0 -0.14275710338E+03  0.80734731536E+02 -0.65731134658E+02  0.17668692511E+03  0.00000000000E+00 0. -1.
         -3    1    6    6    0  503 -0.35027054292E+03  0.74605556269E+02 -0.79831635564E+02  0.36691760969E+03  0.00000000000E+00 0.  1.
<mgrwt>
<rscale>  0 0.20413925E+04</rscale>
<asrwt>0</asrwt>
<pdfrwt beam="1">  1        2 0.18031387E+00 0.20413925E+04</pdfrwt>
<pdfrwt beam="2">  1       -1 0.13675311E+00 0.20413925E+04</pdfrwt>
<totfact> 0.92628508E+00</totfact>
</mgrwt>
</event>
<event>
12    7  0.2492439E-007  0.1959067E+04  0.7818608E-02  0.8626001E-01
         -1   -1    0    0    0  501 -0.00000000000E+00  0.00000000000E+00  0.90111621751E+03  0.90111621751E+03  0.00000000000E+00 0.  1.
          2   -1    0    0  501    0  0.00000000000E+00 -0.00000000000E+00 -0.10647743648E+04  0.10647743648E+04  0.00000000000E+00 0. -1.
         24    2    1    2    0    0  0.50381955031E+03  0.57920243852E+03 -0.18197285959E+01  0.77186564644E+03  0.80396894806E+02 0.  0.
        254    2    1    2    0    0 -0.50381955031E+03 -0.57920243852E+03 -0.16183841866E+03  0.11940249358E+04  0.90010792108E+03 0.  0.
         23    2    4    4    0    0  0.13077006528E+02  0.19658609411E+03 -0.13806156170E+03  0.25697294055E+03  0.90316094133E+02 0.  0.
         23    2    4    4    0    0 -0.51689655683E+03 -0.77578853263E+03 -0.23776856956E+02  0.93705199529E+03  0.92039149934E+02 0.  0.
          2    1    3    3  502    0  0.39022453289E+02  0.80931819093E+02 -0.10085815972E+02  0.90412581460E+02  0.00000000000E+00 0. -1.
         -1    1    3    3    0  502  0.46479709702E+03  0.49827061942E+03  0.82660873763E+01  0.68145306498E+03  0.00000000000E+00 0.  1.
         13    1    5    5    0    0 -0.27905515611E+02  0.10750316768E+03 -0.10671887997E+03  0.15402781634E+03  0.00000000000E+00 0. -1.
        -13    1    5    5    0    0  0.40982522140E+02  0.89082926428E+02 -0.31342681735E+02  0.10294512422E+03  0.00000000000E+00 0.  1.
          3    1    6    6  503    0 -0.40158660019E+02 -0.88577318589E+02 -0.25976794615E+02  0.10066505452E+03  0.00000000000E+00 0. -1.
         -3    1    6    6    0  503 -0.47673789681E+03 -0.68721121404E+03  0.21999376594E+01  0.83638694077E+03  0.00000000000E+00 0.  1.
<mgrwt>
<rscale>  0 0.19590666E+04</rscale>
<asrwt>0</asrwt>
<pdfrwt beam="1">  1        2 0.16381144E+00 0.19590666E+04</pdfrwt>
<pdfrwt beam="2">  1       -1 0.13863326E+00 0.19590666E+04</pdfrwt>
<totfact> 0.10477111E+01</totfact>
</mgrwt>
</event>
<event>
12    7  0.2492439E-007  0.1575661E+04  0.7818608E-02  0.8835642E-01
         -1   -1    0    0    0  501 -0.00000000000E+00  0.00000000000E+00  0.32552323918E+03  0.32552323918E+03  0.00000000000E+00 0.  1.
          2   -1    0    0  501    0  0.00000000000E+00 -0.00000000000E+00 -0.19067043808E+04  0.19067043808E+04  0.00000000000E+00 0. -1.
         24    2    1    2    0    0  0.24555958902E+03  0.15936560930E+03 -0.11548764873E+04  0.11940229692E+04  0.79083759195E+02 0.  0.
        254    2    1    2    0    0 -0.24555958902E+03 -0.15936560930E+03 -0.42630465433E+03  0.10382046507E+04  0.90024237255E+03 0.  0.
         23    2    4    4    0    0 -0.37098902674E+03 -0.44640613868E+03 -0.39370882845E+03  0.70719364070E+03  0.90580931946E+02 0.  0.
         23    2    4    4    0    0  0.12542943772E+03  0.28704052939E+03 -0.32595825883E+02  0.33101101005E+03  0.10188715106E+03 0.  0.
          4    1    3    3  502    0  0.24243947156E+03  0.13702366663E+03 -0.10228125347E+04  0.10600461611E+04  0.00000000000E+00 0. -1.
         -3    1    3    3    0  502  0.31201174638E+01  0.22341942668E+02 -0.13206395262E+03  0.13397680813E+03  0.00000000000E+00 0.  1.
         13    1    5    5    0    0 -0.15309881385E+03 -0.18779206123E+03 -0.21882993495E+03  0.32648375992E+03  0.00000000000E+00 0.  1.
        -13    1    5    5    0    0 -0.21789021289E+03 -0.25861407746E+03 -0.17487889350E+03  0.38070988078E+03  0.00000000000E+00 0. -1.
          4    1    6    6  503    0  0.68651280456E+02  0.86550508954E+02  0.28075292873E+02  0.11398338027E+03  0.00000000000E+00 0.  1.
         -4    1    6    6    0  503  0.56778157262E+02  0.20049002043E+03 -0.60671118755E+02  0.21702762977E+03  0.00000000000E+00 0. -1.
<mgrwt>
<rscale>  0 0.15756606E+04</rscale>
<asrwt>0</asrwt>
<pdfrwt beam="1">  1        2 0.29333913E+00 0.15756606E+04</pdfrwt>
<pdfrwt beam="2">  1       -1 0.50080499E-01 0.15756606E+04</pdfrwt>
<totfact> 0.32971939E+01</totfact>
</mgrwt>
</event>
<event>
12    7  0.2492439E-007  0.1523447E+04  0.7818608E-02  0.8869009E-01
         -1   -1    0    0    0  501 -0.00000000000E+00  0.00000000000E+00  0.41737436439E+03  0.41737436439E+03  0.00000000000E+00 0.  1.
          2   -1    0    0  501    0  0.00000000000E+00 -0.00000000000E+00 -0.13901741937E+04  0.13901741937E+04  0.00000000000E+00 0. -1.
         24    2    1    2    0    0 -0.39702761066E+03 -0.22494739366E+03 -0.10116032115E+03  0.47411002114E+03  0.79464759673E+02 0.  0.
        254    2    1    2    0    0  0.39702761066E+03  0.22494739366E+03 -0.87163950820E+03  0.13334385370E+04  0.90003924698E+03 0.  0.
         23    2    4    4    0    0  0.66032699561E+03  0.80271459166E+02 -0.45354772675E+03  0.81015308392E+03  0.90372731821E+02 0.  0.
         23    2    4    4    0    0 -0.26329938495E+03  0.14467593449E+03 -0.41809178144E+03  0.52328545306E+03  0.93644196470E+02 0.  0.
          4    1    3    3  502    0 -0.23323544666E+03 -0.11644756760E+03 -0.95271828001E+02  0.27755275316E+03  0.00000000000E+00 0. -1.
         -3    1    3    3    0  502 -0.16379216400E+03 -0.10849982606E+03 -0.58884931514E+01  0.19655726798E+03  0.00000000000E+00 0.  1.
         13    1    5    5    0    0  0.69982580223E+02 -0.18142449781E+02 -0.39333147651E+02  0.82303137989E+02  0.00000000000E+00 0.  1.
        -13    1    5    5    0    0  0.59034441539E+03  0.98413908948E+02 -0.41421457910E+03  0.72784994593E+03  0.00000000000E+00 0. -1.
          3    1    6    6  503    0 -0.14741812776E+03  0.60558086206E+02 -0.14755916037E+03  0.21719367396E+03  0.00000000000E+00 0. -1.
         -3    1    6    6    0  503 -0.11588125719E+03  0.84117848289E+02 -0.27053262107E+03  0.30609177910E+03  0.00000000000E+00 0.  1.
<mgrwt>
<rscale>  0 0.15234475E+04</rscale>
<asrwt>0</asrwt>
<pdfrwt beam="1">  1        2 0.21387295E+00 0.15234475E+04</pdfrwt>
<pdfrwt beam="2">  1       -1 0.64211442E-01 0.15234475E+04</pdfrwt>
<totfact> 0.39633756E+01</totfact>
</mgrwt>
</event>
<event>
12    7  0.2492439E-007  0.2627396E+04  0.7818608E-02  0.8358954E-01
         -1   -1    0    0    0  501 -0.00000000000E+00  0.00000000000E+00  0.99801544113E+03  0.99801544113E+03  0.00000000000E+00 0.  1.
          2   -1    0    0  501    0  0.00000000000E+00 -0.00000000000E+00 -0.17292345620E+04  0.17292345620E+04  0.00000000000E+00 0. -1.
         24    2    1    2    0    0  0.65698257565E+03  0.35427677616E+03  0.59590488902E+03  0.95851941008E+03  0.80738367046E+02 0.  0.
        254    2    1    2    0    0 -0.65698257565E+03 -0.35427677616E+03 -0.13271240099E+04  0.17687305931E+04  0.90000646350E+03 0.  0.
         23    2    4    4    0    0 -0.40702687601E+03  0.20715652292E+03 -0.90562436347E+03  0.10183641242E+04  0.91243076331E+02 0.  0.
         23    2    4    4    0    0 -0.24995569964E+03 -0.56143329908E+03 -0.42149964642E+03  0.75036646885E+03  0.87764939072E+02 0.  0.
          2    1    3    3  502    0  0.57453331506E+03  0.31620242830E+03  0.48776955219E+03  0.81730755644E+03  0.00000000000E+00 0. -1.
         -1    1    3    3    0  502  0.82449260591E+02  0.38074347865E+02  0.10813533683E+03  0.14121185364E+03  0.00000000000E+00 0.  1.
         13    1    5    5    0    0 -0.36750800710E+03  0.19922300420E+03 -0.76135386482E+03  0.86856873542E+03  0.00000000000E+00 0. -1.
        -13    1    5    5    0    0 -0.39518868910E+02  0.79335187247E+01 -0.14427049865E+03  0.14979538878E+03  0.00000000000E+00 0.  1.
          3    1    6    6  503    0 -0.25366816256E+03 -0.55539134503E+03 -0.42340919294E+03  0.74302249461E+03  0.00000000000E+00 0. -1.
         -3    1    6    6    0  503  0.37124629138E+01 -0.60419540588E+01  0.19095465185E+01  0.73439742402E+01  0.00000000000E+00 0.  1.
<mgrwt>
<rscale>  0 0.26273963E+04</rscale>
<asrwt>0</asrwt>
<pdfrwt beam="1">  1        2 0.26603609E+00 0.26273963E+04</pdfrwt>
<pdfrwt beam="2">  1       -1 0.15354084E+00 0.26273963E+04</pdfrwt>
<totfact> 0.31081237E+00</totfact>
</mgrwt>
</event>
<event>
12    7  0.2492439E-007  0.1696153E+04  0.7818608E-02  0.8763562E-01
         -1   -1    0    0    0  501 -0.00000000000E+00  0.00000000000E+00  0.28186884600E+03  0.28186884600E+03  0.00000000000E+00 0.  1.
          2   -1    0    0  501    0  0.00000000000E+00 -0.00000000000E+00 -0.25516604150E+04  0.25516604150E+04  0.00000000000E+00 0. -1.
         24    2    1    2    0    0  0.27743496922E+03 -0.25346969261E+03 -0.22400359554E+02  0.38472523575E+03  0.79339042686E+02 0.  0.
        254    2    1    2    0    0 -0.27743496922E+03  0.25346969261E+03 -0.22473912095E+04  0.24488040253E+04  0.89702667662E+03 0.  0.
         23    2    4    4    0    0 -0.29784235213E+03 -0.28728071194E+03 -0.99218597090E+03  0.10788672832E+04  0.91001866332E+02 0.  0.
         23    2    4    4    0    0  0.20407382912E+02  0.54075040456E+03 -0.12552052386E+04  0.13699367421E+04  0.91427704294E+02 0.  0.
          4    1    3    3  502    0  0.11321285832E+03 -0.65534835077E+02  0.17504557725E+02  0.13197869313E+03  0.00000000000E+00 0. -1.
         -1    1    3    3    0  502  0.16422211090E+03 -0.18793485754E+03 -0.39904917279E+02  0.25274654262E+03  0.00000000000E+00 0.  1.
         13    1    5    5    0    0 -0.92160787575E+02 -0.81960356282E+02 -0.19904749854E+03  0.23416023882E+03  0.00000000000E+00 0.  1.
        -13    1    5    5    0    0 -0.20568156456E+03 -0.20532035566E+03 -0.79313847237E+03  0.84470704436E+03  0.00000000000E+00 0. -1.
          2    1    6    6  503    0  0.36595779896E+02  0.40059357054E+03 -0.83858395557E+03  0.93007392739E+03  0.00000000000E+00 0. -1.
         -2    1    6    6    0  503 -0.16188396984E+02  0.14015683402E+03 -0.41662128298E+03  0.43986281470E+03  0.00000000000E+00 0.  1.
<mgrwt>
<rscale>  0 0.16961528E+04</rscale>
<asrwt>0</asrwt>
<pdfrwt beam="1">  1        2 0.39256314E+00 0.16961528E+04</pdfrwt>
<pdfrwt beam="2">  1       -1 0.43364438E-01 0.16961528E+04</pdfrwt>
<totfact> 0.18509474E+01</totfact>
</mgrwt>
</event>
<event>
12    7  0.2492439E-007  0.1491349E+04  0.7818608E-02  0.8890226E-01
          2   -1    0    0  501    0  0.00000000000E+00  0.00000000000E+00  0.47094887668E+03  0.47094887668E+03  0.00000000000E+00 0. -1.
         -1   -1    0    0    0  501 -0.00000000000E+00 -0.00000000000E+00 -0.11806594612E+04  0.11806594612E+04  0.00000000000E+00 0.  1.
         24    2    1    2    0    0 -0.24434688474E+03  0.39817161681E+03 -0.16076232513E+03  0.50048021418E+03  0.79936744315E+02 0.  0.
        254    2    1    2    0    0  0.24434688474E+03 -0.39817161681E+03 -0.54894825939E+03  0.11511281237E+04  0.89749970985E+03 0.  0.
         23    2    4    4    0    0  0.47567715366E+03 -0.14041342309E+03 -0.60612393955E+03  0.78854308644E+03  0.91811138620E+02 0.  0.
         23    2    4    4    0    0 -0.23133026892E+03 -0.25775819372E+03  0.57175680166E+02  0.36258503726E+03  0.90806778925E+02 0.  0.
          2    1    3    3  502    0 -0.19380852161E+03  0.32630931036E+03 -0.96411911354E+02  0.39157983315E+03  0.00000000000E+00 0. -1.
         -1    1    3    3    0  502 -0.50538363132E+02  0.71862306446E+02 -0.64350413781E+02  0.10890038103E+03  0.00000000000E+00 0.  1.
         13    1    5    5    0    0  0.44794784705E+02  0.68021814535E+01 -0.86474079544E+02  0.97624837220E+02  0.00000000000E+00 0. -1.
        -13    1    5    5    0    0  0.43088236895E+03 -0.14721560454E+03 -0.51964986001E+03  0.69091824922E+03  0.00000000000E+00 0.  1.
          1    1    6    6  503    0 -0.85020907404E+02 -0.15874057773E+03  0.44335862903E+02  0.18545294404E+03  0.00000000000E+00 0. -1.
         -1    1    6    6    0  503 -0.14630936151E+03 -0.99017615990E+02  0.12839817263E+02  0.17713209323E+03  0.00000000000E+00 0.  1.
<mgrwt>
<rscale>  0 0.14913487E+04</rscale>
<asrwt>0</asrwt>
<pdfrwt beam="1">  1        2 0.72453674E-01 0.14913487E+04</pdfrwt>
<pdfrwt beam="2">  1       -1 0.18163991E+00 0.14913487E+04</pdfrwt>
<totfact> 0.14777920E+01</totfact>
</mgrwt>
</event>
<event>
12    7  0.2492439E-007  0.1042543E+04  0.7818608E-02  0.9263077E-01
          2   -1    0    0  501    0  0.00000000000E+00  0.00000000000E+00  0.11596005706E+04  0.11596005706E+04  0.00000000000E+00 0. -1.
         -3   -1    0    0    0  501 -0.00000000000E+00 -0.00000000000E+00 -0.23432558388E+03  0.23432558388E+03  0.00000000000E+00 0.  1.
         24    2    1    2    0    0 -0.87516176385E+02 -0.84343938355E+01  0.21046399771E+03  0.24169613615E+03  0.79948156745E+02 0.  0.
        254    2    1    2    0    0  0.87516176385E+02  0.84343938355E+01  0.71481098903E+03  0.11522300184E+04  0.89941594662E+03 0.  0.
         23    2    4    4    0    0  0.24744101294E+03  0.29897749983E+03  0.70337276284E+03  0.80846789172E+03  0.90953219538E+02 0.  0.
         23    2    4    4    0    0 -0.15992483656E+03 -0.29054310600E+03  0.11438226192E+02  0.34376212664E+03  0.89723558233E+02 0.  0.
          4    1    3    3  502    0 -0.73814606121E+02  0.44330570076E+01  0.21027511791E+03  0.22289879606E+03  0.00000000000E+00 0. -1.
         -3    1    3    3    0  502 -0.13701570264E+02 -0.12867450843E+02  0.18887980199E+00  0.18797340091E+02  0.00000000000E+00 0.  1.
         13    1    5    5    0    0  0.24208757725E+02  0.26997969773E+02  0.24302070213E+02  0.43652547910E+02  0.00000000000E+00 0. -1.
        -13    1    5    5    0    0  0.22323225522E+03  0.27197953006E+03  0.67907069263E+03  0.76481534381E+03  0.00000000000E+00 0.  1.
          4    1    6    6  503    0  0.91065300791E+01 -0.36452052195E+02  0.87229370440E+01  0.38571629859E+02  0.00000000000E+00 0. -1.
         -4    1    6    6    0  503 -0.16903136663E+03 -0.25409105380E+03  0.27152891476E+01  0.30519049678E+03  0.00000000000E+00 0.  1.
<mgrwt>
<rscale>  0 0.10425432E+04</rscale>
<asrwt>0</asrwt>
<pdfrwt beam="1">  1        2 0.17840008E+00 0.10425432E+04</pdfrwt>
<pdfrwt beam="2">  1       -3 0.36050090E-01 0.10425432E+04</pdfrwt>
<totfact> 0.97357293E+01</totfact>
</mgrwt>
</event>
<event>
12    7  0.2492439E-007  0.3767450E+04  0.7818608E-02  0.8053176E-01
         -1   -1    0    0    0  501 -0.00000000000E+00  0.00000000000E+00  0.14044226138E+04  0.14044226138E+04  0.00000000000E+00 0.  1.
          2   -1    0    0  501    0  0.00000000000E+00 -0.00000000000E+00 -0.25266042263E+04  0.25266042263E+04  0.00000000000E+00 0. -1.
         24    2    1    2    0    0 -0.10813685081E+04  0.75502097162E+01 -0.19997300965E+04  0.22748489873E+04  0.81256386945E+02 0.  0.
        254    2    1    2    0    0  0.10813685081E+04 -0.75502097162E+01  0.87754848405E+03  0.16561778528E+04  0.89633636668E+03 0.  0.
         23    2    4    4    0    0  0.75660674120E+03  0.40393473389E+03  0.45372714336E+03  0.97459443522E+03  0.91372657185E+02 0.  0.
         23    2    4    4    0    0  0.32476176690E+03 -0.41148494361E+03  0.42382134069E+03  0.68158341756E+03  0.10070433067E+03 0.  0.
          2    1    3    3  502    0 -0.11753671638E+03  0.24083779530E+02 -0.24353787935E+03  0.27148776550E+03  0.00000000000E+00 0. -1.
         -1    1    3    3    0  502 -0.96383179172E+03 -0.16533569814E+02 -0.17561922171E+04  0.20033612218E+04  0.00000000000E+00 0.  1.
         13    1    5    5    0    0  0.69363667396E+03  0.39094813363E+03  0.40131031601E+03  0.89164020119E+03  0.00000000000E+00 0. -1.
        -13    1    5    5    0    0  0.62970067241E+02  0.12986600259E+02  0.52416827343E+02  0.82954234029E+02  0.00000000000E+00 0.  1.
          1    1    6    6  503    0 -0.49591301081E+01 -0.26819192794E+01 -0.14186337816E+01  0.58136205807E+01  0.00000000000E+00 0.  1.
         -1    1    6    6    0  503  0.32972089701E+03 -0.40880302433E+03  0.42523997447E+03  0.67576979698E+03  0.00000000000E+00 0. -1.
<mgrwt>
<rscale>  0 0.37674501E+04</rscale>
<asrwt>0</asrwt>
<pdfrwt beam="1">  1        2 0.38870834E+00 0.37674501E+04</pdfrwt>
<pdfrwt beam="2">  1       -1 0.21606502E+00 0.37674501E+04</pdfrwt>
<totfact> 0.35896138E-01</totfact>
</mgrwt>
</event>
<event>
12    7  0.2492439E-007  0.1785031E+04  0.7818608E-02  0.8714301E-01
          2   -1    0    0  501    0  0.00000000000E+00  0.00000000000E+00  0.17354952794E+04  0.17354952794E+04  0.00000000000E+00 0. -1.
         -1   -1    0    0    0  501 -0.00000000000E+00 -0.00000000000E+00 -0.45899497940E+03  0.45899497940E+03  0.00000000000E+00 0.  1.
         24    2    1    2    0    0 -0.10083724608E+03  0.46670624168E+03 -0.86226755464E+02  0.49223096178E+03  0.82905971761E+02 0.  0.
        254    2    1    2    0    0  0.10083724608E+03 -0.46670624168E+03  0.13627270554E+04  0.17022592970E+04  0.90148700510E+03 0.  0.
         23    2    4    4    0    0  0.22932406893E+02 -0.72726417040E+03  0.10163327523E+04  0.12533178922E+04  0.91839026549E+02 0.  0.
         23    2    4    4    0    0  0.77904839190E+02  0.26055792872E+03  0.34639430315E+03  0.44894140476E+03  0.87176679597E+02 0.  0.
          2    1    3    3  502    0 -0.72916911940E+01  0.21047130489E+03 -0.55083738297E+02  0.21768223898E+03  0.00000000000E+00 0. -1.
         -1    1    3    3    0  502 -0.93545554890E+02  0.25623493679E+03 -0.31143017167E+02  0.27454872280E+03  0.00000000000E+00 0.  1.
         13    1    5    5    0    0  0.24030494027E+02 -0.95476933952E+02  0.18007481648E+03  0.20523218337E+03  0.00000000000E+00 0. -1.
        -13    1    5    5    0    0 -0.10980871337E+01 -0.63178723645E+03  0.83625793580E+03  0.10480857089E+04  0.00000000000E+00 0.  1.
          1    1    6    6  503    0  0.89127870521E+02  0.24209937395E+03  0.28785947922E+03  0.38654749248E+03  0.00000000000E+00 0. -1.
         -1    1    6    6    0  503 -0.11223031330E+02  0.18458554772E+02  0.58534823933E+02  0.62393912279E+02  0.00000000000E+00 0.  1.
<mgrwt>
<rscale>  0 0.17850307E+04</rscale>
<asrwt>0</asrwt>
<pdfrwt beam="1">  1        2 0.26699927E+00 0.17850307E+04</pdfrwt>
<pdfrwt beam="2">  1       -1 0.70614613E-01 0.17850307E+04</pdfrwt>
<totfact> 0.20443786E+01</totfact>
</mgrwt>
</event>
<event>
12    7  0.2492439E-007  0.2050889E+04  0.7818608E-02  0.8583191E-01
         -1   -1    0    0    0  501 -0.00000000000E+00  0.00000000000E+00  0.78344544592E+03  0.78344544592E+03  0.00000000000E+00 0.  1.
          2   -1    0    0  501    0  0.00000000000E+00 -0.00000000000E+00 -0.13421950508E+04  0.13421950508E+04  0.00000000000E+00 0. -1.
         24    2    1    2    0    0  0.51253212379E+03 -0.27816247578E+03  0.37989013855E+03  0.70046630209E+03  0.79202160044E+02 0.  0.
        254    2    1    2    0    0 -0.51253212379E+03  0.27816247578E+03 -0.93863974342E+03  0.14251741946E+04  0.90000743120E+03 0.  0.
         23    2    4    4    0    0 -0.52930532072E+03  0.44718425781E+03 -0.30462736085E+03  0.76224512376E+03  0.89899481320E+02 0.  0.
         23    2    4    4    0    0  0.16773196934E+02 -0.16902178203E+03 -0.63401238256E+03  0.66292907085E+03  0.93024452681E+02 0.  0.
          4    1    3    3  502    0  0.34988161223E+02 -0.18902936042E+02  0.44909148354E+01  0.40020753777E+02  0.00000000000E+00 0. -1.
         -3    1    3    3    0  502  0.47754396256E+03 -0.25925953974E+03  0.37539922372E+03  0.66044554832E+03  0.00000000000E+00 0.  1.
         13    1    5    5    0    0 -0.73797228787E+02  0.42528260803E+02 -0.66559597007E+02  0.10809654896E+03  0.00000000000E+00 0. -1.
        -13    1    5    5    0    0 -0.45550809193E+03  0.40465599700E+03 -0.23806776384E+03  0.65414857480E+03  0.00000000000E+00 0.  1.
          2    1    6    6  503    0 -0.14334254588E+02  0.61915040566E+01 -0.56899773170E+02  0.59003302991E+02  0.00000000000E+00 0. -1.
         -2    1    6    6    0  503  0.31107451522E+02 -0.17521328608E+03 -0.57711260939E+03  0.60392576786E+03  0.00000000000E+00 0.  1.
<mgrwt>
<rscale>  0 0.20508892E+04</rscale>
<asrwt>0</asrwt>
<pdfrwt beam="1">  1        2 0.20649155E+00 0.20508892E+04</pdfrwt>
<pdfrwt beam="2">  1       -1 0.12053007E+00 0.20508892E+04</pdfrwt>
<totfact> 0.10090499E+01</totfact>
</mgrwt>
</event>
<event>
12    7  0.2492439E-007  0.4592001E+04  0.7818608E-02  0.7894725E-01
          2   -1    0    0  501    0  0.00000000000E+00  0.00000000000E+00  0.43038847412E+04  0.43038847412E+04  0.00000000000E+00 0. -1.
         -1   -1    0    0    0  501 -0.00000000000E+00 -0.00000000000E+00 -0.12248511093E+04  0.12248511093E+04  0.00000000000E+00 0.  1.
         24    2    1    2    0    0 -0.31962920638E+03  0.14925201208E+04  0.34001801795E+04  0.37279025596E+04  0.79076545958E+02 0.  0.
        254    2    1    2    0    0  0.31962920638E+03 -0.14925201208E+04 -0.32114654765E+03  0.18008332909E+04  0.90004794111E+03 0.  0.
         23    2    4    4    0    0 -0.17427057183E+03 -0.63367076854E+03  0.17853450856E+03  0.68717336775E+03  0.91781215310E+02 0.  0.
         23    2    4    4    0    0  0.49389977820E+03 -0.85884935221E+03 -0.49968105621E+03  0.11136599232E+04  0.94858135644E+02 0.  0.
          4    1    3    3  502    0 -0.12464193315E+03  0.50789755180E+03  0.10825602185E+04  0.12022612700E+04  0.00000000000E+00 0. -1.
         -3    1    3    3    0  502 -0.19498727323E+03  0.98462256895E+03  0.23176199610E+04  0.25256412896E+04  0.00000000000E+00 0.  1.
         13    1    5    5    0    0 -0.11845691425E+02 -0.59245898298E+02 -0.98290962114E+01  0.61212809140E+02  0.00000000000E+00 0. -1.
        -13    1    5    5    0    0 -0.16242488040E+03 -0.57442487025E+03  0.18836360477E+03  0.62596055861E+03  0.00000000000E+00 0.  1.
          1    1    6    6  503    0  0.43592423662E+02 -0.51143686118E+02 -0.58335181772E+02  0.88988591757E+02  0.00000000000E+00 0. -1.
         -1    1    6    6    0  503  0.45030735454E+03 -0.80770566609E+03 -0.44134587444E+03  0.10246713314E+04  0.00000000000E+00 0.  1.
<mgrwt>
<rscale>  0 0.45920009E+04</rscale>
<asrwt>0</asrwt>
<pdfrwt beam="1">  1        2 0.66213610E+00 0.45920009E+04</pdfrwt>
<pdfrwt beam="2">  1       -1 0.18843863E+00 0.45920009E+04</pdfrwt>
<totfact> 0.28886392E-02</totfact>
</mgrwt>
</event>
<event>
12    7  0.2492439E-007  0.3031992E+04  0.7818608E-02  0.8234654E-01
         -1   -1    0    0    0  501 -0.00000000000E+00  0.00000000000E+00  0.28660085210E+04  0.28660085210E+04  0.00000000000E+00 0.  1.
          2   -1    0    0  501    0  0.00000000000E+00 -0.00000000000E+00 -0.80189704449E+03  0.80189704449E+03  0.00000000000E+00 0. -1.
         24    2    1    2    0    0  0.82628639801E+03 -0.10112307990E+04  0.39667922750E+03  0.13669797600E+04  0.77086408509E+02 0.  0.
        254    2    1    2    0    0 -0.82628639801E+03  0.10112307990E+04  0.16674322490E+04  0.23009258055E+04  0.89921761387E+03 0.  0.
         23    2    4    4    0    0 -0.83758319729E+03  0.97625218747E+03  0.17503189494E+04  0.21740272217E+04  0.90354801182E+02 0.  0.
         23    2    4    4    0    0  0.11296799282E+02  0.34978611485E+02 -0.82886700430E+02  0.12689858378E+03  0.88780203436E+02 0.  0.
          4    1    3    3  502    0  0.64336187965E+03 -0.73678228220E+03  0.28642327432E+03  0.10192158415E+04  0.00000000000E+00 0. -1.
         -1    1    3    3    0  502  0.18292451836E+03 -0.27444851675E+03  0.11025595317E+03  0.34776391845E+03  0.00000000000E+00 0.  1.
         13    1    5    5    0    0 -0.57827606145E+03  0.61339559448E+03  0.11158611177E+04  0.13985004085E+04  0.00000000000E+00 0.  1.
        -13    1    5    5    0    0 -0.25930713585E+03  0.36285659299E+03  0.63445783174E+03  0.77552681322E+03  0.00000000000E+00 0. -1.
          2    1    6    6  503    0 -0.27866777254E+02  0.13920306606E+01  0.15527883709E+01  0.27944698524E+02  0.00000000000E+00 0. -1.
         -2    1    6    6    0  503  0.39163576536E+02  0.33586580824E+02 -0.84439488801E+02  0.98953885257E+02  0.00000000000E+00 0.  1.
<mgrwt>
<rscale>  0 0.30319919E+04</rscale>
<asrwt>0</asrwt>
<pdfrwt beam="1">  1        2 0.12336878E+00 0.30319919E+04</pdfrwt>
<pdfrwt beam="2">  1       -1 0.44092438E+00 0.30319919E+04</pdfrwt>
<totfact> 0.12478611E-01</totfact>
</mgrwt>
</event>
<event>
12    7  0.2492439E-007  0.1570777E+04  0.7818608E-02  0.8838705E-01
          2   -1    0    0  501    0  0.00000000000E+00  0.00000000000E+00  0.18363690901E+04  0.18363690901E+04  0.00000000000E+00 0. -1.
         -3   -1    0    0    0  501 -0.00000000000E+00 -0.00000000000E+00 -0.33589936153E+03  0.33589936153E+03  0.00000000000E+00 0.  1.
         24    2    1    2    0    0  0.11774546978E+03 -0.49167410389E+03  0.69445812917E+03  0.86270392982E+03  0.79865870408E+02 0.  0.
        254    2    1    2    0    0 -0.11774546978E+03  0.49167410389E+03  0.80601159939E+03  0.13095645218E+04  0.89983171667E+03 0.  0.
         23    2    4    4    0    0 -0.43464612792E+03  0.35171179073E+03  0.19062218239E+03  0.59796628944E+03  0.92781607210E+02 0.  0.
         23    2    4    4    0    0  0.31690065814E+03  0.13996231316E+03  0.61538941700E+03  0.71159823237E+03  0.87478188815E+02 0.  0.
          2    1    3    3  502    0  0.72608078688E+02 -0.34592388065E+03  0.54153875617E+03  0.64668345326E+03  0.00000000000E+00 0. -1.
         -1    1    3    3    0  502  0.45137391090E+02 -0.14575022324E+03  0.15291937301E+03  0.21602047655E+03  0.00000000000E+00 0.  1.
         13    1    5    5    0    0 -0.20837728309E+03  0.12245734436E+03  0.11207891501E+03  0.26641804835E+03  0.00000000000E+00 0.  1.
        -13    1    5    5    0    0 -0.22626884482E+03  0.22925444637E+03  0.78543267375E+02  0.33154824109E+03  0.00000000000E+00 0. -1.
          3    1    6    6  503    0  0.11029079473E+03  0.28758841438E+02  0.27973914583E+03  0.30206807192E+03  0.00000000000E+00 0. -1.
         -3    1    6    6    0  503  0.20660986340E+03  0.11120347173E+03  0.33565027118E+03  0.40953016045E+03  0.00000000000E+00 0.  1.
<mgrwt>
<rscale>  0 0.15707771E+04</rscale>
<asrwt>0</asrwt>
<pdfrwt beam="1">  1        2 0.28251832E+00 0.15707771E+04</pdfrwt>
<pdfrwt beam="2">  1       -3 0.51676826E-01 0.15707771E+04</pdfrwt>
<totfact> 0.18834417E+01</totfact>
</mgrwt>
</event>
<event>
12    7  0.2492439E-007  0.3347693E+04  0.7818608E-02  0.8150865E-01
          2   -1    0    0  501    0  0.00000000000E+00  0.00000000000E+00  0.42298273642E+04  0.42298273642E+04  0.00000000000E+00 0. -1.
         -1   -1    0    0    0  501 -0.00000000000E+00 -0.00000000000E+00 -0.66238195792E+03  0.66238195792E+03  0.00000000000E+00 0.  1.
         24    2    1    2    0    0  0.89894508660E+03  0.66554023532E+03  0.83816911088E+02  0.11245022591E+04  0.80212109564E+02 0.  0.
        254    2    1    2    0    0 -0.89894508660E+03 -0.66554023532E+03  0.34836284952E+04  0.37677070630E+04  0.89939031955E+03 0.  0.
         23    2    4    4    0    0 -0.48497252767E+03 -0.80652229408E+03  0.19026178720E+04  0.21246263500E+04  0.91683132756E+02 0.  0.
         23    2    4    4    0    0 -0.41397255892E+03  0.14098205876E+03  0.15810106232E+04  0.16430807130E+04  0.94182899242E+02 0.  0.
          2    1    3    3  502    0  0.63447817817E+03  0.51312984946E+03  0.68570370637E+02  0.81888136913E+03  0.00000000000E+00 0. -1.
         -3    1    3    3    0  502  0.26446690843E+03  0.15241038586E+03  0.15246540450E+02  0.30562088994E+03  0.00000000000E+00 0.  1.
         13    1    5    5    0    0 -0.14489746773E+03 -0.27165696912E+03  0.53480835516E+03  0.61710028502E+03  0.00000000000E+00 0.  1.
        -13    1    5    5    0    0 -0.34007505995E+03 -0.53486532496E+03  0.13678095168E+04  0.15075260650E+04  0.00000000000E+00 0. -1.
          4    1    6    6  503    0 -0.86411728477E+02 -0.44338801082E+00  0.40607076531E+03  0.41516340139E+03  0.00000000000E+00 0.  1.
         -4    1    6    6    0  503 -0.32756083045E+03  0.14142544677E+03  0.11749398579E+04  0.12279173116E+04  0.00000000000E+00 0. -1.
<mgrwt>
<rscale>  0 0.33476925E+04</rscale>
<asrwt>0</asrwt>
<pdfrwt beam="1">  1        2 0.65074266E+00 0.33476925E+04</pdfrwt>
<pdfrwt beam="2">  1       -1 0.10190492E+00 0.33476925E+04</pdfrwt>
<totfact> 0.18822535E-01</totfact>
</mgrwt>
</event>
<event>
12    7  0.2492439E-007  0.1886394E+04  0.7818608E-02  0.8661659E-01
         -1   -1    0    0    0  501 -0.00000000000E+00  0.00000000000E+00  0.73596901443E+03  0.73596901443E+03  0.00000000000E+00 0.  1.
          2   -1    0    0  501    0  0.00000000000E+00 -0.00000000000E+00 -0.12087742169E+04  0.12087742169E+04  0.00000000000E+00 0. -1.
         24    2    1    2    0    0  0.64374503442E+03  0.21243903645E+02 -0.52837711485E+03  0.83698403073E+03  0.80628279190E+02 0.  0.
        254    2    1    2    0    0 -0.64374503442E+03 -0.21243903645E+02  0.55571912416E+02  0.11077592006E+04  0.89954612789E+03 0.  0.
         23    2    4    4    0    0 -0.61635511305E+03 -0.18563617608E+03  0.36435453360E+03  0.74541767773E+03  0.92406021753E+02 0.  0.
         23    2    4    4    0    0 -0.27389921371E+02  0.16439227244E+03 -0.30878262119E+03  0.36234152284E+03  0.90386088504E+02 0.  0.
          4    1    3    3  502    0  0.29226133383E+03  0.30000666735E+02 -0.28543765748E+03  0.40962346559E+03  0.00000000000E+00 0. -1.
         -3    1    3    3    0  502  0.35148370060E+03 -0.87567630899E+01 -0.24293945737E+03  0.42736056513E+03  0.00000000000E+00 0.  1.
         13    1    5    5    0    0 -0.14460770490E+03 -0.74259763975E+01  0.10065887939E+03  0.17634835821E+03  0.00000000000E+00 0.  1.
        -13    1    5    5    0    0 -0.47174740815E+03 -0.17821019968E+03  0.26369565421E+03  0.56906931952E+03  0.00000000000E+00 0. -1.
          3    1    6    6  503    0  0.22825832945E+02  0.11390860400E+03 -0.16377495847E+03  0.20079448632E+03  0.00000000000E+00 0. -1.
         -3    1    6    6    0  503 -0.50215754316E+02  0.50483668435E+02 -0.14500766272E+03  0.16154703652E+03  0.00000000000E+00 0.  1.
<mgrwt>
<rscale>  0 0.18863938E+04</rscale>
<asrwt>0</asrwt>
<pdfrwt beam="1">  1        2 0.18596526E+00 0.18863938E+04</pdfrwt>
<pdfrwt beam="2">  1       -1 0.11322600E+00 0.18863938E+04</pdfrwt>
<totfact> 0.14254300E+01</totfact>
</mgrwt>
</event>
<event>
12    7  0.2492439E-007  0.1506876E+04  0.7818608E-02  0.8879893E-01
          2   -1    0    0  501    0  0.00000000000E+00  0.00000000000E+00  0.13863151602E+04  0.13863151602E+04  0.00000000000E+00 0. -1.
         -1   -1    0    0    0  501 -0.00000000000E+00 -0.00000000000E+00 -0.40948062119E+03  0.40948062119E+03  0.00000000000E+00 0.  1.
         24    2    1    2    0    0  0.47377703739E+03  0.64468299764E+02  0.36183482736E+03  0.60489278243E+03  0.79686844000E+02 0.  0.
        254    2    1    2    0    0 -0.47377703739E+03 -0.64468299764E+02  0.61499971163E+03  0.11909029989E+04  0.90077992026E+03 0.  0.
         23    2    4    4    0    0 -0.18580234310E+02  0.22969700904E+03 -0.11828612789E+03  0.27455514036E+03  0.91010856372E+02 0.  0.
         23    2    4    4    0    0 -0.45519680308E+03 -0.29416530881E+03  0.73328583953E+03  0.91634785858E+03  0.90818043547E+02 0.  0.
          2    1    3    3  502    0  0.10127565945E+03  0.18931352042E+02  0.12129188858E+03  0.15914420355E+03  0.00000000000E+00 0. -1.
         -1    1    3    3    0  502  0.37250137794E+03  0.45536947723E+02  0.24054293878E+03  0.44574857888E+03  0.00000000000E+00 0.  1.
         13    1    5    5    0    0 -0.50308962726E+02  0.81154664018E+02 -0.38189244978E+02  0.10283719976E+03  0.00000000000E+00 0.  1.
        -13    1    5    5    0    0  0.31728728415E+02  0.14854234503E+03 -0.80096882913E+02  0.17171794060E+03  0.00000000000E+00 0. -1.
          4    1    6    6  503    0 -0.13858540343E+03 -0.42897362866E+02  0.20622140743E+03  0.25213759471E+03  0.00000000000E+00 0. -1.
         -4    1    6    6    0  503 -0.31661139965E+03 -0.25126794594E+03  0.52706443210E+03  0.66421026387E+03  0.00000000000E+00 0.  1.
<mgrwt>
<rscale>  0 0.15068765E+04</rscale>
<asrwt>0</asrwt>
<pdfrwt beam="1">  1        2 0.21327925E+00 0.15068765E+04</pdfrwt>
<pdfrwt beam="2">  1       -1 0.62997019E-01 0.15068765E+04</pdfrwt>
<totfact> 0.41446235E+01</totfact>
</mgrwt>
</event>
<event>
12    7  0.2492439E-007  0.2456709E+04  0.7818608E-02  0.8418572E-01
         -1   -1    0    0    0  501 -0.00000000000E+00  0.00000000000E+00  0.14034387881E+04  0.14034387881E+04  0.00000000000E+00 0.  1.
          2   -1    0    0  501    0  0.00000000000E+00 -0.00000000000E+00 -0.10751129775E+04  0.10751129775E+04  0.00000000000E+00 0. -1.
         24    2    1    2    0    0 -0.78477934053E+03 -0.19951302144E+03 -0.55295052445E+03  0.98370961274E+03  0.79033288246E+02 0.  0.
        254    2    1    2    0    0  0.78477934053E+03  0.19951302144E+03  0.88127633503E+03  0.14948421529E+04  0.89566792086E+03 0.  0.
         23    2    4    4    0    0  0.46314323996E+02  0.23519009499E+03  0.67472418395E+03  0.72161475838E+03  0.89530652408E+02 0.  0.
         23    2    4    4    0    0  0.73846501654E+03 -0.35677073545E+02  0.20655215108E+03  0.77322739455E+03  0.92808288146E+02 0.  0.
          4    1    3    3  502    0 -0.75669179527E+03 -0.18354034555E+03 -0.54504833758E+03  0.95044580159E+03  0.00000000000E+00 0. -1.
         -3    1    3    3    0  502 -0.28087545267E+02 -0.15972675896E+02 -0.79021868616E+01  0.33263811141E+02  0.00000000000E+00 0.  1.
         13    1    5    5    0    0  0.47018820546E+02  0.85086217391E+02  0.36051701138E+03  0.37339382610E+03  0.00000000000E+00 0. -1.
        -13    1    5    5    0    0 -0.70449654973E+00  0.15010387760E+03  0.31420717257E+03  0.34822093228E+03  0.00000000000E+00 0.  1.
          4    1    6    6  503    0  0.19104959712E+03  0.23321030750E+02  0.79065818501E+02  0.20807504101E+03  0.00000000000E+00 0. -1.
         -4    1    6    6    0  503  0.54741541942E+03 -0.58998104295E+02  0.12748633258E+03  0.56515235355E+03  0.00000000000E+00 0.  1.
<mgrwt>
<rscale>  0 0.24567094E+04</rscale>
<asrwt>0</asrwt>
<pdfrwt beam="1">  1        2 0.16540200E+00 0.24567094E+04</pdfrwt>
<pdfrwt beam="2">  1       -1 0.21591366E+00 0.24567094E+04</pdfrwt>
<totfact> 0.27004763E+00</totfact>
</mgrwt>
</event>
<event>
12    7  0.2492439E-007  0.1924852E+04  0.7818608E-02  0.8642584E-01
         -1   -1    0    0    0  501 -0.00000000000E+00  0.00000000000E+00  0.84287002308E+03  0.84287002308E+03  0.00000000000E+00 0.  1.
          2   -1    0    0  501    0  0.00000000000E+00 -0.00000000000E+00 -0.10989402777E+04  0.10989402777E+04  0.00000000000E+00 0. -1.
         24    2    1    2    0    0  0.41517016821E+03 -0.61934613239E+03 -0.36141758641E+02  0.75071303099E+03  0.79422464740E+02 0.  0.
        254    2    1    2    0    0 -0.41517016821E+03  0.61934613239E+03 -0.21992849600E+03  0.11910972698E+04  0.90243463061E+03 0.  0.
         23    2    4    4    0    0  0.13680569839E+03 -0.28337540403E+02 -0.28731844360E+03  0.33257854343E+03  0.92400130998E+02 0.  0.
         23    2    4    4    0    0 -0.55197586661E+03  0.64768367279E+03  0.67389947602E+02  0.85851872638E+03  0.91331819175E+02 0.  0.
          2    1    3    3  502    0  0.15544835347E+03 -0.30216523305E+03 -0.10704099694E+02  0.33997440552E+03  0.00000000000E+00 0. -1.
         -1    1    3    3    0  502  0.25972181475E+03 -0.31718089933E+03 -0.25437658947E+02  0.41073862547E+03  0.00000000000E+00 0.  1.
         13    1    5    5    0    0  0.76965952960E+02 -0.95587061282E+01 -0.63797102207E+02  0.10042508167E+03  0.00000000000E+00 0. -1.
        -13    1    5    5    0    0  0.59839745432E+02 -0.18778834275E+02 -0.22352134139E+03  0.23215346176E+03  0.00000000000E+00 0.  1.
          1    1    6    6  503    0 -0.42268043111E+03  0.47331655944E+03  0.12889274843E+02  0.63470737012E+03  0.00000000000E+00 0. -1.
         -1    1    6    6    0  503 -0.12929543549E+03  0.17436711335E+03  0.54500672759E+02  0.22381135626E+03  0.00000000000E+00 0.  1.
<mgrwt>
<rscale>  0 0.19248520E+04</rscale>
<asrwt>0</asrwt>
<pdfrwt beam="1">  1        2 0.16906773E+00 0.19248520E+04</pdfrwt>
<pdfrwt beam="2">  1       -1 0.12967231E+00 0.19248520E+04</pdfrwt>
<totfact> 0.11872585E+01</totfact>
</mgrwt>
</event>
<event>
12    7  0.2492439E-007  0.2611806E+04  0.7818608E-02  0.8364202E-01
          2   -1    0    0  501    0  0.00000000000E+00  0.00000000000E+00  0.27103081248E+04  0.27103081248E+04  0.00000000000E+00 0. -1.
         -1   -1    0    0    0  501 -0.00000000000E+00 -0.00000000000E+00 -0.62922085271E+03  0.62922085271E+03  0.00000000000E+00 0.  1.
         24    2    1    2    0    0  0.10820402287E+04 -0.37175141593E+03  0.78693850272E+03  0.13910452934E+04  0.82003837257E+02 0.  0.
        254    2    1    2    0    0 -0.10820402287E+04  0.37175141593E+03  0.12941487694E+04  0.19484836842E+04  0.90153061976E+03 0.  0.
         23    2    4    4    0    0  0.16275306727E+02  0.25618014713E+03  0.40120289886E+02  0.27508369925E+03  0.90378374284E+02 0.  0.
         23    2    4    4    0    0 -0.10983155354E+04  0.11557126880E+03  0.12540284795E+04  0.16733999849E+04  0.89589891046E+02 0.  0.
          2    1    3    3  502    0  0.52399837205E+03 -0.20542639921E+03  0.42708861869E+03  0.70652599925E+03  0.00000000000E+00 0. -1.
         -1    1    3    3    0  502  0.55804185666E+03 -0.16632501673E+03  0.35984988403E+03  0.68451929411E+03  0.00000000000E+00 0.  1.
         13    1    5    5    0    0  0.29712696557E+02  0.20992166514E+03 -0.58927909786E+00  0.21201485108E+03  0.00000000000E+00 0. -1.
        -13    1    5    5    0    0 -0.13437389831E+02  0.46258481997E+02  0.40709568984E+02  0.63068848167E+02  0.00000000000E+00 0.  1.
          2    1    6    6  503    0 -0.95569357524E+03  0.11716306738E+03  0.11280876563E+04  0.14831247939E+04  0.00000000000E+00 0. -1.
         -2    1    6    6    0  503 -0.14262196020E+03 -0.15917985849E+01  0.12594082321E+03  0.19027519098E+03  0.00000000000E+00 0.  1.
<mgrwt>
<rscale>  0 0.26118058E+04</rscale>
<asrwt>0</asrwt>
<pdfrwt beam="1">  1        2 0.41697048E+00 0.26118058E+04</pdfrwt>
<pdfrwt beam="2">  1       -1 0.96803209E-01 0.26118058E+04</pdfrwt>
<totfact> 0.26992621E+00</totfact>
</mgrwt>
</event>
<event>
12    7  0.2492439E-007  0.1743067E+04  0.7818608E-02  0.8737176E-01
          2   -1    0    0  501    0  0.00000000000E+00  0.00000000000E+00  0.95752216648E+03  0.95752216648E+03  0.00000000000E+00 0. -1.
         -1   -1    0    0    0  501 -0.00000000000E+00 -0.00000000000E+00 -0.79326648519E+03  0.79326648519E+03  0.00000000000E+00 0.  1.
         24    2    1    2    0    0  0.86324010263E+02  0.16915405581E+03  0.66863678657E+03  0.69965455131E+03  0.79852423049E+02 0.  0.
        254    2    1    2    0    0 -0.86324010263E+02 -0.16915405581E+03 -0.50438110528E+03  0.10511341003E+04  0.90245092288E+03 0.  0.
         23    2    4    4    0    0 -0.45392015730E+03 -0.25775771097E+03 -0.33524526147E+03  0.62710426523E+03  0.91585082690E+02 0.  0.
         23    2    4    4    0    0  0.36759614703E+03  0.88603655157E+02 -0.16913584382E+03  0.42402983512E+03  0.90646745028E+02 0.  0.
          2    1    3    3  502    0  0.98044750466E+02  0.13880639808E+03  0.50536744639E+03  0.53317562315E+03  0.00000000000E+00 0. -1.
         -1    1    3    3    0  502 -0.11720740203E+02  0.30347657728E+02  0.16326934018E+03  0.16647892817E+03  0.00000000000E+00 0.  1.
         13    1    5    5    0    0 -0.35074743470E+03 -0.15938167988E+03 -0.26917945499E+03  0.46998283141E+03  0.00000000000E+00 0.  1.
        -13    1    5    5    0    0 -0.10317272259E+03 -0.98376031093E+02 -0.66065806479E+02  0.15712143382E+03  0.00000000000E+00 0. -1.
          4    1    6    6  503    0  0.10682250332E+03  0.12786331918E+02 -0.92418968993E+02  0.14183019188E+03  0.00000000000E+00 0. -1.
         -4    1    6    6    0  503  0.26077364372E+03  0.75817323239E+02 -0.76716874824E+02  0.28219964324E+03  0.00000000000E+00 0.  1.
<mgrwt>
<rscale>  0 0.17430665E+04</rscale>
<asrwt>0</asrwt>
<pdfrwt beam="1">  1        2 0.14731110E+00 0.17430665E+04</pdfrwt>
<pdfrwt beam="2">  1       -1 0.12204100E+00 0.17430665E+04</pdfrwt>
<totfact> 0.17252850E+01</totfact>
</mgrwt>
</event>
<event>
12    7  0.2492439E-007  0.2978785E+04  0.7818608E-02  0.8249815E-01
         -1   -1    0    0    0  501 -0.00000000000E+00  0.00000000000E+00  0.10921169070E+04  0.10921169070E+04  0.00000000000E+00 0.  1.
          2   -1    0    0  501    0  0.00000000000E+00 -0.00000000000E+00 -0.20311838530E+04  0.20311838530E+04  0.00000000000E+00 0. -1.
         24    2    1    2    0    0  0.97890033982E+03  0.48356788049E+03 -0.12636609014E+04  0.16718765549E+04  0.79047901387E+02 0.  0.
        254    2    1    2    0    0 -0.97890033982E+03 -0.48356788049E+03  0.32459395549E+03  0.14514242051E+04  0.89954834053E+03 0.  0.
         23    2    4    4    0    0 -0.50366857515E+03 -0.68871848275E+03  0.34719940998E+03  0.92546815927E+03  0.89043256076E+02 0.  0.
         23    2    4    4    0    0 -0.47523176467E+03  0.20515060226E+03 -0.22605454498E+02  0.52595604586E+03  0.90480693191E+02 0.  0.
          4    1    3    3  502    0  0.20929566855E+03  0.13579027768E+03 -0.31296864491E+03  0.40024123861E+03  0.00000000000E+00 0. -1.
         -3    1    3    3    0  502  0.76960467127E+03  0.34777760281E+03 -0.95069225651E+03  0.12716353163E+04  0.00000000000E+00 0.  1.
         13    1    5    5    0    0 -0.38976192246E+03 -0.47611415445E+03  0.22564138243E+03  0.65537247252E+03  0.00000000000E+00 0. -1.
        -13    1    5    5    0    0 -0.11390665268E+03 -0.21260432830E+03  0.12155802755E+03  0.27009568675E+03  0.00000000000E+00 0.  1.
          1    1    6    6  503    0 -0.72936513710E+02  0.67412619249E+02 -0.16572800182E+02  0.10069187640E+03  0.00000000000E+00 0. -1.
         -1    1    6    6    0  503 -0.40229525096E+03  0.13773798301E+03 -0.60326543156E+01  0.42526416946E+03  0.00000000000E+00 0.  1.
<mgrwt>
<rscale>  0 0.29787851E+04</rscale>
<asrwt>0</asrwt>
<pdfrwt beam="1">  1        2 0.31248982E+00 0.29787851E+04</pdfrwt>
<pdfrwt beam="2">  1       -1 0.16801799E+00 0.29787851E+04</pdfrwt>
<totfact> 0.15934481E+00</totfact>
</mgrwt>
</event>
<event>
12    7  0.2492439E-007  0.1640397E+04  0.7818608E-02  0.8796108E-01
         -1   -1    0    0    0  501 -0.00000000000E+00  0.00000000000E+00  0.16560619706E+03  0.16560619706E+03  0.00000000000E+00 0.  1.
          2   -1    0    0  501    0  0.00000000000E+00 -0.00000000000E+00 -0.40622027328E+04  0.40622027328E+04  0.00000000000E+00 0. -1.
         24    2    1    2    0    0 -0.12912335456E+03  0.53633522728E+03 -0.99402117995E+03  0.11394967219E+04  0.77758320014E+02 0.  0.
        254    2    1    2    0    0  0.12912335456E+03 -0.53633522728E+03 -0.29025753557E+04  0.30883122079E+04  0.89911082802E+03 0.  0.
         23    2    4    4    0    0  0.27252330002E+03  0.69252778294E+02 -0.34140521336E+03  0.45100546729E+03  0.88224233968E+02 0.  0.
         23    2    4    4    0    0 -0.14339994546E+03 -0.60558800557E+03 -0.25611701424E+04  0.26373067406E+04  0.92162731416E+02 0.  0.
          4    1    3    3  502    0 -0.10832019974E+02  0.19755269603E+03 -0.37474628001E+03  0.42376783118E+03  0.00000000000E+00 0. -1.
         -3    1    3    3    0  502 -0.11829133458E+03  0.33878253125E+03 -0.61927489995E+03  0.71572889072E+03  0.00000000000E+00 0.  1.
         13    1    5    5    0    0  0.23746961903E+03  0.90013839609E+02 -0.29488625063E+03  0.38916861654E+03  0.00000000000E+00 0.  1.
        -13    1    5    5    0    0  0.35053680992E+02 -0.20761061315E+02 -0.46518962730E+02  0.61836850757E+02  0.00000000000E+00 0. -1.
          2    1    6    6  503    0 -0.11278813398E+03 -0.30025274207E+03 -0.14002780392E+04  0.14365414924E+04  0.00000000000E+00 0. -1.
         -2    1    6    6    0  503 -0.30611811482E+02 -0.30533526350E+03 -0.11608921031E+04  0.12007652482E+04  0.00000000000E+00 0.  1.
<mgrwt>
<rscale>  0 0.16403974E+04</rscale>
<asrwt>0</asrwt>
<pdfrwt beam="1">  1        2 0.62495417E+00 0.16403974E+04</pdfrwt>
<pdfrwt beam="2">  1       -1 0.25477880E-01 0.16403974E+04</pdfrwt>
<totfact> 0.45814861E+00</totfact>
</mgrwt>
</event>
<event>
12    7  0.2492439E-007  0.2694021E+04  0.7818608E-02  0.8336947E-01
          2   -1    0    0  501    0  0.00000000000E+00  0.00000000000E+00  0.86226611584E+03  0.86226611584E+03  0.00000000000E+00 0. -1.
         -1   -1    0    0    0  501 -0.00000000000E+00 -0.00000000000E+00 -0.21042666426E+04  0.21042666426E+04  0.00000000000E+00 0.  1.
         24    2    1    2    0    0 -0.10510907083E+04 -0.56772269520E+03 -0.58034691536E+03  0.13305369981E+04  0.80158751010E+02 0.  0.
        254    2    1    2    0    0  0.10510907083E+04  0.56772269520E+03 -0.66165361142E+03  0.16359957604E+04  0.90088616977E+03 0.  0.
         23    2    4    4    0    0  0.43796609905E+02 -0.19318688032E+03 -0.17898646868E+03  0.28208307423E+03  0.91079037269E+02 0.  0.
         23    2    4    4    0    0  0.10072940984E+04  0.76090957552E+03 -0.48266714274E+03  0.13539126862E+04  0.80543208149E+02 0.  0.
          2    1    3    3  502    0 -0.42013114051E+03 -0.23577647214E+03 -0.19143027256E+03  0.51840743561E+03  0.00000000000E+00 0. -1.
         -1    1    3    3    0  502 -0.63095956777E+03 -0.33194622306E+03 -0.38891664280E+03  0.81212956245E+03  0.00000000000E+00 0.  1.
         13    1    5    5    0    0  0.21660687384E+02 -0.18354570178E+03 -0.12550699214E+03  0.22340594240E+03  0.00000000000E+00 0. -1.
        -13    1    5    5    0    0  0.22135922522E+02 -0.96411785343E+01 -0.53479476540E+02  0.58677131835E+02  0.00000000000E+00 0.  1.
          2    1    6    6  503    0  0.27623889649E+03  0.24966540200E+03 -0.16003511030E+03  0.40528012216E+03  0.00000000000E+00 0. -1.
         -2    1    6    6    0  503  0.73105520188E+03  0.51124417352E+03 -0.32263203244E+03  0.94863256402E+03  0.00000000000E+00 0.  1.
<mgrwt>
<rscale>  0 0.26940214E+04</rscale>
<asrwt>0</asrwt>
<pdfrwt beam="1">  1        2 0.13265633E+00 0.26940214E+04</pdfrwt>
<pdfrwt beam="2">  1       -1 0.32373332E+00 0.26940214E+04</pdfrwt>
<totfact> 0.72062621E-01</totfact>
</mgrwt>
</event>
<event>
12    7  0.2492439E-007  0.1512978E+04  0.7818608E-02  0.8875868E-01
         -1   -1    0    0    0  501 -0.00000000000E+00  0.00000000000E+00  0.42533371531E+03  0.42533371531E+03  0.00000000000E+00 0.  1.
          2   -1    0    0  501    0  0.00000000000E+00 -0.00000000000E+00 -0.13454751276E+04  0.13454751276E+04  0.00000000000E+00 0. -1.
         24    2    1    2    0    0 -0.66966058248E+02  0.25885216305E+03  0.17555228989E+03  0.32936081262E+03  0.78555987253E+02 0.  0.
        254    2    1    2    0    0  0.66966058248E+02 -0.25885216305E+03 -0.10956937021E+04  0.14414480303E+04  0.89762956711E+03 0.  0.
         23    2    4    4    0    0  0.11683183820E+03 -0.57713453848E+03 -0.77993339973E+03  0.98153711541E+03  0.91569902235E+02 0.  0.
         23    2    4    4    0    0 -0.49865779953E+02  0.31828237544E+03 -0.31576030241E+03  0.45991091485E+03  0.89572398049E+02 0.  0.
          2    1    3    3  502    0 -0.10992250004E+02  0.17059499669E+03  0.84232939850E+02  0.19057458018E+03  0.00000000000E+00 0. -1.
         -1    1    3    3    0  502 -0.55973808244E+02  0.88257166353E+02  0.91319350036E+02  0.13878623243E+03  0.00000000000E+00 0.  1.
         13    1    5    5    0    0 -0.14118583636E+02 -0.83389350897E+02 -0.12570736154E+03  0.15151059036E+03  0.00000000000E+00 0.  1.
        -13    1    5    5    0    0  0.13095042184E+03 -0.49374518758E+03 -0.65422603819E+03  0.83002652505E+03  0.00000000000E+00 0. -1.
          4    1    6    6  503    0 -0.75228081205E+02  0.23016088191E+03 -0.24050077548E+03  0.34128275487E+03  0.00000000000E+00 0. -1.
         -4    1    6    6    0  503  0.25362301251E+02  0.88121493529E+02 -0.75259526933E+02  0.11862815998E+03  0.00000000000E+00 0.  1.
<mgrwt>
<rscale>  0 0.15129784E+04</rscale>
<asrwt>0</asrwt>
<pdfrwt beam="1">  1        2 0.20699617E+00 0.15129784E+04</pdfrwt>
<pdfrwt beam="2">  1       -1 0.65435957E-01 0.15129784E+04</pdfrwt>
<totfact> 0.40518364E+01</totfact>
</mgrwt>
</event>
<event>
12    7  0.2492439E-007  0.2965461E+04  0.7818608E-02  0.8253663E-01
         -1   -1    0    0    0  501 -0.00000000000E+00  0.00000000000E+00  0.97116085018E+03  0.97116085018E+03  0.00000000000E+00 0.  1.
          2   -1    0    0  501    0  0.00000000000E+00 -0.00000000000E+00 -0.22637756330E+04  0.22637756330E+04  0.00000000000E+00 0. -1.
         24    2    1    2    0    0  0.12480117570E+04 -0.31562823592E+03 -0.16243598465E+03  0.12998497072E+04  0.77905604117E+02 0.  0.
        254    2    1    2    0    0 -0.12480117570E+04  0.31562823592E+03 -0.11301787981E+04  0.19350867760E+04  0.90005676814E+03 0.  0.
         23    2    4    4    0    0 -0.12356742815E+04  0.12653502486E+03 -0.63642358553E+03  0.13983459342E+04  0.86222555476E+02 0.  0.
         23    2    4    4    0    0 -0.12337475555E+02  0.18909321106E+03 -0.49375521262E+03  0.53674084180E+03  0.91586382699E+02 0.  0.
          4    1    3    3  502    0  0.76544663774E+03 -0.19207114425E+03 -0.13773259079E+03  0.80110557747E+03  0.00000000000E+00 0. -1.
         -3    1    3    3    0  502  0.48256511928E+03 -0.12355709167E+03 -0.24703393866E+02  0.49874412970E+03  0.00000000000E+00 0.  1.
         13    1    5    5    0    0 -0.81459852130E+03  0.10731634017E+03 -0.45757290870E+03  0.94045760912E+03  0.00000000000E+00 0. -1.
        -13    1    5    5    0    0 -0.42107576016E+03  0.19218684691E+02 -0.17885067682E+03  0.45788832507E+03  0.00000000000E+00 0.  1.
          3    1    6    6  503    0 -0.72063867051E+00  0.79149543571E+02 -0.32859338623E+03  0.33799228252E+03  0.00000000000E+00 0. -1.
         -3    1    6    6    0  503 -0.11616836885E+02  0.10994366749E+03 -0.16516182639E+03  0.19874855928E+03  0.00000000000E+00 0.  1.
<mgrwt>
<rscale>  0 0.29654614E+04</rscale>
<asrwt>0</asrwt>
<pdfrwt beam="1">  1        2 0.34827317E+00 0.29654614E+04</pdfrwt>
<pdfrwt beam="2">  1       -1 0.14940936E+00 0.29654614E+04</pdfrwt>
<totfact> 0.16358164E+00</totfact>
</mgrwt>
</event>
<event>
12    7  0.2492439E-007  0.1765700E+04  0.7818608E-02  0.8724756E-01
          2   -1    0    0  501    0  0.00000000000E+00  0.00000000000E+00  0.27598723826E+03  0.27598723826E+03  0.00000000000E+00 0. -1.
         -1   -1    0    0    0  501 -0.00000000000E+00 -0.00000000000E+00 -0.28241309407E+04  0.28241309407E+04  0.00000000000E+00 0.  1.
         24    2    1    2    0    0  0.40999072286E+03  0.38483552690E+03 -0.15184476074E+04  0.16211743662E+04  0.79576463754E+02 0.  0.
        254    2    1    2    0    0 -0.40999072286E+03 -0.38483552690E+03 -0.10296960950E+04  0.14789438127E+04  0.90044987510E+03 0.  0.
         23    2    4    4    0    0 -0.66473489423E+03 -0.13940207912E+03 -0.56916443183E+03  0.89069080889E+03  0.89869612846E+02 0.  0.
         23    2    4    4    0    0  0.25474417137E+03 -0.24543344778E+03 -0.46053166317E+03  0.58825300384E+03  0.93914927499E+02 0.  0.
          2    1    3    3  502    0  0.49245464556E+02  0.32309998601E+02 -0.10450418803E+03  0.11995906429E+03  0.00000000000E+00 0. -1.
         -1    1    3    3    0  502  0.36074525830E+03  0.35252552829E+03 -0.14139434194E+04  0.15012153019E+04  0.00000000000E+00 0.  1.
         13    1    5    5    0    0 -0.60717429278E+03 -0.15228727700E+03 -0.51484418037E+03  0.81050389673E+03  0.00000000000E+00 0.  1.
        -13    1    5    5    0    0 -0.57560601446E+02  0.12885197882E+02 -0.54320251452E+02  0.80186912156E+02  0.00000000000E+00 0. -1.
          3    1    6    6  503    0  0.79555219584E+02 -0.45609560582E+02 -0.67732521915E+02  0.11400420828E+03  0.00000000000E+00 0.  1.
         -3    1    6    6    0  503  0.17518895179E+03 -0.19982388720E+03 -0.39279914126E+03  0.47424879557E+03  0.00000000000E+00 0. -1.
<mgrwt>
<rscale>  0 0.17657000E+04</rscale>
<asrwt>0</asrwt>
<pdfrwt beam="1">  1        2 0.42459575E-01 0.17657000E+04</pdfrwt>
<pdfrwt beam="2">  1       -1 0.43448169E+00 0.17657000E+04</pdfrwt>
<totfact> 0.54237849E-01</totfact>
</mgrwt>
</event>
<event>
12    7  0.2492439E-007  0.3154612E+04  0.7818608E-02  0.8200908E-01
          2   -1    0    0  501    0  0.00000000000E+00  0.00000000000E+00  0.23502110279E+04  0.23502110279E+04  0.00000000000E+00 0. -1.
         -1   -1    0    0    0  501 -0.00000000000E+00 -0.00000000000E+00 -0.10585832683E+04  0.10585832683E+04  0.00000000000E+00 0.  1.
         24    2    1    2    0    0 -0.26908061460E+03 -0.10896215254E+03  0.21214117647E+04  0.21427123506E+04  0.80939572803E+02 0.  0.
        254    2    1    2    0    0  0.26908061460E+03  0.10896215254E+03 -0.82978400506E+03  0.12660819455E+04  0.91112286212E+03 0.  0.
         23    2    4    4    0    0  0.55404229856E+03 -0.14274986227E+02 -0.27874958675E+03  0.62684136042E+03  0.89789282234E+02 0.  0.
         23    2    4    4    0    0 -0.28496168396E+03  0.12323713876E+03 -0.55103441831E+03  0.63924058510E+03  0.92731018415E+02 0.  0.
          4    1    3    3  502    0 -0.55714168140E+02 -0.56385488545E+02  0.68855695719E+03  0.69310466391E+03  0.00000000000E+00 0. -1.
         -3    1    3    3    0  502 -0.21336644646E+03 -0.52576663991E+02  0.14328548075E+04  0.14496076867E+04  0.00000000000E+00 0.  1.
         13    1    5    5    0    0  0.22402965108E+03 -0.32619947213E+02 -0.15281392648E+03  0.27313996713E+03  0.00000000000E+00 0. -1.
        -13    1    5    5    0    0  0.33001264748E+03  0.18344960986E+02 -0.12593566027E+03  0.35370139329E+03  0.00000000000E+00 0.  1.
          3    1    6    6  503    0 -0.15307781087E+03  0.11188855572E+03 -0.28863545725E+03  0.34534373059E+03  0.00000000000E+00 0. -1.
         -3    1    6    6    0  503 -0.13188387309E+03  0.11348583044E+02 -0.26239896106E+03  0.29389685450E+03  0.00000000000E+00 0.  1.
<mgrwt>
<rscale>  0 0.31546119E+04</rscale>
<asrwt>0</asrwt>
<pdfrwt beam="1">  1        2 0.36157093E+00 0.31546119E+04</pdfrwt>
<pdfrwt beam="2">  1       -1 0.16285896E+00 0.31546119E+04</pdfrwt>
<totfact> 0.11339690E+00</totfact>
</mgrwt>
</event>
<event>
12    7  0.2492439E-007  0.4762299E+04  0.7818608E-02  0.7866259E-01
         -1   -1    0    0    0  501 -0.00000000000E+00  0.00000000000E+00  0.17288542328E+04  0.17288542328E+04  0.00000000000E+00 0.  1.
          2   -1    0    0  501    0  0.00000000000E+00 -0.00000000000E+00 -0.32795549084E+04  0.32795549084E+04  0.00000000000E+00 0. -1.
         24    2    1    2    0    0 -0.73430194164E+03 -0.21587185227E+04 -0.10251236165E+04  0.25013549136E+04  0.81443065999E+02 0.  0.
        254    2    1    2    0    0  0.73430194164E+03  0.21587185227E+04 -0.52557705908E+03  0.25070542275E+04  0.89990257963E+03 0.  0.
         23    2    4    4    0    0  0.33782876024E+03  0.17930521851E+04 -0.66205505164E+03  0.19430708300E+04  0.89682492640E+02 0.  0.
         23    2    4    4    0    0  0.39647318140E+03  0.36566633763E+03  0.13647799256E+03  0.56398339747E+03  0.92456347088E+02 0.  0.
          2    1    3    3  502    0 -0.15259549339E+03 -0.44331067927E+03 -0.24721124106E+03  0.53002183037E+03  0.00000000000E+00 0. -1.
         -1    1    3    3    0  502 -0.58170644825E+03 -0.17154078434E+04 -0.77791237544E+03  0.19713330833E+04  0.00000000000E+00 0.  1.
         13    1    5    5    0    0  0.33115500553E+03  0.17874420209E+04 -0.65670105710E+03  0.19328395935E+04  0.00000000000E+00 0. -1.
        -13    1    5    5    0    0  0.66737547101E+01  0.56101642130E+01 -0.53539945428E+01  0.10231236582E+02  0.00000000000E+00 0.  1.
          4    1    6    6  503    0  0.23406697159E+02  0.58006440801E+02  0.43911635717E+01  0.62704887878E+02  0.00000000000E+00 0.  1.
         -4    1    6    6    0  503  0.37306648424E+03  0.30765989683E+03  0.13208682899E+03  0.50127850959E+03  0.00000000000E+00 0. -1.
<mgrwt>
<rscale>  0 0.47622988E+04</rscale>
<asrwt>0</asrwt>
<pdfrwt beam="1">  1        2 0.50454690E+00 0.47622988E+04</pdfrwt>
<pdfrwt beam="2">  1       -1 0.26597758E+00 0.47622988E+04</pdfrwt>
<totfact> 0.53077780E-02</totfact>
</mgrwt>
</event>
<event>
12    7  0.2492439E-007  0.1170964E+04  0.7818608E-02  0.9138658E-01
          2   -1    0    0  501    0  0.00000000000E+00  0.00000000000E+00  0.17003569021E+03  0.17003569021E+03  0.00000000000E+00 0. -1.
         -1   -1    0    0    0  501 -0.00000000000E+00 -0.00000000000E+00 -0.20159843923E+04  0.20159843923E+04  0.00000000000E+00 0.  1.
         24    2    1    2    0    0 -0.54811150513E+02 -0.23135265694E+02 -0.79898038891E+03  0.80541511676E+03  0.82367139698E+02 0.  0.
        254    2    1    2    0    0  0.54811150513E+02  0.23135265694E+02 -0.10469683132E+04  0.13806049657E+04  0.89799104668E+03 0.  0.
         23    2    4    4    0    0  0.20380274111E+03 -0.21272595560E+03 -0.15644113357E+02  0.30887074436E+03  0.91479554916E+02 0.  0.
         23    2    4    4    0    0 -0.14899159060E+03  0.23586122129E+03 -0.10313241998E+04  0.10717342214E+04  0.84590935687E+02 0.  0.
          4    1    3    3  502    0 -0.27042025280E+02 -0.39497602603E+02 -0.20313938356E+03  0.20870299685E+03  0.00000000000E+00 0. -1.
         -3    1    3    3    0  502 -0.27769125233E+02  0.16362336908E+02 -0.59584100535E+03  0.59671211991E+03  0.00000000000E+00 0.  1.
         13    1    5    5    0    0  0.18726752718E+03 -0.16956346566E+03  0.15553017688E+02  0.25310628594E+03  0.00000000000E+00 0. -1.
        -13    1    5    5    0    0  0.16535213933E+02 -0.43162489934E+02 -0.31197131044E+02  0.55764458417E+02  0.00000000000E+00 0.  1.
          1    1    6    6  503    0 -0.88921843480E+02  0.15351831564E+03 -0.49553288713E+03  0.52633431364E+03  0.00000000000E+00 0. -1.
         -1    1    6    6    0  503 -0.60069747116E+02  0.82342905650E+02 -0.53579131267E+03  0.54539990774E+03  0.00000000000E+00 0.  1.
<mgrwt>
<rscale>  0 0.11709642E+04</rscale>
<asrwt>0</asrwt>
<pdfrwt beam="1">  1        2 0.26159335E-01 0.11709642E+04</pdfrwt>
<pdfrwt beam="2">  1       -1 0.31015146E+00 0.11709642E+04</pdfrwt>
<totfact> 0.67605192E+00</totfact>
</mgrwt>
</event>
<event>
12    7  0.2492439E-007  0.2031629E+04  0.7818608E-02  0.8591974E-01
          2   -1    0    0  501    0  0.00000000000E+00  0.00000000000E+00  0.44627832751E+04  0.44627832751E+04  0.00000000000E+00 0. -1.
         -1   -1    0    0    0  501 -0.00000000000E+00 -0.00000000000E+00 -0.23121883063E+03  0.23121883063E+03  0.00000000000E+00 0.  1.
         24    2    1    2    0    0  0.58757605987E+03 -0.20872162151E+03  0.49524524283E+03  0.80049495358E+03  0.81938871996E+02 0.  0.
        254    2    1    2    0    0 -0.58757605987E+03  0.20872162151E+03  0.37363192017E+04  0.38935071522E+04  0.90028130376E+03 0.  0.
         23    2    4    4    0    0 -0.30274416893E+03  0.53282524998E+03  0.16812045224E+04  0.17916272929E+04  0.89010851039E+02 0.  0.
         23    2    4    4    0    0 -0.28483189094E+03 -0.32410362848E+03  0.20551146792E+04  0.21018798593E+04  0.90720614649E+02 0.  0.
          4    1    3    3  502    0  0.11617053631E+03 -0.80960780387E+01  0.98183486689E+02  0.15231919461E+03  0.00000000000E+00 0. -1.
         -3    1    3    3    0  502  0.47140552355E+03 -0.20062554347E+03  0.39706175614E+03  0.64817575897E+03  0.00000000000E+00 0.  1.
         13    1    5    5    0    0 -0.23450801737E+02  0.16014146705E+02  0.45525748300E+02  0.53656190277E+02  0.00000000000E+00 0. -1.
        -13    1    5    5    0    0 -0.27929336720E+03  0.51681110328E+03  0.16356787741E+04  0.17379711026E+04  0.00000000000E+00 0.  1.
          1    1    6    6  503    0 -0.17765646655E+03 -0.24732840725E+03  0.15644518145E+04  0.15938138665E+04  0.00000000000E+00 0. -1.
         -1    1    6    6    0  503 -0.10717542438E+03 -0.76775221223E+02  0.49066286470E+03  0.50806599274E+03  0.00000000000E+00 0.  1.
<mgrwt>
<rscale>  0 0.20316294E+04</rscale>
<asrwt>0</asrwt>
<pdfrwt beam="1">  1        2 0.68658197E+00 0.20316294E+04</pdfrwt>
<pdfrwt beam="2">  1       -1 0.35572131E-01 0.20316294E+04</pdfrwt>
<totfact> 0.10797111E+00</totfact>
</mgrwt>
</event>
<event>
12    7  0.2492439E-007  0.2972371E+04  0.7818608E-02  0.8251665E-01
          2   -1    0    0  501    0  0.00000000000E+00  0.00000000000E+00  0.10993973094E+04  0.10993973094E+04  0.00000000000E+00 0. -1.
         -1   -1    0    0    0  501 -0.00000000000E+00 -0.00000000000E+00 -0.20090533682E+04  0.20090533682E+04  0.00000000000E+00 0.  1.
         24    2    1    2    0    0  0.76628030862E+03  0.39824147750E+03  0.66902814859E+03  0.10954146389E+04  0.80949254388E+02 0.  0.
        254    2    1    2    0    0 -0.76628030862E+03 -0.39824147750E+03 -0.15786842075E+04  0.20130360387E+04  0.90237934391E+03 0.  0.
         23    2    4    4    0    0 -0.24470363098E+03 -0.61142370805E+03 -0.70331691672E+03  0.96792784209E+03  0.92254020831E+02 0.  0.
         23    2    4    4    0    0 -0.52157667764E+03  0.21318223055E+03 -0.87536729075E+03  0.10451081966E+04  0.92164823995E+02 0.  0.
          4    1    3    3  502    0  0.53665778488E+03  0.23800120175E+03  0.46637387721E+03  0.74976712614E+03  0.00000000000E+00 0. -1.
         -3    1    3    3    0  502  0.22962252374E+03  0.16024027575E+03  0.20265427138E+03  0.34564751278E+03  0.00000000000E+00 0.  1.
         13    1    5    5    0    0 -0.14071234065E+02 -0.38954176857E+02 -0.83651351348E+02  0.93343323837E+02  0.00000000000E+00 0.  1.
        -13    1    5    5    0    0 -0.23063239691E+03 -0.57246953119E+03 -0.61966556537E+03  0.87458451825E+03  0.00000000000E+00 0. -1.
          4    1    6    6  503    0 -0.41925726566E+03  0.16460236181E+03 -0.75993524367E+03  0.88338675952E+03  0.00000000000E+00 0. -1.
         -4    1    6    6    0  503 -0.10231941198E+03  0.48579868746E+02 -0.11543204708E+03  0.16172143707E+03  0.00000000000E+00 0.  1.
<mgrwt>
<rscale>  0 0.29723714E+04</rscale>
<asrwt>0</asrwt>
<pdfrwt beam="1">  1        2 0.16913805E+00 0.29723714E+04</pdfrwt>
<pdfrwt beam="2">  1       -1 0.30908513E+00 0.29723714E+04</pdfrwt>
<totfact> 0.61447176E-01</totfact>
</mgrwt>
</event>
<event>
12    7  0.2492439E-007  0.2956001E+04  0.7818608E-02  0.8256408E-01
         -1   -1    0    0    0  501 -0.00000000000E+00  0.00000000000E+00  0.10809273393E+04  0.10809273393E+04  0.00000000000E+00 0.  1.
          2   -1    0    0  501    0  0.00000000000E+00 -0.00000000000E+00 -0.20209366216E+04  0.20209366216E+04  0.00000000000E+00 0. -1.
         24    2    1    2    0    0 -0.84210764991E+03 -0.10311240583E+04 -0.27224815211E+03  0.13611757246E+04  0.79486976179E+02 0.  0.
        254    2    1    2    0    0  0.84210764991E+03  0.10311240583E+04 -0.66776113014E+03  0.17406882362E+04  0.90095976118E+03 0.  0.
         23    2    4    4    0    0  0.81108052284E+03  0.11211439431E+04 -0.75721915413E+03  0.15799411305E+04  0.89542016909E+02 0.  0.
         23    2    4    4    0    0  0.31027127067E+02 -0.90019884796E+02  0.89458023988E+02  0.16074710576E+03  0.93651650714E+02 0.  0.
          4    1    3    3  502    0 -0.45427826269E+03 -0.51640339265E+03 -0.17187743885E+03  0.70893092603E+03  0.00000000000E+00 0. -1.
         -3    1    3    3    0  502 -0.38782938721E+03 -0.51472066563E+03 -0.10037071327E+03  0.65224479859E+03  0.00000000000E+00 0.  1.
         13    1    5    5    0    0  0.40724462241E+03  0.48682194532E+03 -0.34698305999E+03  0.72335401627E+03  0.00000000000E+00 0.  1.
        -13    1    5    5    0    0  0.40383590043E+03  0.63432199775E+03 -0.41023609414E+03  0.85658711421E+03  0.00000000000E+00 0. -1.
          4    1    6    6  503    0  0.43841758310E+02 -0.18190078548E+02  0.71136031088E+02  0.85517914195E+02  0.00000000000E+00 0. -1.
         -4    1    6    6    0  503 -0.12814631243E+02 -0.71829806249E+02  0.18321992900E+02  0.75229191564E+02  0.00000000000E+00 0.  1.
<mgrwt>
<rscale>  0 0.29560011E+04</rscale>
<asrwt>0</asrwt>
<pdfrwt beam="1">  1        2 0.31091333E+00 0.29560011E+04</pdfrwt>
<pdfrwt beam="2">  1       -1 0.16629651E+00 0.29560011E+04</pdfrwt>
<totfact> 0.16658871E+00</totfact>
</mgrwt>
</event>
<event>
12    7  0.2492439E-007  0.2113562E+04  0.7818608E-02  0.8555293E-01
          2   -1    0    0  501    0  0.00000000000E+00  0.00000000000E+00  0.87207008337E+03  0.87207008337E+03  0.00000000000E+00 0. -1.
         -1   -1    0    0    0  501 -0.00000000000E+00 -0.00000000000E+00 -0.12806151729E+04  0.12806151729E+04  0.00000000000E+00 0.  1.
         24    2    1    2    0    0  0.54696461627E+03  0.66700097019E+03 -0.14053105674E+03  0.87742788796E+03  0.77911070957E+02 0.  0.
        254    2    1    2    0    0 -0.54696461627E+03 -0.66700097019E+03 -0.26801403274E+03  0.12752573683E+04  0.90021622285E+03 0.  0.
         23    2    4    4    0    0 -0.75904544761E+02  0.18715249084E+03  0.78544850698E+02  0.23512820825E+03  0.91260210395E+02 0.  0.
         23    2    4    4    0    0 -0.47106007150E+03 -0.85415346103E+03 -0.34655888344E+03  0.10401291600E+04  0.10143906486E+03 0.  0.
          4    1    3    3  502    0  0.37726371731E+03  0.44515775248E+03 -0.13054015303E+03  0.59794152602E+03  0.00000000000E+00 0. -1.
         -1    1    3    3    0  502  0.16970089896E+03  0.22184321771E+03 -0.99909037132E+01  0.27948636194E+03  0.00000000000E+00 0.  1.
         13    1    5    5    0    0 -0.78258460368E+02  0.16323560942E+03  0.96489631679E+02  0.20513532076E+03  0.00000000000E+00 0. -1.
        -13    1    5    5    0    0  0.23539156073E+01  0.23916881416E+02 -0.17944780982E+02  0.29992887487E+02  0.00000000000E+00 0.  1.
          2    1    6    6  503    0 -0.53225870054E+02 -0.17670271533E+03 -0.73663608247E+02  0.19870372424E+03  0.00000000000E+00 0. -1.
         -2    1    6    6    0  503 -0.41783420145E+03 -0.67745074570E+03 -0.27289527519E+03  0.84142543578E+03  0.00000000000E+00 0.  1.
<mgrwt>
<rscale>  0 0.21135621E+04</rscale>
<asrwt>0</asrwt>
<pdfrwt beam="1">  1        2 0.13416463E+00 0.21135621E+04</pdfrwt>
<pdfrwt beam="2">  1       -1 0.19701772E+00 0.21135621E+04</pdfrwt>
<totfact> 0.50783951E+00</totfact>
</mgrwt>
</event>
<event>
12    7  0.2492439E-007  0.1452164E+04  0.7818608E-02  0.8916901E-01
         -3   -1    0    0    0  501 -0.00000000000E+00  0.00000000000E+00  0.50701095453E+03  0.50701095453E+03  0.00000000000E+00 0.  1.
          4   -1    0    0  501    0  0.00000000000E+00 -0.00000000000E+00 -0.10398104945E+04  0.10398104945E+04  0.00000000000E+00 0. -1.
         24    2    1    2    0    0  0.40623923088E+03  0.85351374510E+02 -0.10842301074E+00  0.42045024295E+03  0.66807373880E+02 0.  0.
        254    2    1    2    0    0 -0.40623923088E+03 -0.85351374510E+02 -0.53269111694E+03  0.11263712061E+04  0.90146386391E+03 0.  0.
         23    2    4    4    0    0 -0.45170273045E+03  0.64285607701E+02  0.94087489727E+02  0.47397603000E+03  0.87366041643E+02 0.  0.
         23    2    4    4    0    0  0.45463499579E+02 -0.14963698221E+03 -0.62677860667E+03  0.65239517606E+03  0.91158585608E+02 0.  0.
          4    1    3    3  502    0  0.15289123285E+03  0.25886853857E+02 -0.31800733375E+02  0.15829448799E+03  0.00000000000E+00 0. -1.
         -3    1    3    3    0  502  0.25334799803E+03  0.59464520653E+02  0.31692310364E+02  0.26215575496E+03  0.00000000000E+00 0.  1.
         13    1    5    5    0    0 -0.41755854333E+03  0.82435974905E+02  0.81847625107E+02  0.43341649807E+03  0.00000000000E+00 0. -1.
        -13    1    5    5    0    0 -0.34144187123E+02 -0.18150367204E+02  0.12239864620E+02  0.40559531923E+02  0.00000000000E+00 0.  1.
          1    1    6    6  503    0 -0.23238993882E+01 -0.11293142466E+03 -0.49134655000E+03  0.50416300873E+03  0.00000000000E+00 0. -1.
         -1    1    6    6    0  503  0.47787398967E+02 -0.36705557555E+02 -0.13543205667E+03  0.14823216732E+03  0.00000000000E+00 0.  1.
<mgrwt>
<rscale>  0 0.14521643E+04</rscale>
<asrwt>0</asrwt>
<pdfrwt beam="1">  1        4 0.15997085E+00 0.14521643E+04</pdfrwt>
<pdfrwt beam="2">  1       -3 0.78001685E-01 0.14521643E+04</pdfrwt>
<totfact> 0.85350934E-01</totfact>
</mgrwt>
</event>
<event>
12    7  0.2492439E-007  0.2039273E+04  0.7818608E-02  0.8588476E-01
          2   -1    0    0  501    0  0.00000000000E+00  0.00000000000E+00  0.53221897141E+03  0.53221897141E+03  0.00000000000E+00 0. -1.
         -1   -1    0    0    0  501 -0.00000000000E+00 -0.00000000000E+00 -0.19534419361E+04  0.19534419361E+04  0.00000000000E+00 0.  1.
         24    2    1    2    0    0  0.12490275029E+03 -0.80857221884E+03 -0.55757920386E+03  0.99323431174E+03  0.78930978336E+02 0.  0.
        254    2    1    2    0    0 -0.12490275029E+03  0.80857221884E+03 -0.86364376088E+03  0.14924265958E+04  0.90114752846E+03 0.  0.
         23    2    4    4    0    0  0.17866217959E+03 -0.53604692779E+02  0.31400848994E+02  0.20994014088E+03  0.91078054072E+02 0.  0.
         23    2    4    4    0    0 -0.30356492988E+03  0.86217691162E+03 -0.89504460987E+03  0.12824864549E+04  0.90365700441E+02 0.  0.
          2    1    3    3  502    0  0.23894925743E+02 -0.62968234299E+02 -0.27003040509E+02  0.72561216940E+02  0.00000000000E+00 0. -1.
         -1    1    3    3    0  502  0.10100782455E+03 -0.74560398454E+03 -0.53057616335E+03  0.92067309480E+03  0.00000000000E+00 0.  1.
         13    1    5    5    0    0  0.76376075057E+02 -0.61172795055E+02 -0.11966121571E+02  0.98582979065E+02  0.00000000000E+00 0. -1.
        -13    1    5    5    0    0  0.10228610453E+03  0.75681022756E+01  0.43366970565E+02  0.11135716182E+03  0.00000000000E+00 0.  1.
          2    1    6    6  503    0 -0.24976350174E+03  0.67816609071E+03 -0.65568334976E+03  0.97581335743E+03  0.00000000000E+00 0. -1.
         -2    1    6    6    0  503 -0.53801428136E+02  0.18401082091E+03 -0.23936126011E+03  0.30667309749E+03  0.00000000000E+00 0.  1.
<mgrwt>
<rscale>  0 0.20392733E+04</rscale>
<asrwt>0</asrwt>
<pdfrwt beam="1">  1        2 0.81879841E-01 0.20392733E+04</pdfrwt>
<pdfrwt beam="2">  1       -1 0.30052953E+00 0.20392733E+04</pdfrwt>
<totfact> 0.19848458E+00</totfact>
</mgrwt>
</event>
<event>
12    7  0.2492439E-007  0.3234487E+04  0.7818608E-02  0.8179768E-01
         -1   -1    0    0    0  501 -0.00000000000E+00  0.00000000000E+00  0.17512600836E+04  0.17512600836E+04  0.00000000000E+00 0.  1.
          2   -1    0    0  501    0  0.00000000000E+00 -0.00000000000E+00 -0.14934822364E+04  0.14934822364E+04  0.00000000000E+00 0. -1.
         24    2    1    2    0    0  0.27193243680E+03 -0.13583723569E+04 -0.43256580744E+03  0.14533625626E+04  0.77632792423E+02 0.  0.
        254    2    1    2    0    0 -0.27193243680E+03  0.13583723569E+04  0.69034365467E+03  0.17913797574E+04  0.90185606584E+03 0.  0.
         23    2    4    4    0    0  0.10791515404E+03  0.11448397535E+04  0.69497884511E+03  0.13465066592E+04  0.88209106388E+02 0.  0.
         23    2    4    4    0    0 -0.37984759084E+03  0.21353260346E+03 -0.46351904388E+01  0.44487309825E+03  0.89499852225E+02 0.  0.
          4    1    3    3  502    0  0.17782885747E+03 -0.91480553793E+03 -0.32852894704E+03  0.98814145942E+03  0.00000000000E+00 0. -1.
         -3    1    3    3    0  502  0.94103579337E+02 -0.44356681900E+03 -0.10403686040E+03  0.46522110322E+03  0.00000000000E+00 0.  1.
         13    1    5    5    0    0 -0.10954293288E+02  0.28819791583E+03  0.17848881790E+03  0.33917000656E+03  0.00000000000E+00 0. -1.
        -13    1    5    5    0    0  0.11886944732E+03  0.85664183764E+03  0.51649002721E+03  0.10073366526E+04  0.00000000000E+00 0.  1.
          1    1    6    6  503    0 -0.93287797563E+02  0.18493378972E+02  0.20637409362E+02  0.97316601385E+02  0.00000000000E+00 0. -1.
         -1    1    6    6    0  503 -0.28655979328E+03  0.19503922449E+03 -0.25272599801E+02  0.34755649686E+03  0.00000000000E+00 0.  1.
<mgrwt>
<rscale>  0 0.32344866E+04</rscale>
<asrwt>0</asrwt>
<pdfrwt beam="1">  1        2 0.22976650E+00 0.32344866E+04</pdfrwt>
<pdfrwt beam="2">  1       -1 0.26942463E+00 0.32344866E+04</pdfrwt>
<totfact> 0.63779574E-01</totfact>
</mgrwt>
</event>
<event>
12    7  0.2492439E-007  0.1967564E+04  0.7818608E-02  0.8621938E-01
          2   -1    0    0  501    0  0.00000000000E+00  0.00000000000E+00  0.45628510232E+03  0.45628510232E+03  0.00000000000E+00 0. -1.
         -1   -1    0    0    0  501 -0.00000000000E+00 -0.00000000000E+00 -0.21211008125E+04  0.21211008125E+04  0.00000000000E+00 0.  1.
         24    2    1    2    0    0  0.56928727509E+03  0.52253531985E+03 -0.75267971279E+03  0.10814906752E+04  0.77228028181E+02 0.  0.
        254    2    1    2    0    0 -0.56928727509E+03 -0.52253531985E+03 -0.91213599735E+03  0.14958952396E+04  0.89921039150E+03 0.  0.
         23    2    4    4    0    0  0.18571593430E+02  0.10481009848E+03 -0.53469881857E+03  0.55275637332E+03  0.91141213737E+02 0.  0.
         23    2    4    4    0    0 -0.58785886852E+03 -0.62734541833E+03 -0.37743717878E+03  0.94313886630E+03  0.88948153467E+02 0.  0.
          4    1    3    3  502    0  0.29129812402E+03  0.30193326882E+03 -0.44776855877E+03  0.61360816332E+03  0.00000000000E+00 0. -1.
         -3    1    3    3    0  502  0.27798915107E+03  0.22060205103E+03 -0.30491115402E+03  0.46788251183E+03  0.00000000000E+00 0.  1.
         13    1    5    5    0    0 -0.40820225762E+01  0.58368744314E+02 -0.10704886489E+03  0.12199603557E+03  0.00000000000E+00 0. -1.
        -13    1    5    5    0    0  0.22653616006E+02  0.46441354161E+02 -0.42764995368E+03  0.43076033775E+03  0.00000000000E+00 0.  1.
          1    1    6    6  503    0 -0.16239042402E+03 -0.20891162231E+03 -0.15250062839E+03  0.30540327013E+03  0.00000000000E+00 0. -1.
         -1    1    6    6    0  503 -0.42546844450E+03 -0.41843379602E+03 -0.22493655040E+03  0.63773559617E+03  0.00000000000E+00 0.  1.
<mgrwt>
<rscale>  0 0.19675637E+04</rscale>
<asrwt>0</asrwt>
<pdfrwt beam="1">  1        2 0.70197709E-01 0.19675637E+04</pdfrwt>
<pdfrwt beam="2">  1       -1 0.32632320E+00 0.19675637E+04</pdfrwt>
<totfact> 0.16233246E+00</totfact>
</mgrwt>
</event>
<event>
12    7  0.2492439E-007  0.4139524E+04  0.7818608E-02  0.7976977E-01
         -1   -1    0    0    0  501 -0.00000000000E+00  0.00000000000E+00  0.14084204972E+04  0.14084204972E+04  0.00000000000E+00 0.  1.
          2   -1    0    0  501    0  0.00000000000E+00 -0.00000000000E+00 -0.30416448814E+04  0.30416448814E+04  0.00000000000E+00 0. -1.
         24    2    1    2    0    0 -0.10140314540E+04 -0.16648976976E+04 -0.46821989974E+03  0.20071217638E+04  0.95727565795E+02 0.  0.
        254    2    1    2    0    0  0.10140314540E+04  0.16648976976E+04 -0.11650044845E+04  0.24429436148E+04  0.90032989682E+03 0.  0.
         23    2    4    4    0    0  0.35748036611E+03  0.64433388389E+02 -0.38016378861E+02  0.37638792633E+03  0.90987649362E+02 0.  0.
         23    2    4    4    0    0  0.65655108785E+03  0.16004643092E+04 -0.11269881056E+04  0.20665556885E+04  0.89470035573E+02 0.  0.
          4    1    3    3  502    0 -0.63877790102E+03 -0.10188311011E+04 -0.24357271842E+03  0.12269399694E+04  0.00000000000E+00 0. -1.
         -3    1    3    3    0  502 -0.37525355294E+03 -0.64606659654E+03 -0.22464718132E+03  0.78018179435E+03  0.00000000000E+00 0.  1.
         13    1    5    5    0    0  0.32446211469E+03  0.68572291584E+02 -0.82358613052E+01  0.33173129556E+03  0.00000000000E+00 0. -1.
        -13    1    5    5    0    0  0.33018251423E+02 -0.41389031952E+01 -0.29780517556E+02  0.44656630779E+02  0.00000000000E+00 0.  1.
          1    1    6    6  503    0  0.47928535458E+03  0.11691835368E+04 -0.77513987279E+03  0.14824123637E+04  0.00000000000E+00 0. -1.
         -1    1    6    6    0  503  0.17726573327E+03  0.43128077247E+03 -0.35184823285E+03  0.58414332475E+03  0.00000000000E+00 0.  1.
<mgrwt>
<rscale>  0 0.41395241E+04</rscale>
<asrwt>0</asrwt>
<pdfrwt beam="1">  1        2 0.46794536E+00 0.41395241E+04</pdfrwt>
<pdfrwt beam="2">  1       -1 0.21668008E+00 0.41395241E+04</pdfrwt>
<totfact> 0.16811344E-01</totfact>
</mgrwt>
</event>
<event>
12    7  0.2492439E-007  0.1807898E+04  0.7818608E-02  0.8702111E-01
          2   -1    0    0  501    0  0.00000000000E+00  0.00000000000E+00  0.23911924773E+04  0.23911924773E+04  0.00000000000E+00 0. -1.
         -1   -1    0    0    0  501 -0.00000000000E+00 -0.00000000000E+00 -0.34172238587E+03  0.34172238587E+03  0.00000000000E+00 0.  1.
         24    2    1    2    0    0 -0.39971671030E+03 -0.37641098722E+03  0.13432943496E+04  0.14535052607E+04  0.82335612892E+02 0.  0.
        254    2    1    2    0    0  0.39971671030E+03  0.37641098722E+03  0.70617574181E+03  0.12794096026E+04  0.91473825382E+03 0.  0.
         23    2    4    4    0    0  0.23343834287E+03  0.65189131403E+03  0.61723151658E+03  0.93208521391E+03  0.91391223320E+02 0.  0.
         23    2    4    4    0    0  0.16627836743E+03 -0.27548032681E+03  0.88944225231E+02  0.34732438865E+03  0.95839708958E+02 0.  0.
          2    1    3    3  502    0 -0.31908362389E+03 -0.28355022812E+03  0.11199068665E+04  0.11985017649E+04  0.00000000000E+00 0. -1.
         -1    1    3    3    0  502 -0.80633086415E+02 -0.92860759099E+02  0.22338748318E+03  0.25500349576E+03  0.00000000000E+00 0.  1.
         13    1    5    5    0    0  0.81773838559E+02  0.12755437358E+03  0.11321039211E+03  0.18913929199E+03  0.00000000000E+00 0.  1.
        -13    1    5    5    0    0  0.15166450431E+03  0.52433694045E+03  0.50402112447E+03  0.74294592192E+03  0.00000000000E+00 0. -1.
          3    1    6    6  503    0  0.13266357249E+03 -0.20452165408E+03  0.10783561700E+03  0.26656565936E+03  0.00000000000E+00 0. -1.
         -3    1    6    6    0  503  0.33614794935E+02 -0.70958672724E+02 -0.18891391766E+02  0.80758729288E+02  0.00000000000E+00 0.  1.
<mgrwt>
<rscale>  0 0.18078982E+04</rscale>
<asrwt>0</asrwt>
<pdfrwt beam="1">  1        2 0.36787575E+00 0.18078982E+04</pdfrwt>
<pdfrwt beam="2">  1       -1 0.52572676E-01 0.18078982E+04</pdfrwt>
<totfact> 0.15765096E+01</totfact>
</mgrwt>
</event>
<event>
12    7  0.2492439E-007  0.1800401E+04  0.7818608E-02  0.8706086E-01
          2   -1    0    0  501    0  0.00000000000E+00  0.00000000000E+00  0.11272081124E+04  0.11272081124E+04  0.00000000000E+00 0. -1.
         -1   -1    0    0    0  501 -0.00000000000E+00 -0.00000000000E+00 -0.71890987637E+03  0.71890987637E+03  0.00000000000E+00 0.  1.
         24    2    1    2    0    0 -0.75405614423E+02 -0.70520718219E+02 -0.52727053312E+03  0.54337321109E+03  0.81123689779E+02 0.  0.
        254    2    1    2    0    0  0.75405614423E+02  0.70520718219E+02  0.93556876915E+03  0.13027447777E+04  0.90066411919E+03 0.  0.
         23    2    4    4    0    0  0.30280919487E+03 -0.29905792447E+03  0.30193688218E+03  0.52930689298E+03  0.88717841767E+02 0.  0.
         23    2    4    4    0    0 -0.22740358044E+03  0.36957864269E+03  0.63363188697E+03  0.77343788471E+03  0.91738932783E+02 0.  0.
          4    1    3    3  502    0 -0.25597338751E+02  0.84088310197E+01 -0.47503663652E+02  0.54612546641E+02  0.00000000000E+00 0. -1.
         -3    1    3    3    0  502 -0.49808275672E+02 -0.78929549239E+02 -0.47976686947E+03  0.48876066445E+03  0.00000000000E+00 0.  1.
         13    1    5    5    0    0  0.20136030480E+03 -0.16523468258E+03  0.22661728651E+03  0.34525913053E+03  0.00000000000E+00 0.  1.
        -13    1    5    5    0    0  0.10144889007E+03 -0.13382324190E+03  0.75319595676E+02  0.18404776244E+03  0.00000000000E+00 0. -1.
          4    1    6    6  503    0 -0.10680987193E+03  0.18588246903E+03  0.39225892064E+03  0.44702091881E+03  0.00000000000E+00 0. -1.
         -4    1    6    6    0  503 -0.12059370851E+03  0.18369617366E+03  0.24137296633E+03  0.32641696590E+03  0.00000000000E+00 0.  1.
<mgrwt>
<rscale>  0 0.18004011E+04</rscale>
<asrwt>0</asrwt>
<pdfrwt beam="1">  1        2 0.17341663E+00 0.18004011E+04</pdfrwt>
<pdfrwt beam="2">  1       -1 0.11060152E+00 0.18004011E+04</pdfrwt>
<totfact> 0.17005500E+01</totfact>
</mgrwt>
</event>
<event>
12    7  0.2492439E-007  0.2104210E+04  0.7818608E-02  0.8559391E-01
          2   -1    0    0  501    0  0.00000000000E+00  0.00000000000E+00  0.78243503552E+03  0.78243503552E+03  0.00000000000E+00 0. -1.
         -1   -1    0    0    0  501 -0.00000000000E+00 -0.00000000000E+00 -0.14147185566E+04  0.14147185566E+04  0.00000000000E+00 0.  1.
         24    2    1    2    0    0  0.51685048730E+03 -0.41066138058E+03  0.31237780075E+03  0.73469968387E+03  0.80165699318E+02 0.  0.
        254    2    1    2    0    0 -0.51685048730E+03  0.41066138058E+03 -0.94466132182E+03  0.14624539082E+04  0.90033839474E+03 0.  0.
         23    2    4    4    0    0  0.82828692253E+02  0.40482383223E+03 -0.67927667462E+03  0.80024443596E+03  0.90727224225E+02 0.  0.
         23    2    4    4    0    0 -0.59967917955E+03  0.58375483536E+01 -0.26538464720E+03  0.66220947227E+03  0.91886771799E+02 0.  0.
          2    1    3    3  502    0  0.11525997112E+03 -0.51631264892E+02  0.58025924607E+02  0.13898797209E+03  0.00000000000E+00 0. -1.
         -1    1    3    3    0  502  0.40159051617E+03 -0.35903011569E+03  0.25435187615E+03  0.59571171178E+03  0.00000000000E+00 0.  1.
         13    1    5    5    0    0 -0.37352834612E+00  0.16213585073E+03 -0.32049049836E+03  0.35916894793E+03  0.00000000000E+00 0. -1.
        -13    1    5    5    0    0  0.83202220599E+02  0.24268798150E+03 -0.35878617625E+03  0.44107548804E+03  0.00000000000E+00 0.  1.
          3    1    6    6  503    0 -0.21727667157E+03  0.42920737743E+02 -0.11578300979E+03  0.24991407942E+03  0.00000000000E+00 0. -1.
         -3    1    6    6    0  503 -0.38240250798E+03 -0.37083189389E+02 -0.14960163742E+03  0.41229539285E+03  0.00000000000E+00 0.  1.
<mgrwt>
<rscale>  0 0.21042104E+04</rscale>
<asrwt>0</asrwt>
<pdfrwt beam="1">  1        2 0.12037462E+00 0.21042104E+04</pdfrwt>
<pdfrwt beam="2">  1       -1 0.21764901E+00 0.21042104E+04</pdfrwt>
<totfact> 0.42558727E+00</totfact>
</mgrwt>
</event>
<event>
12    7  0.2492439E-007  0.1292859E+04  0.7818608E-02  0.9035247E-01
         -1   -1    0    0    0  501 -0.00000000000E+00  0.00000000000E+00  0.67171780570E+03  0.67171780570E+03  0.00000000000E+00 0.  1.
          2   -1    0    0  501    0  0.00000000000E+00 -0.00000000000E+00 -0.62209354704E+03  0.62209354704E+03  0.00000000000E+00 0. -1.
         24    2    1    2    0    0 -0.23255970398E+03 -0.78861320186E+02  0.22680003559E+03  0.34356731277E+03  0.79354385658E+02 0.  0.
        254    2    1    2    0    0  0.23255970398E+03  0.78861320186E+02 -0.17717577693E+03  0.95024403996E+03  0.90070492161E+03 0.  0.
         23    2    4    4    0    0 -0.19094377394E+03 -0.29259890288E+03 -0.42899581528E+02  0.36364474913E+03  0.91233144736E+02 0.  0.
         23    2    4    4    0    0  0.42350347792E+03  0.37146022307E+03 -0.13427619540E+03  0.58659929084E+03  0.93438419439E+02 0.  0.
          4    1    3    3  502    0 -0.38713146586E+02  0.16404477530E+02  0.39034368498E+02  0.57371565481E+02  0.00000000000E+00 0. -1.
         -3    1    3    3    0  502 -0.19384655740E+03 -0.95265797716E+02  0.18776566709E+03  0.28619574729E+03  0.00000000000E+00 0.  1.
         13    1    5    5    0    0 -0.13640927635E+02  0.15614974007E+01  0.88068584618E+01  0.16311772952E+02  0.00000000000E+00 0.  1.
        -13    1    5    5    0    0 -0.17730284630E+03 -0.29416040028E+03 -0.51706439990E+02  0.34733297617E+03  0.00000000000E+00 0. -1.
          3    1    6    6  503    0  0.37167412631E+03  0.31308318732E+03 -0.14653434965E+03  0.50757763345E+03  0.00000000000E+00 0. -1.
         -3    1    6    6    0  503  0.51829351607E+02  0.58377035750E+02  0.12258154243E+02  0.79021657388E+02  0.00000000000E+00 0.  1.
<mgrwt>
<rscale>  0 0.12928593E+04</rscale>
<asrwt>0</asrwt>
<pdfrwt beam="1">  1        2 0.95706699E-01 0.12928593E+04</pdfrwt>
<pdfrwt beam="2">  1       -1 0.10334120E+00 0.12928593E+04</pdfrwt>
<totfact> 0.47009902E+01</totfact>
</mgrwt>
</event>
<event>
12    7  0.2492439E-007  0.1291057E+04  0.7818608E-02  0.9036687E-01
         -1   -1    0    0    0  501 -0.00000000000E+00  0.00000000000E+00  0.12583398829E+03  0.12583398829E+03  0.00000000000E+00 0.  1.
          2   -1    0    0  501    0  0.00000000000E+00 -0.00000000000E+00 -0.33115604489E+04  0.33115604489E+04  0.00000000000E+00 0. -1.
         24    2    1    2    0    0 -0.23527097814E+03  0.12519339030E+03 -0.13116598368E+04  0.13407959100E+04  0.79096944291E+02 0.  0.
        254    2    1    2    0    0  0.23527097814E+03 -0.12519339030E+03 -0.18740666239E+04  0.20965985273E+04  0.90142878571E+03 0.  0.
         23    2    4    4    0    0  0.56848348645E+03 -0.78383111306E+02 -0.13149030260E+04  0.14375205124E+04  0.90431571862E+02 0.  0.
         23    2    4    4    0    0 -0.33321250831E+03 -0.46810278994E+02 -0.55916359782E+03  0.65907801486E+03  0.92185262505E+02 0.  0.
          4    1    3    3  502    0 -0.14378090263E+03  0.81531352118E+02 -0.98485752323E+03  0.99863138865E+03  0.00000000000E+00 0. -1.
         -3    1    3    3    0  502 -0.91490075516E+02  0.43662038182E+02 -0.32680231355E+03  0.34216452131E+03  0.00000000000E+00 0.  1.
         13    1    5    5    0    0  0.23191033311E+03 -0.52725499369E+02 -0.44790131721E+03  0.50712717424E+03  0.00000000000E+00 0. -1.
        -13    1    5    5    0    0  0.33657315334E+03 -0.25657611938E+02 -0.86700170882E+03  0.93039333817E+03  0.00000000000E+00 0.  1.
          4    1    6    6  503    0 -0.27986165891E+03 -0.53953963360E+02 -0.51830112160E+03  0.59149778608E+03  0.00000000000E+00 0. -1.
         -4    1    6    6    0  503 -0.53350849401E+02  0.71436843662E+01 -0.40862476227E+02  0.67580228777E+02  0.00000000000E+00 0.  1.
<mgrwt>
<rscale>  0 0.12910567E+04</rscale>
<asrwt>0</asrwt>
<pdfrwt beam="1">  1        2 0.50947087E+00 0.12910567E+04</pdfrwt>
<pdfrwt beam="2">  1       -1 0.19359074E-01 0.12910567E+04</pdfrwt>
<totfact> 0.26861882E+01</totfact>
</mgrwt>
</event>
<event>
12    7  0.2492439E-007  0.2718302E+04  0.7818608E-02  0.8329091E-01
         -1   -1    0    0    0  501 -0.00000000000E+00  0.00000000000E+00  0.83448094696E+03  0.83448094696E+03  0.00000000000E+00 0.  1.
          2   -1    0    0  501    0  0.00000000000E+00 -0.00000000000E+00 -0.22137017950E+04  0.22137017950E+04  0.00000000000E+00 0. -1.
         24    2    1    2    0    0 -0.15724466673E+03  0.11275372493E+04 -0.15933294346E+03  0.11523304985E+04  0.80077818990E+02 0.  0.
        254    2    1    2    0    0  0.15724466673E+03 -0.11275372493E+04 -0.12198879046E+04  0.18958522435E+04  0.90003505237E+03 0.  0.
         23    2    4    4    0    0  0.14270909070E+03  0.84051050134E+02 -0.25199013686E+02  0.19181809156E+03  0.93427653094E+02 0.  0.
         23    2    4    4    0    0  0.14535576033E+02 -0.12115882994E+04 -0.11946888909E+04  0.17040341519E+04  0.91067856465E+02 0.  0.
          2    1    3    3  502    0 -0.41176911274E+02  0.53638639435E+03 -0.97492422348E+02  0.54672723956E+03  0.00000000000E+00 0. -1.
         -1    1    3    3    0  502 -0.11606775546E+03  0.59115085497E+03 -0.61840521107E+02  0.60560325894E+03  0.00000000000E+00 0.  1.
         13    1    5    5    0    0  0.91901770331E+02  0.87773700216E+02 -0.48207685434E+02  0.13591960408E+03  0.00000000000E+00 0. -1.
        -13    1    5    5    0    0  0.50807320369E+02 -0.37226500811E+01  0.23008671748E+02  0.55898487478E+02  0.00000000000E+00 0.  1.
          1    1    6    6  503    0  0.16460245549E+02 -0.11755973457E+04 -0.11341830987E+04  0.16336068561E+04  0.00000000000E+00 0. -1.
         -1    1    6    6    0  503 -0.19246695157E+01 -0.35990953716E+02 -0.60505792192E+02  0.70427295780E+02  0.00000000000E+00 0.  1.
<mgrwt>
<rscale>  0 0.27183024E+04</rscale>
<asrwt>0</asrwt>
<pdfrwt beam="1">  1        2 0.34056951E+00 0.27183024E+04</pdfrwt>
<pdfrwt beam="2">  1       -1 0.12838168E+00 0.27183024E+04</pdfrwt>
<totfact> 0.26450608E+00</totfact>
</mgrwt>
</event>
<event>
12    7  0.2492439E-007  0.2567240E+04  0.7818608E-02  0.8379415E-01
          2   -1    0    0  501    0  0.00000000000E+00  0.00000000000E+00  0.20220125971E+04  0.20220125971E+04  0.00000000000E+00 0. -1.
         -1   -1    0    0    0  501 -0.00000000000E+00 -0.00000000000E+00 -0.81487168365E+03  0.81487168365E+03  0.00000000000E+00 0.  1.
         24    2    1    2    0    0 -0.80370920690E+03 -0.78097175110E+03  0.43277039376E+03  0.12041678693E+04  0.82853355495E+02 0.  0.
        254    2    1    2    0    0  0.80370920690E+03  0.78097175110E+03  0.77437051968E+03  0.16327164114E+04  0.90013766341E+03 0.  0.
         23    2    4    4    0    0 -0.12147304731E+03  0.33951200417E+02  0.32361853280E+03  0.35783457826E+03  0.86071164733E+02 0.  0.
         23    2    4    4    0    0  0.92518225421E+03  0.74702055068E+03  0.45075198688E+03  0.12748818332E+04  0.90246485671E+02 0.  0.
          2    1    3    3  502    0 -0.75749808605E+03 -0.74567889865E+03  0.42783788282E+03  0.11458122116E+04  0.00000000000E+00 0. -1.
         -1    1    3    3    0  502 -0.46211120854E+02 -0.35292852446E+02  0.49325109335E+01  0.58355657725E+02  0.00000000000E+00 0.  1.
         13    1    5    5    0    0 -0.53159479577E+02  0.45626413027E+02  0.23566725468E+03  0.24585921736E+03  0.00000000000E+00 0.  1.
        -13    1    5    5    0    0 -0.68313567736E+02 -0.11675212610E+02  0.87951278119E+02  0.11197536090E+03  0.00000000000E+00 0. -1.
          3    1    6    6  503    0  0.64613971935E+03  0.54019869656E+03  0.35977076383E+03  0.91583086385E+03  0.00000000000E+00 0. -1.
         -3    1    6    6    0  503  0.27904253486E+03  0.20682185412E+03  0.90981223055E+02  0.35905096930E+03  0.00000000000E+00 0.  1.
<mgrwt>
<rscale>  0 0.25672404E+04</rscale>
<asrwt>0</asrwt>
<pdfrwt beam="1">  1        2 0.31107886E+00 0.25672404E+04</pdfrwt>
<pdfrwt beam="2">  1       -1 0.12536487E+00 0.25672404E+04</pdfrwt>
<totfact> 0.36414601E+00</totfact>
</mgrwt>
</event>
<event>
12    7  0.2492439E-007  0.1667283E+04  0.7818608E-02  0.8780247E-01
         -1   -1    0    0    0  501 -0.00000000000E+00  0.00000000000E+00  0.23938162539E+03  0.23938162539E+03  0.00000000000E+00 0.  1.
          2   -1    0    0  501    0  0.00000000000E+00 -0.00000000000E+00 -0.29031389987E+04  0.29031389987E+04  0.00000000000E+00 0. -1.
         24    2    1    2    0    0  0.48856109785E+03 -0.22516253134E+03 -0.50533809634E+03  0.74240998971E+03  0.80099246925E+02 0.  0.
        254    2    1    2    0    0 -0.48856109785E+03  0.22516253134E+03 -0.21584192770E+04  0.24001106344E+04  0.90131413514E+03 0.  0.
         23    2    4    4    0    0 -0.48761236905E+03  0.32568237755E+03 -0.62899454840E+03  0.86476802521E+03  0.91404387213E+02 0.  0.
         23    2    4    4    0    0 -0.94872879778E+00 -0.10051984621E+03 -0.15294247286E+04  0.15353426092E+04  0.89620241042E+02 0.  0.
          4    1    3    3  502    0  0.12648087305E+03 -0.21039369564E+02 -0.12079859648E+03  0.17616006140E+03  0.00000000000E+00 0. -1.
         -3    1    3    3    0  502  0.36208022480E+03 -0.20412316178E+03 -0.38453949986E+03  0.56624992832E+03  0.00000000000E+00 0.  1.
         13    1    5    5    0    0 -0.19877324173E+03  0.84433522619E+02 -0.20369462650E+03  0.29686920055E+03  0.00000000000E+00 0.  1.
        -13    1    5    5    0    0 -0.28883912732E+03  0.24124885493E+03 -0.42529992190E+03  0.56789882466E+03  0.00000000000E+00 0. -1.
          1    1    6    6  503    0 -0.30038665652E+02 -0.28551792214E+02 -0.23755991022E+03  0.24114774976E+03  0.00000000000E+00 0. -1.
         -1    1    6    6    0  503  0.29089936854E+02 -0.71968053996E+02 -0.12918648183E+04  0.12941948594E+04  0.00000000000E+00 0.  1.
<mgrwt>
<rscale>  0 0.16672830E+04</rscale>
<asrwt>0</asrwt>
<pdfrwt beam="1">  1        2 0.44663674E+00 0.16672830E+04</pdfrwt>
<pdfrwt beam="2">  1       -1 0.36827945E-01 0.16672830E+04</pdfrwt>
<totfact> 0.15449071E+01</totfact>
</mgrwt>
</event>
<event>
12    7  0.2492439E-007  0.1487881E+04  0.7818608E-02  0.8892552E-01
         -1   -1    0    0    0  501 -0.00000000000E+00  0.00000000000E+00  0.26395366768E+03  0.26395366768E+03  0.00000000000E+00 0.  1.
          2   -1    0    0  501    0  0.00000000000E+00 -0.00000000000E+00 -0.20967607424E+04  0.20967607424E+04  0.00000000000E+00 0. -1.
         24    2    1    2    0    0  0.20299057394E+03  0.75087060185E+02  0.72795727810E+02  0.24189045741E+03  0.79803105704E+02 0.  0.
        254    2    1    2    0    0 -0.20299057394E+03 -0.75087060185E+02 -0.19056028026E+04  0.21188239527E+04  0.90069398896E+03 0.  0.
         23    2    4    4    0    0 -0.10258777140E+03  0.15301588147E+03 -0.18314550104E+04  0.18433157506E+04  0.98221130229E+02 0.  0.
         23    2    4    4    0    0 -0.10040280254E+03 -0.22810294166E+03 -0.74147792142E+02  0.27550820211E+03  0.91077986353E+02 0.  0.
          4    1    3    3  502    0  0.97804794078E+02  0.76047732226E+02  0.53481314768E+02  0.13494178875E+03  0.00000000000E+00 0. -1.
         -3    1    3    3    0  502  0.10518577986E+03 -0.96067204125E+00  0.19314413042E+02  0.10694866866E+03  0.00000000000E+00 0.  1.
         13    1    5    5    0    0  0.69852520459E+01  0.12453669629E+02 -0.47348817825E+03  0.47370343315E+03  0.00000000000E+00 0. -1.
        -13    1    5    5    0    0 -0.10957302344E+03  0.14056221184E+03 -0.13579668322E+04  0.13696123174E+04  0.00000000000E+00 0.  1.
          1    1    6    6  503    0 -0.11795043722E+03 -0.19710868143E+03 -0.62991820378E+02  0.23818502760E+03  0.00000000000E+00 0. -1.
         -1    1    6    6    0  503  0.17547634677E+02 -0.30994260225E+02 -0.11155971764E+02  0.37323174512E+02  0.00000000000E+00 0.  1.
<mgrwt>
<rscale>  0 0.14878813E+04</rscale>
<asrwt>0</asrwt>
<pdfrwt beam="1">  1        2 0.32257858E+00 0.14878813E+04</pdfrwt>
<pdfrwt beam="2">  1       -1 0.40608256E-01 0.14878813E+04</pdfrwt>
<totfact> 0.38533539E+01</totfact>
</mgrwt>
</event>
<event>
12    7  0.2492439E-007  0.1259686E+04  0.7818608E-02  0.9062160E-01
          2   -1    0    0  501    0  0.00000000000E+00  0.00000000000E+00  0.18160404209E+04  0.18160404209E+04  0.00000000000E+00 0. -1.
         -1   -1    0    0    0  501 -0.00000000000E+00 -0.00000000000E+00 -0.21844341764E+03  0.21844341764E+03  0.00000000000E+00 0.  1.
         24    2    1    2    0    0 -0.55368717132E+02 -0.17808041488E+02  0.86997522165E+03  0.87545814786E+03  0.78659145693E+02 0.  0.
        254    2    1    2    0    0  0.55368717132E+02  0.17808041488E+02  0.72762178160E+03  0.11590256907E+04  0.90029121588E+03 0.  0.
         23    2    4    4    0    0 -0.10726259726E+03 -0.28585748274E+03 -0.32000093478E+02  0.31998465996E+03  0.90257472888E+02 0.  0.
         23    2    4    4    0    0  0.16263131440E+03  0.30366552423E+03  0.75962187508E+03  0.83904103071E+03  0.91119498970E+02 0.  0.
          4    1    3    3  502    0 -0.35894265150E+02 -0.46206803447E+02  0.40434798102E+03  0.40855936743E+03  0.00000000000E+00 0. -1.
         -3    1    3    3    0  502 -0.19474451983E+02  0.28398761959E+02  0.46562724063E+03  0.46689878044E+03  0.00000000000E+00 0.  1.
         13    1    5    5    0    0 -0.50918964105E+02 -0.44721204705E+02 -0.25064407914E+02  0.72256152678E+02  0.00000000000E+00 0. -1.
        -13    1    5    5    0    0 -0.56343633160E+02 -0.24113627804E+03 -0.69356855646E+01  0.24772850728E+03  0.00000000000E+00 0.  1.
          1    1    6    6  503    0  0.13755216844E+03  0.17805391782E+03  0.53642562884E+03  0.58170117068E+03  0.00000000000E+00 0. -1.
         -1    1    6    6    0  503  0.25079145960E+02  0.12561160641E+03  0.22319624624E+03  0.25733986003E+03  0.00000000000E+00 0.  1.
<mgrwt>
<rscale>  0 0.12596858E+04</rscale>
<asrwt>0</asrwt>
<pdfrwt beam="1">  1        2 0.27939082E+00 0.12596858E+04</pdfrwt>
<pdfrwt beam="2">  1       -1 0.33606681E-01 0.12596858E+04</pdfrwt>
<totfact> 0.79006822E+01</totfact>
</mgrwt>
</event>
<event>
12    7  0.2492439E-007  0.1731512E+04  0.7818608E-02  0.8743593E-01
         -1   -1    0    0    0  501 -0.00000000000E+00  0.00000000000E+00  0.44895732827E+03  0.44895732827E+03  0.00000000000E+00 0.  1.
          2   -1    0    0  501    0  0.00000000000E+00 -0.00000000000E+00 -0.16694979415E+04  0.16694979415E+04  0.00000000000E+00 0. -1.
         24    2    1    2    0    0  0.17196808574E+03  0.55894841532E+03 -0.72860108309E+03  0.93749957640E+03  0.77778942933E+02 0.  0.
        254    2    1    2    0    0 -0.17196808574E+03 -0.55894841532E+03 -0.49193953016E+03  0.11809556934E+04  0.90036409020E+03 0.  0.
         23    2    4    4    0    0 -0.40918544617E+03  0.38943142586E+02 -0.15982895707E+03  0.45132928985E+03  0.95935054326E+02 0.  0.
         23    2    4    4    0    0  0.23721736042E+03 -0.59789155790E+03 -0.33211057308E+03  0.72962640354E+03  0.91163945107E+02 0.  0.
          2    1    3    3  502    0  0.44617083377E+02  0.17418173755E+03 -0.28165756970E+03  0.33415707144E+03  0.00000000000E+00 0. -1.
         -3    1    3    3    0  502  0.12735100237E+03  0.38476667777E+03 -0.44694351339E+03  0.60334250496E+03  0.00000000000E+00 0.  1.
         13    1    5    5    0    0 -0.24391587206E+03  0.34959435206E+02 -0.14364612607E+03  0.28522153545E+03  0.00000000000E+00 0.  1.
        -13    1    5    5    0    0 -0.16526957411E+03  0.39837073792E+01 -0.16182830998E+02  0.16610775440E+03  0.00000000000E+00 0. -1.
          2    1    6    6  503    0  0.21239586319E+03 -0.46425052221E+03 -0.29089430746E+03  0.58758833224E+03  0.00000000000E+00 0. -1.
         -2    1    6    6    0  503  0.24821497232E+02 -0.13364103569E+03 -0.41216265627E+02  0.14203807130E+03  0.00000000000E+00 0.  1.
<mgrwt>
<rscale>  0 0.17315119E+04</rscale>
<asrwt>0</asrwt>
<pdfrwt beam="1">  1        2 0.25684584E+00 0.17315119E+04</pdfrwt>
<pdfrwt beam="2">  1       -1 0.69070358E-01 0.17315119E+04</pdfrwt>
<totfact> 0.23384907E+01</totfact>
</mgrwt>
</event>
<event>
12    7  0.2492439E-007  0.2159960E+04  0.7818608E-02  0.8535281E-01
          2   -1    0    0  501    0  0.00000000000E+00  0.00000000000E+00  0.68015710161E+03  0.68015710161E+03  0.00000000000E+00 0. -1.
         -1   -1    0    0    0  501 -0.00000000000E+00 -0.00000000000E+00 -0.17148348398E+04  0.17148348398E+04  0.00000000000E+00 0.  1.
         24    2    1    2    0    0  0.24947039371E+03  0.85148246411E+03 -0.35957686373E+03  0.96059802599E+03  0.78709482171E+02 0.  0.
        254    2    1    2    0    0 -0.24947039371E+03 -0.85148246411E+03 -0.67510087441E+03  0.14343939154E+04  0.90247817137E+03 0.  0.
         23    2    4    4    0    0 -0.57389798676E+03 -0.47573231874E+03 -0.49275825502E+03  0.89760813558E+03  0.84908944563E+02 0.  0.
         23    2    4    4    0    0  0.32442759305E+03 -0.37575014537E+03 -0.18234261940E+03  0.53678577979E+03  0.91916851919E+02 0.  0.
          2    1    3    3  502    0  0.77805160993E+02  0.22218191860E+03 -0.60816366555E+02  0.24314003881E+03  0.00000000000E+00 0. -1.
         -1    1    3    3    0  502  0.17166523272E+03  0.62930054551E+03 -0.29876049717E+03  0.71745798718E+03  0.00000000000E+00 0.  1.
         13    1    5    5    0    0 -0.30817834595E+03 -0.28093896069E+03 -0.31963776280E+03  0.52542258417E+03  0.00000000000E+00 0. -1.
        -13    1    5    5    0    0 -0.26571964081E+03 -0.19479335805E+03 -0.17312049222E+03  0.37218555141E+03  0.00000000000E+00 0.  1.
          1    1    6    6  503    0  0.11482597726E+03 -0.10191162989E+03 -0.17369939050E+02  0.15450792906E+03  0.00000000000E+00 0. -1.
         -1    1    6    6    0  503  0.20960161579E+03 -0.27383851548E+03 -0.16497268035E+03  0.38227785073E+03  0.00000000000E+00 0.  1.
<mgrwt>
<rscale>  0 0.21599603E+04</rscale>
<asrwt>0</asrwt>
<pdfrwt beam="1">  1        2 0.10463955E+00 0.21599603E+04</pdfrwt>
<pdfrwt beam="2">  1       -1 0.26382074E+00 0.21599603E+04</pdfrwt>
<totfact> 0.25202986E+00</totfact>
</mgrwt>
</event>
<event>
12    7  0.2492439E-007  0.2154114E+04  0.7818608E-02  0.8537773E-01
         -1   -1    0    0    0  501 -0.00000000000E+00  0.00000000000E+00  0.91849492370E+03  0.91849492370E+03  0.00000000000E+00 0.  1.
          2   -1    0    0  501    0  0.00000000000E+00 -0.00000000000E+00 -0.12629920556E+04  0.12629920556E+04  0.00000000000E+00 0. -1.
         24    2    1    2    0    0  0.76895046264E+03 -0.40334358948E+03  0.43277471797E+02  0.87314286020E+03  0.80837179480E+02 0.  0.
        254    2    1    2    0    0 -0.76895046264E+03  0.40334358948E+03 -0.38777460369E+03  0.13083441191E+04  0.89856793039E+03 0.  0.
         23    2    4    4    0    0 -0.29658039825E+03  0.13484777079E+03 -0.62313752957E+03  0.70903591337E+03  0.91036760573E+02 0.  0.
         23    2    4    4    0    0 -0.47237006438E+03  0.26849581869E+03  0.23536292588E+03  0.59930820572E+03  0.92472353631E+02 0.  0.
          2    1    3    3  502    0  0.14548976067E+03 -0.66984245963E+02 -0.22268285763E+02  0.16170972827E+03  0.00000000000E+00 0. -1.
         -1    1    3    3    0  502  0.62346070197E+03 -0.33635934351E+03  0.65545757560E+02  0.71143313192E+03  0.00000000000E+00 0.  1.
         13    1    5    5    0    0 -0.14916020045E+03  0.22242701135E+02 -0.24187578898E+03  0.28503929632E+03  0.00000000000E+00 0. -1.
        -13    1    5    5    0    0 -0.14742019780E+03  0.11260506965E+03 -0.38126174059E+03  0.42399661705E+03  0.00000000000E+00 0.  1.
          4    1    6    6  503    0 -0.30222583586E+03  0.22096736241E+03  0.15428484980E+03  0.40493313768E+03  0.00000000000E+00 0. -1.
         -4    1    6    6    0  503 -0.17014422852E+03  0.47528456280E+02  0.81078076082E+02  0.19437506804E+03  0.00000000000E+00 0.  1.
<mgrwt>
<rscale>  0 0.21541140E+04</rscale>
<asrwt>0</asrwt>
<pdfrwt beam="1">  1        2 0.19430647E+00 0.21541140E+04</pdfrwt>
<pdfrwt beam="2">  1       -1 0.14130691E+00 0.21541140E+04</pdfrwt>
<totfact> 0.74349949E+00</totfact>
</mgrwt>
</event>
<event>
12    7  0.2492439E-007  0.2554170E+04  0.7818608E-02  0.8383937E-01
          2   -1    0    0  501    0  0.00000000000E+00  0.00000000000E+00  0.16215184029E+04  0.16215184029E+04  0.00000000000E+00 0. -1.
         -1   -1    0    0    0  501 -0.00000000000E+00 -0.00000000000E+00 -0.10058140464E+04  0.10058140464E+04  0.00000000000E+00 0.  1.
         24    2    1    2    0    0 -0.18277021193E+03  0.48116069646E+03  0.12891833004E+04  0.13904850225E+04  0.80835942341E+02 0.  0.
        254    2    1    2    0    0  0.18277021193E+03 -0.48116069646E+03 -0.67347894388E+03  0.12368474268E+04  0.90072032456E+03 0.  0.
         23    2    4    4    0    0 -0.46819245480E+02 -0.27531307337E+03  0.16616551005E+03  0.33792352615E+03  0.92693056295E+02 0.  0.
         23    2    4    4    0    0  0.22958945741E+03 -0.20584762309E+03 -0.83964445393E+03  0.89892390062E+03  0.89312973326E+02 0.  0.
          2    1    3    3  502    0 -0.37586001058E+02  0.72815329028E+02  0.29013026251E+03  0.30148026277E+03  0.00000000000E+00 0. -1.
         -1    1    3    3    0  502 -0.14518421088E+03  0.40834536743E+03  0.99905303794E+03  0.10890047598E+04  0.00000000000E+00 0.  1.
         13    1    5    5    0    0 -0.50695527951E+01 -0.18873972906E+03  0.14847621148E+03  0.24019486062E+03  0.00000000000E+00 0. -1.
        -13    1    5    5    0    0 -0.41749692685E+02 -0.86573344307E+02  0.17689298564E+02  0.97728665537E+02  0.00000000000E+00 0.  1.
          1    1    6    6  503    0  0.21641226517E+03 -0.20969607253E+03 -0.75065297017E+03  0.80887983840E+03  0.00000000000E+00 0. -1.
         -1    1    6    6    0  503  0.13177192245E+02  0.38484494448E+01 -0.88991483761E+02  0.90044062217E+02  0.00000000000E+00 0.  1.
<mgrwt>
<rscale>  0 0.25541699E+04</rscale>
<asrwt>0</asrwt>
<pdfrwt beam="1">  1        2 0.24946437E+00 0.25541699E+04</pdfrwt>
<pdfrwt beam="2">  1       -1 0.15474062E+00 0.25541699E+04</pdfrwt>
<totfact> 0.35159671E+00</totfact>
</mgrwt>
</event>
<event>
12    7  0.2492439E-007  0.1465457E+04  0.7818608E-02  0.8907754E-01
          2   -1    0    0  501    0  0.00000000000E+00  0.00000000000E+00  0.60765366603E+03  0.60765366603E+03  0.00000000000E+00 0. -1.
         -1   -1    0    0    0  501 -0.00000000000E+00 -0.00000000000E+00 -0.88354747319E+03  0.88354747319E+03  0.00000000000E+00 0.  1.
         24    2    1    2    0    0 -0.44587496259E+01  0.15130576247E+03 -0.52235028392E+03  0.54974069085E+03  0.80322436836E+02 0.  0.
        254    2    1    2    0    0  0.44587496259E+01 -0.15130576247E+03  0.24645647676E+03  0.94146044837E+03  0.89593173105E+03 0.  0.
         23    2    4    4    0    0 -0.36984365794E+03  0.12735340507E+03  0.23468518812E+03  0.46514391397E+03  0.90986274108E+02 0.  0.
         23    2    4    4    0    0  0.37430240757E+03 -0.27865916754E+03  0.11771288638E+02  0.47631653440E+03  0.94792688207E+02 0.  0.
          4    1    3    3  502    0 -0.22965769294E+02  0.22751379873E+02 -0.47560899445E+02  0.57507312591E+02  0.00000000000E+00 0. -1.
         -3    1    3    3    0  502  0.18507019668E+02  0.12855438260E+03 -0.47478938448E+03  0.49223337826E+03  0.00000000000E+00 0.  1.
         13    1    5    5    0    0 -0.89450011760E+02  0.47232559839E+02  0.10561162250E+03  0.14623964620E+03  0.00000000000E+00 0. -1.
        -13    1    5    5    0    0 -0.28039364618E+03  0.80120845231E+02  0.12907356562E+03  0.31890426777E+03  0.00000000000E+00 0.  1.
          2    1    6    6  503    0  0.13676522027E+03 -0.71368788038E+02 -0.33368838461E+02  0.15783443465E+03  0.00000000000E+00 0. -1.
         -2    1    6    6    0  503  0.23753718730E+03 -0.20729037950E+03  0.45140127098E+02  0.31848209975E+03  0.00000000000E+00 0.  1.
<mgrwt>
<rscale>  0 0.14654567E+04</rscale>
<asrwt>0</asrwt>
<pdfrwt beam="1">  1        2 0.93485180E-01 0.14654567E+04</pdfrwt>
<pdfrwt beam="2">  1       -1 0.13593038E+00 0.14654567E+04</pdfrwt>
<totfact> 0.24470573E+01</totfact>
</mgrwt>
</event>
<event>
12    7  0.2492439E-007  0.1255900E+04  0.7818608E-02  0.9065287E-01
          2   -1    0    0  501    0  0.00000000000E+00  0.00000000000E+00  0.11527505802E+04  0.11527505802E+04  0.00000000000E+00 0. -1.
         -1   -1    0    0    0  501 -0.00000000000E+00 -0.00000000000E+00 -0.34206956508E+03  0.34206956508E+03  0.00000000000E+00 0.  1.
         24    2    1    2    0    0  0.26419629012E+03 -0.13111098250E+03  0.14969217965E+03  0.34044124214E+03  0.80639452219E+02 0.  0.
        254    2    1    2    0    0 -0.26419629012E+03  0.13111098250E+03  0.66098883548E+03  0.11543789032E+04  0.89927450870E+03 0.  0.
         23    2    4    4    0    0 -0.11082123155E+03  0.43443186965E+03  0.66034626228E+03  0.80338527709E+03  0.91423862380E+02 0.  0.
         23    2    4    4    0    0 -0.15337505858E+03 -0.30332088715E+03  0.64257320480E+00  0.35099362607E+03  0.87570791177E+02 0.  0.
          2    1    3    3  502    0  0.14758120281E+03 -0.11622724542E+03  0.99965128850E+02  0.21279570246E+03  0.00000000000E+00 0. -1.
         -1    1    3    3    0  502  0.11661508731E+03 -0.14883737082E+02  0.49727050802E+02  0.12764553968E+03  0.00000000000E+00 0.  1.
         13    1    5    5    0    0 -0.48915697495E+02  0.27055257198E+03  0.33053155153E+03  0.42993318809E+03  0.00000000000E+00 0.  1.
        -13    1    5    5    0    0 -0.61905534050E+02  0.16387929767E+03  0.32981471075E+03  0.37345208900E+03  0.00000000000E+00 0. -1.
          1    1    6    6  503    0 -0.11173589828E+03 -0.26339264114E+03 -0.26306930178E+02  0.28731976776E+03  0.00000000000E+00 0. -1.
         -1    1    6    6    0  503 -0.41639160297E+02 -0.39928246016E+02  0.26949503382E+02  0.63673858315E+02  0.00000000000E+00 0.  1.
<mgrwt>
<rscale>  0 0.12558995E+04</rscale>
<asrwt>0</asrwt>
<pdfrwt beam="1">  1        2 0.17734624E+00 0.12558995E+04</pdfrwt>
<pdfrwt beam="2">  1       -1 0.52626088E-01 0.12558995E+04</pdfrwt>
<totfact> 0.82478179E+01</totfact>
</mgrwt>
</event>
<event>
12    7  0.2492439E-007  0.1858411E+04  0.7818608E-02  0.8675840E-01
          2   -1    0    0  501    0  0.00000000000E+00  0.00000000000E+00  0.11413401166E+04  0.11413401166E+04  0.00000000000E+00 0. -1.
         -1   -1    0    0    0  501 -0.00000000000E+00 -0.00000000000E+00 -0.75649886668E+03  0.75649886668E+03  0.00000000000E+00 0.  1.
         24    2    1    2    0    0  0.50524298592E+03 -0.15997330015E+03  0.62837505087E+03  0.82580775052E+03  0.79001928330E+02 0.  0.
        254    2    1    2    0    0 -0.50524298592E+03  0.15997330015E+03 -0.24353380099E+03  0.10720312327E+04  0.89948892161E+03 0.  0.
         23    2    4    4    0    0 -0.12662403446E+03  0.49805428577E+03 -0.18360192319E+03  0.55320657746E+03  0.90753145767E+02 0.  0.
         23    2    4    4    0    0 -0.37861895147E+03 -0.33808098562E+03 -0.59931877796E+02  0.51882465525E+03  0.89084957596E+02 0.  0.
          2    1    3    3  502    0  0.27300842507E+03 -0.12093618642E+03  0.38401264598E+03  0.48644102789E+03  0.00000000000E+00 0. -1.
         -1    1    3    3    0  502  0.23223456086E+03 -0.39037113726E+02  0.24436240489E+03  0.33936672263E+03  0.00000000000E+00 0.  1.
         13    1    5    5    0    0 -0.31500424270E+02  0.25688047723E+03 -0.12500005282E+03  0.28741062874E+03  0.00000000000E+00 0. -1.
        -13    1    5    5    0    0 -0.95123610185E+02  0.24117380855E+03 -0.58601870372E+02  0.26579594872E+03  0.00000000000E+00 0.  1.
          1    1    6    6  503    0 -0.22794398318E+03 -0.15364081039E+03 -0.76700385328E+01  0.27499597739E+03  0.00000000000E+00 0. -1.
         -1    1    6    6    0  503 -0.15067496829E+03 -0.18444017523E+03 -0.52261839263E+02  0.24382867787E+03  0.00000000000E+00 0.  1.
<mgrwt>
<rscale>  0 0.18584106E+04</rscale>
<asrwt>0</asrwt>
<pdfrwt beam="1">  1        2 0.17559079E+00 0.18584106E+04</pdfrwt>
<pdfrwt beam="2">  1       -1 0.11638444E+00 0.18584106E+04</pdfrwt>
<totfact> 0.14688193E+01</totfact>
</mgrwt>
</event>
<event>
12    7  0.2492439E-007  0.3287968E+04  0.7818608E-02  0.8165964E-01
         -1   -1    0    0    0  501 -0.00000000000E+00  0.00000000000E+00  0.96876818032E+03  0.96876818032E+03  0.00000000000E+00 0.  1.
          2   -1    0    0  501    0  0.00000000000E+00 -0.00000000000E+00 -0.27898143974E+04  0.27898143974E+04  0.00000000000E+00 0. -1.
         24    2    1    2    0    0 -0.98793673432E+03 -0.10506115796E+04 -0.29429656877E+03  0.14743049355E+04  0.84622043238E+02 0.  0.
        254    2    1    2    0    0  0.98793673432E+03  0.10506115796E+04 -0.15267496483E+04  0.22842776423E+04  0.89841870862E+03 0.  0.
         23    2    4    4    0    0  0.36331475896E+03  0.24626877066E+03 -0.10794874414E+04  0.11683759580E+04  0.84636408017E+02 0.  0.
         23    2    4    4    0    0  0.62462197537E+03  0.80434280894E+03 -0.44726220695E+03  0.11159016843E+04  0.89850547217E+02 0.  0.
          4    1    3    3  502    0 -0.23903440018E+03 -0.22146304057E+03 -0.94551740154E+02  0.33929832652E+03  0.00000000000E+00 0. -1.
         -3    1    3    3    0  502 -0.74890233414E+03 -0.82914853903E+03 -0.19974482861E+03  0.11350066090E+04  0.00000000000E+00 0.  1.
         13    1    5    5    0    0  0.21449459694E+03  0.95313641833E+02 -0.54568401861E+03  0.59402329130E+03  0.00000000000E+00 0.  1.
        -13    1    5    5    0    0  0.14882016201E+03  0.15095512883E+03 -0.53380342276E+03  0.57435266665E+03  0.00000000000E+00 0. -1.
          1    1    6    6  503    0  0.49421789745E+03  0.58003431090E+03 -0.35335008813E+03  0.83996869987E+03  0.00000000000E+00 0. -1.
         -1    1    6    6    0  503  0.13040407792E+03  0.22430849804E+03 -0.93912118826E+02  0.27593298442E+03  0.00000000000E+00 0.  1.
<mgrwt>
<rscale>  0 0.32879680E+04</rscale>
<asrwt>0</asrwt>
<pdfrwt beam="1">  1        2 0.42920220E+00 0.32879680E+04</pdfrwt>
<pdfrwt beam="2">  1       -1 0.14904126E+00 0.32879680E+04</pdfrwt>
<totfact> 0.79037840E-01</totfact>
</mgrwt>
</event>
<event>
12    7  0.2492439E-007  0.2782132E+04  0.7818608E-02  0.8308837E-01
         -1   -1    0    0    0  501 -0.00000000000E+00  0.00000000000E+00  0.12267416337E+04  0.12267416337E+04  0.00000000000E+00 0.  1.
          2   -1    0    0  501    0  0.00000000000E+00 -0.00000000000E+00 -0.15774016576E+04  0.15774016576E+04  0.00000000000E+00 0. -1.
         24    2    1    2    0    0 -0.76165329218E+02  0.63781573936E+03  0.91665654616E+03  0.11220462366E+04  0.78220577908E+02 0.  0.
        254    2    1    2    0    0  0.76165329218E+02 -0.63781573936E+03 -0.12673165701E+04  0.16820970546E+04  0.90041609136E+03 0.  0.
         23    2    4    4    0    0 -0.21770028225E+03 -0.42401024293E+03 -0.12090171621E+04  0.13029671567E+04  0.93929835726E+02 0.  0.
         23    2    4    4    0    0  0.29386561147E+03 -0.21380549643E+03 -0.58299408001E+02  0.37912989798E+03  0.90944327250E+02 0.  0.
          4    1    3    3  502    0  0.59318504681E+01  0.12132377069E+02  0.78094780528E+01  0.15600300343E+02  0.00000000000E+00 0. -1.
         -3    1    3    3    0  502 -0.82097179686E+02  0.62568336229E+03  0.90884706810E+03  0.11064459363E+04  0.00000000000E+00 0.  1.
         13    1    5    5    0    0 -0.15393918390E+03 -0.30391184170E+03 -0.74030674975E+03  0.81493175395E+03  0.00000000000E+00 0. -1.
        -13    1    5    5    0    0 -0.63761098354E+02 -0.12009840124E+03 -0.46871041238E+03  0.48803540273E+03  0.00000000000E+00 0.  1.
          1    1    6    6  503    0  0.57268423135E+02 -0.46001764721E+02  0.24578788137E+02  0.77459353677E+02  0.00000000000E+00 0. -1.
         -1    1    6    6    0  503  0.23659718834E+03 -0.16780373171E+03 -0.82878196138E+02  0.30167054430E+03  0.00000000000E+00 0.  1.
<mgrwt>
<rscale>  0 0.27821318E+04</rscale>
<asrwt>0</asrwt>
<pdfrwt beam="1">  1        2 0.24267718E+00 0.27821318E+04</pdfrwt>
<pdfrwt beam="2">  1       -1 0.18872948E+00 0.27821318E+04</pdfrwt>
<totfact> 0.20550002E+00</totfact>
</mgrwt>
</event>
<event>
12    7  0.2492439E-007  0.1896154E+04  0.7818608E-02  0.8656773E-01
         -1   -1    0    0    0  501 -0.00000000000E+00  0.00000000000E+00  0.87243122111E+03  0.87243122111E+03  0.00000000000E+00 0.  1.
          2   -1    0    0  501    0  0.00000000000E+00 -0.00000000000E+00 -0.10302816529E+04  0.10302816529E+04  0.00000000000E+00 0. -1.
         24    2    1    2    0    0 -0.69396179203E+03 -0.27236445482E+02 -0.29388534458E+03  0.75851258133E+03  0.81534946568E+02 0.  0.
        254    2    1    2    0    0  0.69396179203E+03  0.27236445482E+02  0.13603491277E+03  0.11442002927E+04  0.89909066259E+03 0.  0.
         23    2    4    4    0    0  0.34342358427E+02  0.35056092064E+03  0.17329284890E+03  0.40304378929E+03  0.91331965630E+02 0.  0.
         23    2    4    4    0    0  0.65961943361E+03 -0.32332447515E+03 -0.37257936129E+02  0.74115650341E+03  0.91040075346E+02 0.  0.
          4    1    3    3  502    0 -0.37311422395E+03 -0.10801201781E+02 -0.20169846601E+03  0.42427957913E+03  0.00000000000E+00 0. -1.
         -3    1    3    3    0  502 -0.32084756808E+03 -0.16435243701E+02 -0.92186878569E+02  0.33423300220E+03  0.00000000000E+00 0.  1.
         13    1    5    5    0    0  0.49238021379E+02  0.10422564776E+03  0.36662192681E+02  0.12096067449E+03  0.00000000000E+00 0.  1.
        -13    1    5    5    0    0 -0.14895662952E+02  0.24633527287E+03  0.13663065622E+03  0.28208311480E+03  0.00000000000E+00 0. -1.
          4    1    6    6  503    0  0.43367085011E+03 -0.19367394569E+03  0.16182025940E+02  0.47522822037E+03  0.00000000000E+00 0. -1.
         -4    1    6    6    0  503  0.22594858349E+03 -0.12965052946E+03 -0.53439962069E+02  0.26592828304E+03  0.00000000000E+00 0.  1.
<mgrwt>
<rscale>  0 0.18961539E+04</rscale>
<asrwt>0</asrwt>
<pdfrwt beam="1">  1        2 0.15850487E+00 0.18961539E+04</pdfrwt>
<pdfrwt beam="2">  1       -1 0.13422019E+00 0.18961539E+04</pdfrwt>
<totfact> 0.12037728E+01</totfact>
</mgrwt>
</event>
<event>
12    7  0.2492439E-007  0.1417933E+04  0.7818608E-02  0.8940939E-01
          2   -1    0    0  501    0  0.00000000000E+00  0.00000000000E+00  0.15229346953E+04  0.15229346953E+04  0.00000000000E+00 0. -1.
         -1   -1    0    0    0  501 -0.00000000000E+00 -0.00000000000E+00 -0.33004250001E+03  0.33004250001E+03  0.00000000000E+00 0.  1.
         24    2    1    2    0    0  0.33863825120E+03 -0.23822548976E+03  0.42712991735E+03  0.60017202020E+03  0.79619334225E+02 0.  0.
        254    2    1    2    0    0 -0.33863825120E+03  0.23822548976E+03  0.76576227797E+03  0.12528051751E+04  0.90094488807E+03 0.  0.
         23    2    4    4    0    0 -0.37873593479E+03  0.34104271999E+03  0.46705692581E+02  0.51982111061E+03  0.91002857972E+02 0.  0.
         23    2    4    4    0    0  0.40097683590E+02 -0.10281723023E+03  0.71905658538E+03  0.73298406452E+03  0.89688677079E+02 0.  0.
          4    1    3    3  502    0  0.21094646535E+03 -0.18061606273E+03  0.32079529015E+03  0.42429964830E+03  0.00000000000E+00 0. -1.
         -3    1    3    3    0  502  0.12769178585E+03 -0.57609427024E+02  0.10633462720E+03  0.17587237190E+03  0.00000000000E+00 0.  1.
         13    1    5    5    0    0 -0.20827605965E+03  0.13721143727E+03  0.48593037546E+02  0.25410072578E+03  0.00000000000E+00 0. -1.
        -13    1    5    5    0    0 -0.17045987514E+03  0.20383128271E+03 -0.18873449645E+01  0.26572038484E+03  0.00000000000E+00 0.  1.
          1    1    6    6  503    0  0.52024935924E+02 -0.17198801786E+02  0.32169830903E+03  0.32633141861E+03  0.00000000000E+00 0. -1.
         -1    1    6    6    0  503 -0.11927252334E+02 -0.85618428445E+02  0.39735827635E+03  0.40665264591E+03  0.00000000000E+00 0.  1.
<mgrwt>
<rscale>  0 0.14179325E+04</rscale>
<asrwt>0</asrwt>
<pdfrwt beam="1">  1        2 0.23429764E+00 0.14179325E+04</pdfrwt>
<pdfrwt beam="2">  1       -1 0.50775770E-01 0.14179325E+04</pdfrwt>
<totfact> 0.53183335E+01</totfact>
</mgrwt>
</event>
<event>
12    7  0.2492439E-007  0.2098744E+04  0.7818608E-02  0.8561797E-01
          2   -1    0    0  501    0  0.00000000000E+00  0.00000000000E+00  0.13214628031E+04  0.13214628031E+04  0.00000000000E+00 0. -1.
         -1   -1    0    0    0  501 -0.00000000000E+00 -0.00000000000E+00 -0.83330495884E+03  0.83330495884E+03  0.00000000000E+00 0.  1.
         24    2    1    2    0    0 -0.76235740976E+03  0.38373145768E+03  0.18737004949E+03  0.87740909509E+03  0.79375896000E+02 0.  0.
        254    2    1    2    0    0  0.76235740976E+03 -0.38373145768E+03  0.30078779472E+03  0.12773586668E+04  0.90151717365E+03 0.  0.
         23    2    4    4    0    0  0.10707657865E+03  0.26880541261E+03  0.66707444239E+01  0.30271137634E+03  0.88701380981E+02 0.  0.
         23    2    4    4    0    0  0.65528083112E+03 -0.65253687029E+03  0.29411705030E+03  0.97464729047E+03  0.90747819969E+02 0.  0.
          2    1    3    3  502    0 -0.35925508269E+03  0.14455690434E+03  0.61653647953E+02  0.39212508889E+03  0.00000000000E+00 0. -1.
         -1    1    3    3    0  502 -0.40310232707E+03  0.23917455334E+03  0.12571640154E+03  0.48528400620E+03  0.00000000000E+00 0.  1.
         13    1    5    5    0    0  0.42177334556E+02  0.66149162670E+02  0.38771617736E+02  0.87509300157E+02  0.00000000000E+00 0. -1.
        -13    1    5    5    0    0  0.64899244092E+02  0.20265624994E+03 -0.32100873312E+02  0.21520207618E+03  0.00000000000E+00 0.  1.
          1    1    6    6  503    0  0.41842894321E+03 -0.46517354252E+03  0.17194514079E+03  0.64887158716E+03  0.00000000000E+00 0. -1.
         -1    1    6    6    0  503  0.23685188791E+03 -0.18736332777E+03  0.12217190951E+03  0.32577570332E+03  0.00000000000E+00 0.  1.
<mgrwt>
<rscale>  0 0.20987439E+04</rscale>
<asrwt>0</asrwt>
<pdfrwt beam="1">  1        2 0.20330197E+00 0.20987439E+04</pdfrwt>
<pdfrwt beam="2">  1       -1 0.12820076E+00 0.20987439E+04</pdfrwt>
<totfact> 0.88636534E+00</totfact>
</mgrwt>
</event>
<event>
12    7  0.2492439E-007  0.1449864E+04  0.7818608E-02  0.8918495E-01
         -1   -1    0    0    0  501 -0.00000000000E+00  0.00000000000E+00  0.37941506552E+03  0.37941506552E+03  0.00000000000E+00 0.  1.
          2   -1    0    0  501    0  0.00000000000E+00 -0.00000000000E+00 -0.13850955302E+04  0.13850955302E+04  0.00000000000E+00 0. -1.
         24    2    1    2    0    0  0.34471058540E+03  0.26933986722E+03 -0.24081914695E+03  0.50548026085E+03  0.78403321400E+02 0.  0.
        254    2    1    2    0    0 -0.34471058540E+03 -0.26933986722E+03 -0.76486131770E+03  0.12590303348E+04  0.89931929646E+03 0.  0.
         23    2    4    4    0    0  0.26351370352E+02  0.14974496670E+03  0.11563440654E+03  0.21163169948E+03  0.91097258343E+02 0.  0.
         23    2    4    4    0    0 -0.37106195575E+03 -0.41908483392E+03 -0.88049572424E+03  0.10473986354E+04  0.91935346562E+02 0.  0.
          4    1    3    3  502    0  0.26226827928E+03  0.23865969957E+03 -0.21082512336E+03  0.41254131328E+03  0.00000000000E+00 0. -1.
         -3    1    3    3    0  502  0.82442306118E+02  0.30680167647E+02 -0.29994023594E+02  0.92938947574E+02  0.00000000000E+00 0.  1.
         13    1    5    5    0    0 -0.24548139524E+02  0.97618548431E+02  0.45356643528E+02  0.11040478823E+03  0.00000000000E+00 0.  1.
        -13    1    5    5    0    0  0.50899509876E+02  0.52126418264E+02  0.70277763012E+02  0.10122691125E+03  0.00000000000E+00 0. -1.
          4    1    6    6  503    0 -0.21843899846E+03 -0.19862086049E+03 -0.52215172693E+03  0.59984020222E+03  0.00000000000E+00 0. -1.
         -4    1    6    6    0  503 -0.15262295730E+03 -0.22046397343E+03 -0.35834399731E+03  0.44755843315E+03  0.00000000000E+00 0.  1.
<mgrwt>
<rscale>  0 0.14498636E+04</rscale>
<asrwt>0</asrwt>
<pdfrwt beam="1">  1        2 0.21309162E+00 0.14498636E+04</pdfrwt>
<pdfrwt beam="2">  1       -1 0.58371549E-01 0.14498636E+04</pdfrwt>
<totfact> 0.48509281E+01</totfact>
</mgrwt>
</event>
<event>
12    7  0.2492439E-007  0.2916274E+04  0.7818608E-02  0.8268052E-01
          2   -1    0    0  501    0  0.00000000000E+00  0.00000000000E+00  0.31587006943E+04  0.31587006943E+04  0.00000000000E+00 0. -1.
         -1   -1    0    0    0  501 -0.00000000000E+00 -0.00000000000E+00 -0.67311340129E+03  0.67311340129E+03  0.00000000000E+00 0.  1.
         24    2    1    2    0    0 -0.32395115973E+03  0.12604713216E+04  0.13972971036E+04  0.19110951405E+04  0.78186532521E+02 0.  0.
        254    2    1    2    0    0  0.32395115973E+03 -0.12604713216E+04  0.10882901894E+04  0.19207189551E+04  0.90058506626E+03 0.  0.
         23    2    4    4    0    0 -0.14579639164E+03 -0.10394955921E+04  0.77823849549E+03  0.13098281141E+04  0.90481262836E+02 0.  0.
         23    2    4    4    0    0  0.46974755137E+03 -0.22097572952E+03  0.31005169396E+03  0.61089084098E+03  0.86962817366E+02 0.  0.
          2    1    3    3  502    0 -0.21696998080E+03  0.70138152609E+03  0.76431658748E+03  0.10598074653E+04  0.00000000000E+00 0. -1.
         -1    1    3    3    0  502 -0.10698117893E+03  0.55908979553E+03  0.63298051613E+03  0.85128767518E+03  0.00000000000E+00 0.  1.
         13    1    5    5    0    0 -0.86060186708E+02 -0.78236977072E+03  0.54272472992E+03  0.95606430032E+03  0.00000000000E+00 0.  1.
        -13    1    5    5    0    0 -0.59736204930E+02 -0.25712582138E+03  0.23551376557E+03  0.35376381382E+03  0.00000000000E+00 0. -1.
          4    1    6    6  503    0  0.22634911060E+03 -0.14992539863E+03  0.13881124568E+03  0.30492639596E+03  0.00000000000E+00 0. -1.
         -4    1    6    6    0  503  0.24339844077E+03 -0.71050330896E+02  0.17124044828E+03  0.30596444502E+03  0.00000000000E+00 0.  1.
<mgrwt>
<rscale>  0 0.29162742E+04</rscale>
<asrwt>0</asrwt>
<pdfrwt beam="1">  1        2 0.48595395E+00 0.29162742E+04</pdfrwt>
<pdfrwt beam="2">  1       -1 0.10355591E+00 0.29162742E+04</pdfrwt>
<totfact> 0.11871963E+00</totfact>
</mgrwt>
</event>
<event>
12    7  0.2492439E-007  0.3798637E+04  0.7818608E-02  0.8046447E-01
         -1   -1    0    0    0  501 -0.00000000000E+00  0.00000000000E+00  0.27902139683E+04  0.27902139683E+04  0.00000000000E+00 0.  1.
          2   -1    0    0  501    0  0.00000000000E+00 -0.00000000000E+00 -0.12928796924E+04  0.12928796924E+04  0.00000000000E+00 0. -1.
         24    2    1    2    0    0  0.12065192372E+04 -0.13161072780E+04  0.53989801160E+03  0.18670370702E+04  0.80687805844E+02 0.  0.
        254    2    1    2    0    0 -0.12065192372E+04  0.13161072780E+04  0.95743626435E+03  0.22160565904E+04  0.89799530902E+03 0.  0.
         23    2    4    4    0    0 -0.74726044611E+03  0.13266404124E+04  0.79963115513E+03  0.17220962194E+04  0.88501110516E+02 0.  0.
         23    2    4    4    0    0 -0.45925879105E+03 -0.10533134418E+02  0.15780510922E+03  0.49396037103E+03  0.89804296014E+02 0.  0.
          4    1    3    3  502    0  0.44973744846E+03 -0.48455400226E+03  0.15956764093E+03  0.68008689568E+03  0.00000000000E+00 0. -1.
         -3    1    3    3    0  502  0.75678178870E+03 -0.83155327571E+03  0.38033037067E+03  0.11869501746E+04  0.00000000000E+00 0.  1.
         13    1    5    5    0    0 -0.61730911754E+03  0.10623876793E+04  0.60956177926E+03  0.13716062447E+04  0.00000000000E+00 0.  1.
        -13    1    5    5    0    0 -0.12995132858E+03  0.26425273310E+03  0.19006937587E+03  0.35048997474E+03  0.00000000000E+00 0. -1.
          1    1    6    6  503    0 -0.18156108612E+03  0.10373283962E+02  0.19133752750E+02  0.18286096770E+03  0.00000000000E+00 0. -1.
         -1    1    6    6    0  503 -0.27769770493E+03 -0.20906418380E+02  0.13867135647E+03  0.31109940334E+03  0.00000000000E+00 0.  1.
<mgrwt>
<rscale>  0 0.37986371E+04</rscale>
<asrwt>0</asrwt>
<pdfrwt beam="1">  1        2 0.19890457E+00 0.37986371E+04</pdfrwt>
<pdfrwt beam="2">  1       -1 0.42926369E+00 0.37986371E+04</pdfrwt>
<totfact> 0.68566869E-02</totfact>
</mgrwt>
</event>
<event>
12    7  0.2492439E-007  0.2554248E+04  0.7818608E-02  0.8383910E-01
         -1   -1    0    0    0  501 -0.00000000000E+00  0.00000000000E+00  0.94108319651E+03  0.94108319651E+03  0.00000000000E+00 0.  1.
          2   -1    0    0  501    0  0.00000000000E+00 -0.00000000000E+00 -0.17331583605E+04  0.17331583605E+04  0.00000000000E+00 0. -1.
         24    2    1    2    0    0 -0.48907014988E+03  0.43473063581E+03 -0.12924437178E+04  0.14510797225E+04  0.83912216967E+02 0.  0.
        254    2    1    2    0    0  0.48907014988E+03 -0.43473063581E+03  0.50036855382E+03  0.12231618345E+04  0.90419900823E+03 0.  0.
         23    2    4    4    0    0  0.72297631419E+03 -0.25869820664E+03  0.21039292899E+03  0.80128899998E+03  0.90439835906E+02 0.  0.
         23    2    4    4    0    0 -0.23390616431E+03 -0.17603242917E+03  0.28997562483E+03  0.42187283451E+03  0.90505887500E+02 0.  0.
          4    1    3    3  502    0 -0.38920701292E+03  0.36646310118E+03 -0.11122298973E+04  0.12340310562E+04  0.00000000000E+00 0. -1.
         -3    1    3    3    0  502 -0.99863136959E+02  0.68267534628E+02 -0.18021382057E+03  0.21704866627E+03  0.00000000000E+00 0.  1.
         13    1    5    5    0    0  0.51767872335E+02 -0.11904490992E+02  0.38991563019E+02  0.65893637770E+02  0.00000000000E+00 0. -1.
        -13    1    5    5    0    0  0.67120844186E+03 -0.24679371565E+03  0.17140136597E+03  0.73539536221E+03  0.00000000000E+00 0.  1.
          3    1    6    6  503    0 -0.44909406027E+02 -0.32458782976E+02  0.12628441020E+02  0.56832251975E+02  0.00000000000E+00 0. -1.
         -3    1    6    6    0  503 -0.18899675829E+03 -0.14357364620E+03  0.27734718381E+03  0.36504058253E+03  0.00000000000E+00 0.  1.
<mgrwt>
<rscale>  0 0.25542484E+04</rscale>
<asrwt>0</asrwt>
<pdfrwt beam="1">  1        2 0.26663974E+00 0.25542484E+04</pdfrwt>
<pdfrwt beam="2">  1       -1 0.14478203E+00 0.25542484E+04</pdfrwt>
<totfact> 0.36445530E+00</totfact>
</mgrwt>
</event>
<event>
12    7  0.2492439E-007  0.4461242E+04  0.7818608E-02  0.7917458E-01
         -1   -1    0    0    0  501 -0.00000000000E+00  0.00000000000E+00  0.21830975867E+04  0.21830975867E+04  0.00000000000E+00 0.  1.
          2   -1    0    0  501    0  0.00000000000E+00 -0.00000000000E+00 -0.22791788010E+04  0.22791788010E+04  0.00000000000E+00 0. -1.
         24    2    1    2    0    0 -0.18949494113E+04 -0.65698285145E+03  0.69744261012E+03  0.21246712630E+04  0.73089281856E+02 0.  0.
        254    2    1    2    0    0  0.18949494113E+04  0.65698285145E+03 -0.79352382441E+03  0.23376051246E+04  0.90125352728E+03 0.  0.
         23    2    4    4    0    0  0.14293925455E+04  0.36657077839E+03 -0.95307640991E+03  0.17590911811E+04  0.92249421289E+02 0.  0.
         23    2    4    4    0    0  0.46555686579E+03  0.29041207305E+03  0.15955258549E+03  0.57851394351E+03  0.90216339106E+02 0.  0.
          2    1    3    3  502    0 -0.10566794980E+04 -0.34108666287E+03  0.35698732498E+03  0.11663411265E+04  0.00000000000E+00 0. -1.
         -1    1    3    3    0  502 -0.83826991322E+03 -0.31589618857E+03  0.34045528514E+03  0.95833013651E+03  0.00000000000E+00 0.  1.
         13    1    5    5    0    0  0.82872794272E+03  0.18950151877E+03 -0.59590348684E+03  0.10381723336E+04  0.00000000000E+00 0.  1.
        -13    1    5    5    0    0  0.60066460276E+03  0.17706925962E+03 -0.35717292307E+03  0.72091884750E+03  0.00000000000E+00 0. -1.
          2    1    6    6  503    0  0.26393264262E+03  0.13002512985E+03  0.12046854173E+03  0.31793024986E+03  0.00000000000E+00 0. -1.
         -2    1    6    6    0  503  0.20162422317E+03  0.16038694320E+03  0.39084043769E+02  0.26058369365E+03  0.00000000000E+00 0.  1.
<mgrwt>
<rscale>  0 0.44612419E+04</rscale>
<asrwt>0</asrwt>
<pdfrwt beam="1">  1        2 0.35064289E+00 0.44612419E+04</pdfrwt>
<pdfrwt beam="2">  1       -1 0.33586117E+00 0.44612419E+04</pdfrwt>
<totfact> 0.77598953E-02</totfact>
</mgrwt>
</event>
<event>
12    7  0.2492439E-007  0.2358694E+04  0.7818608E-02  0.8455132E-01
         -1   -1    0    0    0  501 -0.00000000000E+00  0.00000000000E+00  0.10878326282E+04  0.10878326282E+04  0.00000000000E+00 0.  1.
          2   -1    0    0  501    0  0.00000000000E+00 -0.00000000000E+00 -0.12785602097E+04  0.12785602097E+04  0.00000000000E+00 0. -1.
         24    2    1    2    0    0  0.81585992907E+03  0.56920039409E+03 -0.23218021104E+03  0.10247348200E+04  0.80977086121E+02 0.  0.
        254    2    1    2    0    0 -0.81585992907E+03 -0.56920039409E+03  0.41452629535E+02  0.13416580178E+04  0.89928382828E+03 0.  0.
         23    2    4    4    0    0  0.56165319932E+02  0.88838669425E+02  0.19285569125E+03  0.23473334221E+03  0.82822532848E+02 0.  0.
         23    2    4    4    0    0 -0.87202524900E+03 -0.65803906352E+03 -0.15140306171E+03  0.11069246756E+04  0.94424077363E+02 0.  0.
          2    1    3    3  502    0  0.41217970494E+03  0.32800001755E+03 -0.14638875666E+03  0.54672277139E+03  0.00000000000E+00 0. -1.
         -1    1    3    3    0  502  0.40368022413E+03  0.24120037654E+03 -0.85791454376E+02  0.47801204863E+03  0.00000000000E+00 0.  1.
         13    1    5    5    0    0  0.92406325508E+00 -0.35008902319E+01 -0.69270764406E+01  0.78162979299E+01  0.00000000000E+00 0.  1.
        -13    1    5    5    0    0  0.55241256677E+02  0.92339559657E+02  0.19978276769E+03  0.22691704428E+03  0.00000000000E+00 0. -1.
          2    1    6    6  503    0 -0.76645557608E+03 -0.54603342532E+03 -0.10956483730E+03  0.94742340336E+03  0.00000000000E+00 0. -1.
         -2    1    6    6    0  503 -0.10556967292E+03 -0.11200563819E+03 -0.41838224412E+02  0.15950127225E+03  0.00000000000E+00 0.  1.
<mgrwt>
<rscale>  0 0.23586941E+04</rscale>
<asrwt>0</asrwt>
<pdfrwt beam="1">  1        2 0.19670157E+00 0.23586941E+04</pdfrwt>
<pdfrwt beam="2">  1       -1 0.16735887E+00 0.23586941E+04</pdfrwt>
<totfact> 0.45034674E+00</totfact>
</mgrwt>
</event>
<event>
12    7  0.2492439E-007  0.2449136E+04  0.7818608E-02  0.8421333E-01
         -1   -1    0    0    0  501 -0.00000000000E+00  0.00000000000E+00  0.11004053885E+04  0.11004053885E+04  0.00000000000E+00 0.  1.
          2   -1    0    0  501    0  0.00000000000E+00 -0.00000000000E+00 -0.13627408365E+04  0.13627408365E+04  0.00000000000E+00 0. -1.
         24    2    1    2    0    0 -0.65267165628E+03  0.81512438132E+03 -0.28382264871E+03  0.10848408231E+04  0.76917277178E+02 0.  0.
        254    2    1    2    0    0  0.65267165628E+03 -0.81512438132E+03  0.21487200699E+02  0.13783054020E+04  0.89936423851E+03 0.  0.
         23    2    4    4    0    0 -0.63169410389E+02 -0.42220161848E+02 -0.25907981335E+03  0.28434539683E+03  0.89202233935E+02 0.  0.
         23    2    4    4    0    0  0.71584106667E+03 -0.77290421947E+03  0.28056701405E+03  0.10939600052E+04  0.90671265375E+02 0.  0.
          4    1    3    3  502    0 -0.19154230408E+03  0.26082670616E+03 -0.12227369417E+03  0.34593334789E+03  0.00000000000E+00 0. -1.
         -1    1    3    3    0  502 -0.46112935221E+03  0.55429767516E+03 -0.16154895454E+03  0.73890747517E+03  0.00000000000E+00 0.  1.
         13    1    5    5    0    0  0.35497602471E+01  0.23140865871E+02 -0.61382086753E+02  0.65695213260E+02  0.00000000000E+00 0.  1.
        -13    1    5    5    0    0 -0.66719170636E+02 -0.65361027719E+02 -0.19769772660E+03  0.21865018357E+03  0.00000000000E+00 0. -1.
          3    1    6    6  503    0  0.53898650757E+03 -0.52573958358E+03  0.18436416932E+03  0.77517656828E+03  0.00000000000E+00 0. -1.
         -3    1    6    6    0  503  0.17685455911E+03 -0.24716463590E+03  0.96202844728E+02  0.31878343691E+03  0.00000000000E+00 0.  1.
<mgrwt>
<rscale>  0 0.24491365E+04</rscale>
<asrwt>0</asrwt>
<pdfrwt beam="1">  1        2 0.20965244E+00 0.24491365E+04</pdfrwt>
<pdfrwt beam="2">  1       -1 0.16929314E+00 0.24491365E+04</pdfrwt>
<totfact> 0.38633551E+00</totfact>
</mgrwt>
</event>
<event>
12    7  0.2492439E-007  0.1198610E+04  0.7818608E-02  0.9114074E-01
         -1   -1    0    0    0  501 -0.00000000000E+00  0.00000000000E+00  0.76335858417E+03  0.76335858417E+03  0.00000000000E+00 0.  1.
          2   -1    0    0  501    0  0.00000000000E+00 -0.00000000000E+00 -0.47050817395E+03  0.47050817395E+03  0.00000000000E+00 0. -1.
         24    2    1    2    0    0  0.11774087886E+03  0.14693249623E+03  0.23589477509E+03  0.31206543528E+03  0.79286934483E+02 0.  0.
        254    2    1    2    0    0 -0.11774087886E+03 -0.14693249623E+03  0.56955635130E+02  0.92180132283E+03  0.90056741080E+03 0.  0.
         23    2    4    4    0    0  0.22411763935E+03 -0.13479173839E+03 -0.30690872152E+03  0.41413994253E+03  0.94453161131E+02 0.  0.
         23    2    4    4    0    0 -0.34185851822E+03 -0.12140757846E+02  0.36386435665E+03  0.50766138030E+03  0.91149122522E+02 0.  0.
          2    1    3    3  502    0  0.32526983736E+02  0.80509361161E+01  0.12948811588E+02  0.35923445893E+02  0.00000000000E+00 0. -1.
         -3    1    3    3    0  502  0.85213895127E+02  0.13888156012E+03  0.22294596350E+03  0.27614198939E+03  0.00000000000E+00 0.  1.
         13    1    5    5    0    0  0.15614867824E+03 -0.46197125954E+02 -0.21379925923E+03  0.26875026960E+03  0.00000000000E+00 0.  1.
        -13    1    5    5    0    0  0.67968961111E+02 -0.88594612431E+02 -0.93109462283E+02  0.14538967292E+03  0.00000000000E+00 0. -1.
          3    1    6    6  503    0 -0.93746092541E+02 -0.11485529902E+02  0.47828907151E+02  0.10586714138E+03  0.00000000000E+00 0. -1.
         -3    1    6    6    0  503 -0.24811242568E+03 -0.65522794371E+00  0.31603544950E+03  0.40179423893E+03  0.00000000000E+00 0.  1.
<mgrwt>
<rscale>  0 0.11986100E+04</rscale>
<asrwt>0</asrwt>
<pdfrwt beam="1">  1        2 0.72385873E-01 0.11986100E+04</pdfrwt>
<pdfrwt beam="2">  1       -1 0.11743978E+00 0.11986100E+04</pdfrwt>
<totfact> 0.48688753E+01</totfact>
</mgrwt>
</event>
<event>
12    7  0.2492439E-007  0.2648792E+04  0.7818608E-02  0.8351814E-01
         -1   -1    0    0    0  501 -0.00000000000E+00  0.00000000000E+00  0.41171876971E+03  0.41171876971E+03  0.00000000000E+00 0.  1.
          2   -1    0    0  501    0  0.00000000000E+00 -0.00000000000E+00 -0.42602485097E+04  0.42602485097E+04  0.00000000000E+00 0. -1.
         24    2    1    2    0    0  0.11012440509E+04  0.60443710176E+02 -0.23804275269E+04  0.26247723006E+04  0.81255877187E+02 0.  0.
        254    2    1    2    0    0 -0.11012440509E+04 -0.60443710176E+02 -0.14681022131E+04  0.20471949788E+04  0.90514709934E+03 0.  0.
         23    2    4    4    0    0 -0.40653906834E+03 -0.45212220758E+03 -0.75559348336E+03  0.97404948340E+03  0.90345887286E+02 0.  0.
         23    2    4    4    0    0 -0.69470498254E+03  0.39167849740E+03 -0.71250872975E+03  0.10731454954E+04  0.89137569267E+02 0.  0.
          2    1    3    3  502    0  0.51584755733E+03 -0.62542521527E+01 -0.11618468261E+04  0.12712300599E+04  0.00000000000E+00 0. -1.
         -1    1    3    3    0  502  0.58539649354E+03  0.66697962329E+02 -0.12185807008E+04  0.13535422406E+04  0.00000000000E+00 0.  1.
         13    1    5    5    0    0 -0.35368006523E+03 -0.34552163489E+03 -0.58334954887E+03  0.76470352745E+03  0.00000000000E+00 0. -1.
        -13    1    5    5    0    0 -0.52859003101E+02 -0.10660057269E+03 -0.17224393448E+03  0.20934595595E+03  0.00000000000E+00 0.  1.
          3    1    6    6  503    0 -0.52836693038E+03  0.33923707806E+03 -0.54831111976E+03  0.83360571753E+03  0.00000000000E+00 0. -1.
         -3    1    6    6    0  503 -0.16633805216E+03  0.52441419341E+02 -0.16419760999E+03  0.23953977788E+03  0.00000000000E+00 0.  1.
<mgrwt>
<rscale>  0 0.26487916E+04</rscale>
<asrwt>0</asrwt>
<pdfrwt beam="1">  1        2 0.65542287E+00 0.26487916E+04</pdfrwt>
<pdfrwt beam="2">  1       -1 0.63341347E-01 0.26487916E+04</pdfrwt>
<totfact> 0.52270832E-01</totfact>
</mgrwt>
</event>
<event>
12    7  0.2492439E-007  0.1627187E+04  0.7818608E-02  0.8804018E-01
         -1   -1    0    0    0  501 -0.00000000000E+00  0.00000000000E+00  0.50903726394E+03  0.50903726394E+03  0.00000000000E+00 0.  1.
          2   -1    0    0  501    0  0.00000000000E+00 -0.00000000000E+00 -0.13003649376E+04  0.13003649376E+04  0.00000000000E+00 0. -1.
         24    2    1    2    0    0  0.25483592486E+03 -0.30421275455E+03  0.16664970451E+03  0.43673594581E+03  0.74023062049E+02 0.  0.
        254    2    1    2    0    0 -0.25483592486E+03  0.30421275455E+03 -0.95797737815E+03  0.13726662557E+04  0.89944718795E+03 0.  0.
         23    2    4    4    0    0 -0.35009020486E+03  0.40851917468E+03 -0.17684566854E+03  0.57370916381E+03  0.91742828270E+02 0.  0.
         23    2    4    4    0    0  0.95254279997E+02 -0.10430642012E+03 -0.78113170961E+03  0.79895709191E+03  0.90622733414E+02 0.  0.
          2    1    3    3  502    0  0.10369516165E+03 -0.17988211350E+03  0.94903415960E+02  0.22829130440E+03  0.00000000000E+00 0. -1.
         -1    1    3    3    0  502  0.15114076321E+03 -0.12433064106E+03  0.71746288545E+02  0.20844464140E+03  0.00000000000E+00 0.  1.
         13    1    5    5    0    0 -0.29493247203E+03  0.29152394153E+03 -0.11503645464E+03  0.43035422322E+03  0.00000000000E+00 0.  1.
        -13    1    5    5    0    0 -0.55157732831E+02  0.11699523315E+03 -0.61809213894E+02  0.14335494059E+03  0.00000000000E+00 0. -1.
          2    1    6    6  503    0 -0.11506776395E+02  0.93485739864E+00 -0.19087599053E+02  0.22307314920E+02  0.00000000000E+00 0. -1.
         -2    1    6    6    0  503  0.10676105639E+03 -0.10524127752E+03 -0.76204411056E+03  0.77664977699E+03  0.00000000000E+00 0.  1.
<mgrwt>
<rscale>  0 0.16271868E+04</rscale>
<asrwt>0</asrwt>
<pdfrwt beam="1">  1        2 0.20005614E+00 0.16271868E+04</pdfrwt>
<pdfrwt beam="2">  1       -1 0.78313425E-01 0.16271868E+04</pdfrwt>
<totfact> 0.29422778E+01</totfact>
</mgrwt>
</event>
<event>
12    7  0.2492439E-007  0.1870561E+04  0.7818608E-02  0.8669650E-01
         -1   -1    0    0    0  501 -0.00000000000E+00  0.00000000000E+00  0.13574936749E+04  0.13574936749E+04  0.00000000000E+00 0.  1.
          2   -1    0    0  501    0  0.00000000000E+00 -0.00000000000E+00 -0.64438577210E+03  0.64438577210E+03  0.00000000000E+00 0. -1.
         24    2    1    2    0    0  0.40700867087E+03 -0.28003221468E+03  0.82852115512E+03  0.96750879484E+03  0.74510832624E+02 0.  0.
        254    2    1    2    0    0 -0.40700867087E+03  0.28003221468E+03 -0.11541325231E+03  0.10343706522E+04  0.90140353220E+03 0.  0.
         23    2    4    4    0    0  0.20004739470E+03  0.23399084124E+03 -0.24610388621E+03  0.40502734355E+03  0.93323910714E+02 0.  0.
         23    2    4    4    0    0 -0.60705606557E+03  0.46041373448E+02  0.13069063390E+03  0.62934330863E+03  0.91411615871E+02 0.  0.
          2    1    3    3  502    0  0.12841636237E+03 -0.10926080098E+03  0.22450858678E+03  0.28077177617E+03  0.00000000000E+00 0. -1.
         -1    1    3    3    0  502  0.27859230850E+03 -0.17077141370E+03  0.60401256834E+03  0.68673701867E+03  0.00000000000E+00 0.  1.
         13    1    5    5    0    0  0.16741362914E+03  0.20774698745E+03 -0.16487717275E+03  0.31364090312E+03  0.00000000000E+00 0. -1.
        -13    1    5    5    0    0  0.32633765560E+02  0.26243853784E+02 -0.81226713451E+02  0.91386440428E+02  0.00000000000E+00 0.  1.
          1    1    6    6  503    0 -0.17290651663E+02 -0.79863048327E+01 -0.86795079398E+01  0.20930397939E+02  0.00000000000E+00 0. -1.
         -1    1    6    6    0  503 -0.58976541390E+03  0.54027678281E+02  0.13937014184E+03  0.60841291069E+03  0.00000000000E+00 0.  1.
<mgrwt>
<rscale>  0 0.18705610E+04</rscale>
<asrwt>0</asrwt>
<pdfrwt beam="1">  1        2 0.99136272E-01 0.18705610E+04</pdfrwt>
<pdfrwt beam="2">  1       -1 0.20884518E+00 0.18705610E+04</pdfrwt>
<totfact> 0.63768404E+00</totfact>
</mgrwt>
</event>
<event>
12    7  0.2492439E-007  0.2147907E+04  0.7818608E-02  0.8540429E-01
          2   -1    0    0  501    0  0.00000000000E+00  0.00000000000E+00  0.40102323473E+04  0.40102323473E+04  0.00000000000E+00 0. -1.
         -1   -1    0    0    0  501 -0.00000000000E+00 -0.00000000000E+00 -0.28760827264E+03  0.28760827264E+03  0.00000000000E+00 0.  1.
         24    2    1    2    0    0 -0.83667176175E+03  0.14442367652E+03  0.10494617458E+04  0.13524214610E+04  0.82437959174E+02 0.  0.
        254    2    1    2    0    0  0.83667176175E+03 -0.14442367652E+03  0.26731623289E+04  0.29454191589E+04  0.89934384411E+03 0.  0.
         23    2    4    4    0    0  0.60319662205E+03 -0.21560881687E+03  0.25928837572E+04  0.26723596636E+04  0.90148025449E+02 0.  0.
         23    2    4    4    0    0  0.23347513971E+03  0.71185140346E+02  0.80278571621E+02  0.27305949527E+03  0.92406027015E+02 0.  0.
          2    1    3    3  502    0 -0.58606073294E+03  0.12086274579E+03  0.78840088152E+03  0.98977317402E+03  0.00000000000E+00 0. -1.
         -1    1    3    3    0  502 -0.25061102881E+03  0.23560930728E+02  0.26106086426E+03  0.36264828701E+03  0.00000000000E+00 0.  1.
         13    1    5    5    0    0  0.48365398306E+03 -0.20980797677E+03  0.21148437778E+04  0.21795652702E+04  0.00000000000E+00 0.  1.
        -13    1    5    5    0    0  0.11954263899E+03 -0.58008400942E+01  0.47803997943E+03  0.49279439345E+03  0.00000000000E+00 0. -1.
          3    1    6    6  503    0  0.78017528154E+01 -0.12426846505E+02  0.20275221082E+02  0.25027553835E+02  0.00000000000E+00 0. -1.
         -3    1    6    6    0  503  0.22567338689E+03  0.83611986851E+02  0.60003350539E+02  0.24803194144E+03  0.00000000000E+00 0.  1.
<mgrwt>
<rscale>  0 0.21479069E+04</rscale>
<asrwt>0</asrwt>
<pdfrwt beam="1">  1        2 0.61695878E+00 0.21479069E+04</pdfrwt>
<pdfrwt beam="2">  1       -1 0.44247430E-01 0.21479069E+04</pdfrwt>
<totfact> 0.17864398E+00</totfact>
</mgrwt>
</event>
<event>
12    7  0.2492439E-007  0.1696275E+04  0.7818608E-02  0.8763492E-01
          2   -1    0    0  501    0  0.00000000000E+00  0.00000000000E+00  0.31083673576E+04  0.31083673576E+04  0.00000000000E+00 0. -1.
         -1   -1    0    0    0  501 -0.00000000000E+00 -0.00000000000E+00 -0.23141962954E+03  0.23141962954E+03  0.00000000000E+00 0.  1.
         24    2    1    2    0    0 -0.34742417081E+03  0.45593846112E+03  0.64737050503E+03  0.86865739484E+03  0.83028091857E+02 0.  0.
        254    2    1    2    0    0  0.34742417081E+03 -0.45593846112E+03  0.22295772230E+04  0.24711295923E+04  0.89826690559E+03 0.  0.
         23    2    4    4    0    0  0.61815388754E+03 -0.36916468691E+03  0.12389191063E+04  0.14357489234E+04  0.89764271705E+02 0.  0.
         23    2    4    4    0    0 -0.27072971673E+03 -0.86773774210E+02  0.99065811677E+03  0.10353806689E+04  0.98920967281E+02 0.  0.
          2    1    3    3  502    0 -0.18543467613E+03  0.30967566276E+03  0.40476059098E+03  0.54232478390E+03  0.00000000000E+00 0. -1.
         -1    1    3    3    0  502 -0.16198949468E+03  0.14626279836E+03  0.24260991405E+03  0.32633261094E+03  0.00000000000E+00 0.  1.
         13    1    5    5    0    0  0.18598946018E+02  0.32484055621E+01  0.22278685935E+02  0.29202958389E+02  0.00000000000E+00 0. -1.
        -13    1    5    5    0    0  0.59955494152E+03 -0.37241309248E+03  0.12166404203E+04  0.14065459650E+04  0.00000000000E+00 0.  1.
          3    1    6    6  503    0 -0.11745112262E+03 -0.41403546389E+02  0.60892489376E+03  0.62152919972E+03  0.00000000000E+00 0. -1.
         -3    1    6    6    0  503 -0.15327859411E+03 -0.45370227821E+02  0.38173322301E+03  0.41385146917E+03  0.00000000000E+00 0.  1.
<mgrwt>
<rscale>  0 0.16962750E+04</rscale>
<asrwt>0</asrwt>
<pdfrwt beam="1">  1        2 0.47821033E+00 0.16962750E+04</pdfrwt>
<pdfrwt beam="2">  1       -1 0.35603022E-01 0.16962750E+04</pdfrwt>
<totfact> 0.12192851E+01</totfact>
</mgrwt>
</event>
<event>
12    7  0.2492439E-007  0.2638919E+04  0.7818608E-02  0.8355100E-01
         -1   -1    0    0    0  501 -0.00000000000E+00  0.00000000000E+00  0.12048840553E+04  0.12048840553E+04  0.00000000000E+00 0.  1.
          2   -1    0    0  501    0  0.00000000000E+00 -0.00000000000E+00 -0.14449298734E+04  0.14449298734E+04  0.00000000000E+00 0. -1.
         24    2    1    2    0    0 -0.10341511854E+04 -0.79659305463E+02  0.42645169776E+03  0.11237756824E+04  0.72086437610E+02 0.  0.
        254    2    1    2    0    0  0.10341511854E+04  0.79659305463E+02 -0.66649751586E+03  0.15260382464E+04  0.89931057563E+03 0.  0.
         23    2    4    4    0    0  0.10454564497E+03  0.36613947159E+03 -0.13786779163E+03  0.41513606955E+03  0.91337416960E+02 0.  0.
         23    2    4    4    0    0  0.92960554045E+03 -0.28648016613E+03 -0.52862972423E+03  0.11109021768E+04  0.91743744588E+02 0.  0.
          2    1    3    3  502    0 -0.36935120182E+03 -0.40125254333E+02  0.11778921460E+03  0.38974946491E+03  0.00000000000E+00 0. -1.
         -1    1    3    3    0  502 -0.66479998360E+03 -0.39534051130E+02  0.30866248316E+03  0.73402621745E+03  0.00000000000E+00 0.  1.
         13    1    5    5    0    0  0.79701312148E+02  0.25890141747E+03 -0.52731120581E+02  0.27597611165E+03  0.00000000000E+00 0.  1.
        -13    1    5    5    0    0  0.24844332819E+02  0.10723805412E+03 -0.85136671053E+02  0.13915995790E+03  0.00000000000E+00 0. -1.
          1    1    6    6  503    0  0.10943205094E+03 -0.60435103782E+02 -0.49071884729E+02  0.13429752572E+03  0.00000000000E+00 0. -1.
         -1    1    6    6    0  503  0.82017348951E+03 -0.22604506234E+03 -0.47955783950E+03  0.97660465109E+03  0.00000000000E+00 0.  1.
<mgrwt>
<rscale>  0 0.26389187E+04</rscale>
<asrwt>0</asrwt>
<pdfrwt beam="1">  1        2 0.22229690E+00 0.26389187E+04</pdfrwt>
<pdfrwt beam="2">  1       -1 0.18536678E+00 0.26389187E+04</pdfrwt>
<totfact> 0.26101163E+00</totfact>
</mgrwt>
</event>
<event>
12    7  0.2492439E-007  0.2889605E+04  0.7818608E-02  0.8275977E-01
         -1   -1    0    0    0  501 -0.00000000000E+00  0.00000000000E+00  0.16232641209E+04  0.16232641209E+04  0.00000000000E+00 0.  1.
          2   -1    0    0  501    0  0.00000000000E+00 -0.00000000000E+00 -0.12859612924E+04  0.12859612924E+04  0.00000000000E+00 0. -1.
         24    2    1    2    0    0 -0.21489954814E+03  0.12178429789E+04 -0.26668927946E+03  0.12674079139E+04  0.76657104252E+02 0.  0.
        254    2    1    2    0    0  0.21489954814E+03 -0.12178429789E+04  0.60399210792E+03  0.16418174993E+04  0.89522896380E+03 0.  0.
         23    2    4    4    0    0 -0.26485056107E+03 -0.66561974980E+03  0.53911109345E+03  0.90226103122E+03  0.10118659175E+03 0.  0.
         23    2    4    4    0    0  0.47975010921E+03 -0.55222322905E+03  0.64881014474E+02  0.73955646808E+03  0.87313008458E+02 0.  0.
          4    1    3    3  502    0 -0.10356906630E+02  0.70063935824E+02 -0.33950903621E+02  0.78542246433E+02  0.00000000000E+00 0. -1.
         -3    1    3    3    0  502 -0.20454264151E+03  0.11477790430E+04 -0.23273837584E+03  0.11888656675E+04  0.00000000000E+00 0.  1.
         13    1    5    5    0    0 -0.23356554756E+03 -0.57537191278E+03  0.50646591173E+03  0.80131980055E+03  0.00000000000E+00 0.  1.
        -13    1    5    5    0    0 -0.31285013507E+02 -0.90247837026E+02  0.32645181721E+02  0.10094123066E+03  0.00000000000E+00 0. -1.
          4    1    6    6  503    0  0.10792738561E+03 -0.12798748980E+03  0.51940385339E+02  0.17529096309E+03  0.00000000000E+00 0. -1.
         -4    1    6    6    0  503  0.37182272360E+03 -0.42423573925E+03  0.12940629135E+02  0.56426550499E+03  0.00000000000E+00 0.  1.
<mgrwt>
<rscale>  0 0.28896054E+04</rscale>
<asrwt>0</asrwt>
<pdfrwt beam="1">  1        2 0.19784020E+00 0.28896054E+04</pdfrwt>
<pdfrwt beam="2">  1       -1 0.24973294E+00 0.28896054E+04</pdfrwt>
<totfact> 0.11603933E+00</totfact>
</mgrwt>
</event>
<event>
12    7  0.2492439E-007  0.2580693E+04  0.7818608E-02  0.8374789E-01
          2   -1    0    0  501    0  0.00000000000E+00  0.00000000000E+00  0.25357620938E+04  0.25357620938E+04  0.00000000000E+00 0. -1.
         -1   -1    0    0    0  501 -0.00000000000E+00 -0.00000000000E+00 -0.65660488395E+03  0.65660488395E+03  0.00000000000E+00 0.  1.
         24    2    1    2    0    0  0.16663368149E+03 -0.99146458922E+03  0.18942976496E+03  0.10260592658E+04  0.78391106915E+02 0.  0.
        254    2    1    2    0    0 -0.16663368149E+03  0.99146458922E+03  0.16897274449E+04  0.21663077119E+04  0.90936321083E+03 0.  0.
         23    2    4    4    0    0  0.21246709808E+03  0.93339970378E+03  0.11943216260E+04  0.15333392250E+04  0.91366065870E+02 0.  0.
         23    2    4    4    0    0 -0.37910077957E+03  0.58064885442E+02  0.49540581889E+03  0.63296848686E+03  0.90184521810E+02 0.  0.
          2    1    3    3  502    0  0.73073637973E+02 -0.39127071882E+03  0.11341914891E+03  0.41387973532E+03  0.00000000000E+00 0. -1.
         -1    1    3    3    0  502  0.93560043515E+02 -0.60019387040E+03  0.76010616052E+02  0.61217953050E+03  0.00000000000E+00 0.  1.
         13    1    5    5    0    0  0.19096330899E+03  0.66500088594E+03  0.88146856015E+03  0.11205712767E+04  0.00000000000E+00 0. -1.
        -13    1    5    5    0    0  0.21503789093E+02  0.26839881784E+03  0.31285306583E+03  0.41276794832E+03  0.00000000000E+00 0.  1.
          2    1    6    6  503    0 -0.36606814483E+03  0.70812073295E+02  0.45232676664E+03  0.58619087353E+03  0.00000000000E+00 0. -1.
         -2    1    6    6    0  503 -0.13032634734E+02 -0.12747187853E+02  0.43079052246E+02  0.46777613328E+02  0.00000000000E+00 0.  1.
<mgrwt>
<rscale>  0 0.25806928E+04</rscale>
<asrwt>0</asrwt>
<pdfrwt beam="1">  1        2 0.39011724E+00 0.25806928E+04</pdfrwt>
<pdfrwt beam="2">  1       -1 0.10101614E+00 0.25806928E+04</pdfrwt>
<totfact> 0.31127267E+00</totfact>
</mgrwt>
</event>
<event>
12    7  0.2492439E-007  0.2167225E+04  0.7818608E-02  0.8532195E-01
          2   -1    0    0  501    0  0.00000000000E+00  0.00000000000E+00  0.59910689268E+03  0.59910689268E+03  0.00000000000E+00 0. -1.
         -1   -1    0    0    0  501 -0.00000000000E+00 -0.00000000000E+00 -0.19599439220E+04  0.19599439220E+04  0.00000000000E+00 0.  1.
         24    2    1    2    0    0 -0.82020750000E+03 -0.35561063524E+03 -0.53806867194E+03  0.10466430725E+04  0.82125260728E+02 0.  0.
        254    2    1    2    0    0  0.82020750000E+03  0.35561063524E+03 -0.82276835739E+03  0.15124077422E+04  0.90068315289E+03 0.  0.
         23    2    4    4    0    0  0.79447867580E+03  0.97364677351E+02 -0.19889028814E+03  0.82976967256E+03  0.91017119751E+02 0.  0.
         23    2    4    4    0    0  0.25728824201E+02  0.25824595789E+03 -0.62387806926E+03  0.68263806968E+03  0.97046080367E+02 0.  0.
          4    1    3    3  502    0 -0.53596575864E+03 -0.26964285530E+03 -0.33878624939E+03  0.68901573757E+03  0.00000000000E+00 0. -1.
         -3    1    3    3    0  502 -0.28424174136E+03 -0.85967779944E+02 -0.19928242255E+03  0.35762733489E+03  0.00000000000E+00 0.  1.
         13    1    5    5    0    0  0.79205984977E+03  0.99814547854E+02 -0.20365488160E+03  0.82389141298E+03  0.00000000000E+00 0. -1.
        -13    1    5    5    0    0  0.24188260332E+01 -0.24498705038E+01  0.47645934630E+01  0.58782595835E+01  0.00000000000E+00 0.  1.
          3    1    6    6  503    0 -0.26126434622E+02  0.18335884359E+03 -0.44162671883E+03  0.47889165257E+03  0.00000000000E+00 0. -1.
         -3    1    6    6    0  503  0.51855258824E+02  0.74887114302E+02 -0.18225135042E+03  0.20374641711E+03  0.00000000000E+00 0.  1.
<mgrwt>
<rscale>  0 0.21672249E+04</rscale>
<asrwt>0</asrwt>
<pdfrwt beam="1">  1        2 0.92170292E-01 0.21672249E+04</pdfrwt>
<pdfrwt beam="2">  1       -1 0.30152983E+00 0.21672249E+04</pdfrwt>
<totfact> 0.16788189E+00</totfact>
</mgrwt>
</event>
<event>
12    7  0.2492439E-007  0.1531224E+04  0.7818608E-02  0.8863950E-01
          2   -1    0    0  501    0  0.00000000000E+00  0.00000000000E+00  0.46732133861E+03  0.46732133861E+03  0.00000000000E+00 0. -1.
         -1   -1    0    0    0  501 -0.00000000000E+00 -0.00000000000E+00 -0.12543020284E+04  0.12543020284E+04  0.00000000000E+00 0.  1.
         24    2    1    2    0    0  0.21761274009E+02  0.48390374182E+03 -0.38406273985E+03  0.62349925953E+03  0.81306544018E+02 0.  0.
        254    2    1    2    0    0 -0.21761274009E+02 -0.48390374182E+03 -0.40291794992E+03  0.10981241075E+04  0.89938717838E+03 0.  0.
         23    2    4    4    0    0 -0.18514648358E+03 -0.70418386871E+03 -0.28453474174E+03  0.78696455968E+03  0.90548647702E+02 0.  0.
         23    2    4    4    0    0  0.16338520958E+03  0.22028012689E+03 -0.11838320818E+03  0.31115954778E+03  0.87106941084E+02 0.  0.
          4    1    3    3  502    0 -0.13187990346E+02  0.37131897318E+03 -0.31325341863E+03  0.48598292893E+03  0.00000000000E+00 0. -1.
         -3    1    3    3    0  502  0.34949264354E+02  0.11258476864E+03 -0.70809321215E+02  0.13751633059E+03  0.00000000000E+00 0.  1.
         13    1    5    5    0    0  0.52440740277E+01 -0.12625642571E+01 -0.31348870223E+01  0.62387416643E+01  0.00000000000E+00 0.  1.
        -13    1    5    5    0    0 -0.19039055761E+03 -0.70292130445E+03 -0.28139985472E+03  0.78072581802E+03  0.00000000000E+00 0. -1.
          1    1    6    6  503    0  0.87750542695E+02  0.90846220947E+02 -0.98003253842E+02  0.15986816871E+03  0.00000000000E+00 0. -1.
         -1    1    6    6    0  503  0.75634666881E+02  0.12943390595E+03 -0.20379954342E+02  0.15129137907E+03  0.00000000000E+00 0.  1.
<mgrwt>
<rscale>  0 0.15312245E+04</rscale>
<asrwt>0</asrwt>
<pdfrwt beam="1">  1        2 0.71895592E-01 0.15312245E+04</pdfrwt>
<pdfrwt beam="2">  1       -1 0.19296954E+00 0.15312245E+04</pdfrwt>
<totfact> 0.12360799E+01</totfact>
</mgrwt>
</event>
<event>
12    7  0.2492439E-007  0.1464029E+04  0.7818608E-02  0.8908732E-01
         -1   -1    0    0    0  501 -0.00000000000E+00  0.00000000000E+00  0.56704647889E+03  0.56704647889E+03  0.00000000000E+00 0.  1.
          2   -1    0    0  501    0  0.00000000000E+00 -0.00000000000E+00 -0.94497544581E+03  0.94497544581E+03  0.00000000000E+00 0. -1.
         24    2    1    2    0    0  0.16086261083E+03  0.99090220900E+02  0.30275526736E+03  0.36539121245E+03  0.78449568402E+02 0.  0.
        254    2    1    2    0    0 -0.16086261083E+03 -0.99090220900E+02 -0.68068423428E+03  0.11466307122E+04  0.90318066412E+03 0.  0.
         23    2    4    4    0    0  0.10642877047E+03 -0.59850392617E+01 -0.80939420735E+03  0.82219723199E+03  0.97603286470E+02 0.  0.
         23    2    4    4    0    0 -0.26729138130E+03 -0.93105181638E+02  0.12870997307E+03  0.32443348026E+03  0.92615163869E+02 0.  0.
          4    1    3    3  502    0  0.64893021888E+02  0.82214901683E+02  0.12888120143E+03  0.16607455684E+03  0.00000000000E+00 0. -1.
         -3    1    3    3    0  502  0.95969588945E+02  0.16875319217E+02  0.17387406593E+03  0.19931665561E+03  0.00000000000E+00 0.  1.
         13    1    5    5    0    0  0.11413752585E+03  0.21160333510E+02 -0.66874325743E+03  0.67874345587E+03  0.00000000000E+00 0.  1.
        -13    1    5    5    0    0 -0.77087553816E+01 -0.27145372772E+02 -0.14065094991E+03  0.14345377612E+03  0.00000000000E+00 0. -1.
          2    1    6    6  503    0 -0.10133543677E+03 -0.24890666243E+02  0.96515442579E+02  0.14213953239E+03  0.00000000000E+00 0. -1.
         -2    1    6    6    0  503 -0.16595594453E+03 -0.68214515395E+02  0.32194530487E+02  0.18229394787E+03  0.00000000000E+00 0.  1.
<mgrwt>
<rscale>  0 0.14640287E+04</rscale>
<asrwt>0</asrwt>
<pdfrwt beam="1">  1        2 0.14538084E+00 0.14640287E+04</pdfrwt>
<pdfrwt beam="2">  1       -1 0.87237920E-01 0.14640287E+04</pdfrwt>
<totfact> 0.39137383E+01</totfact>
</mgrwt>
</event>
<event>
12    7  0.2492439E-007  0.1439177E+04  0.7818608E-02  0.8925939E-01
         -1   -1    0    0    0  501 -0.00000000000E+00  0.00000000000E+00  0.10703261065E+04  0.10703261065E+04  0.00000000000E+00 0.  1.
          2   -1    0    0  501    0  0.00000000000E+00 -0.00000000000E+00 -0.48378460136E+03  0.48378460136E+03  0.00000000000E+00 0. -1.
         24    2    1    2    0    0  0.96748816532E+02 -0.35549441038E+03 -0.66667849030E+02  0.38297323589E+03  0.80543702437E+02 0.  0.
        254    2    1    2    0    0 -0.96748816532E+02  0.35549441038E+03  0.65320935412E+03  0.11711374719E+04  0.89952426790E+03 0.  0.
         23    2    4    4    0    0  0.32709554983E+03  0.40356493283E+02  0.21706448875E+02  0.34262221645E+03  0.91097025261E+02 0.  0.
         23    2    4    4    0    0 -0.42384436637E+03  0.31513791709E+03  0.63150290525E+03  0.82851525548E+03  0.93196864399E+02 0.  0.
          4    1    3    3  502    0  0.47084588782E+02 -0.28538019429E+03 -0.34765931286E+02  0.29132024264E+03  0.00000000000E+00 0. -1.
         -3    1    3    3    0  502  0.49664227751E+02 -0.70114216089E+02 -0.31901917744E+02  0.91652993250E+02  0.00000000000E+00 0.  1.
         13    1    5    5    0    0  0.12152642922E+03 -0.26016527553E+02  0.24075910751E+02  0.12659060859E+03  0.00000000000E+00 0. -1.
        -13    1    5    5    0    0  0.20556912061E+03  0.66373020836E+02 -0.23694618765E+01  0.21603160786E+03  0.00000000000E+00 0.  1.
          2    1    6    6  503    0 -0.93963391694E+02  0.10499547927E+03  0.21587952898E+03  0.25779282511E+03  0.00000000000E+00 0. -1.
         -2    1    6    6    0  503 -0.32988097467E+03  0.21014243782E+03  0.41562337627E+03  0.57072243037E+03  0.00000000000E+00 0.  1.
<mgrwt>
<rscale>  0 0.14391766E+04</rscale>
<asrwt>0</asrwt>
<pdfrwt beam="1">  1        2 0.74428400E-01 0.14391766E+04</pdfrwt>
<pdfrwt beam="2">  1       -1 0.16466555E+00 0.14391766E+04</pdfrwt>
<totfact> 0.19138632E+01</totfact>
</mgrwt>
</event>
<event>
12    7  0.2492439E-007  0.1995416E+04  0.7818608E-02  0.8608767E-01
          2   -1    0    0  501    0  0.00000000000E+00  0.00000000000E+00  0.16562840007E+04  0.16562840007E+04  0.00000000000E+00 0. -1.
         -1   -1    0    0    0  501 -0.00000000000E+00 -0.00000000000E+00 -0.60099682882E+03  0.60099682882E+03  0.00000000000E+00 0.  1.
         24    2    1    2    0    0 -0.78894299203E+03  0.72147310365E+02  0.42326981610E+03  0.90171933741E+03  0.79398659820E+02 0.  0.
        254    2    1    2    0    0  0.78894299203E+03 -0.72147310365E+02  0.63201735577E+03  0.13555614921E+04  0.90025815285E+03 0.  0.
         23    2    4    4    0    0  0.44830440917E+02  0.17183026414E+03 -0.14632997698E+03  0.24769626785E+03  0.91681900255E+02 0.  0.
         23    2    4    4    0    0  0.74411255111E+03 -0.24397757450E+03  0.77834733275E+03  0.11078652242E+04  0.91171481817E+02 0.  0.
          2    1    3    3  502    0 -0.68421629696E+03  0.36711692732E+02  0.37471239411E+03  0.78096675198E+03  0.00000000000E+00 0. -1.
         -1    1    3    3    0  502 -0.10472669507E+03  0.35435617632E+02  0.48557421984E+02  0.12075258543E+03  0.00000000000E+00 0.  1.
         13    1    5    5    0    0  0.69995335054E+02  0.12879356306E+03 -0.88028412193E+02  0.17098576013E+03  0.00000000000E+00 0. -1.
        -13    1    5    5    0    0 -0.25164894137E+02  0.43036701076E+02 -0.58301564789E+02  0.76710507711E+02  0.00000000000E+00 0.  1.
          1    1    6    6  503    0  0.41139619905E+03 -0.18037952807E+03  0.46189255522E+03  0.64430453925E+03  0.00000000000E+00 0. -1.
         -1    1    6    6    0  503  0.33271635207E+03 -0.63598046435E+02  0.31645477753E+03  0.46356068498E+03  0.00000000000E+00 0.  1.
<mgrwt>
<rscale>  0 0.19954162E+04</rscale>
<asrwt>0</asrwt>
<pdfrwt beam="1">  1        2 0.25481292E+00 0.19954162E+04</pdfrwt>
<pdfrwt beam="2">  1       -1 0.92461051E-01 0.19954162E+04</pdfrwt>
<totfact> 0.12492920E+01</totfact>
</mgrwt>
</event>
<event>
12    7  0.2492439E-007  0.2552818E+04  0.7818608E-02  0.8384407E-01
         -1   -1    0    0    0  501 -0.00000000000E+00  0.00000000000E+00  0.51894639953E+03  0.51894639953E+03  0.00000000000E+00 0.  1.
          2   -1    0    0  501    0  0.00000000000E+00 -0.00000000000E+00 -0.31394762628E+04  0.31394762628E+04  0.00000000000E+00 0. -1.
         24    2    1    2    0    0 -0.59192352382E+03  0.51598356823E+03 -0.11799989579E+02  0.78924707461E+03  0.78480598239E+02 0.  0.
        254    2    1    2    0    0  0.59192352382E+03 -0.51598356823E+03 -0.26087298737E+04  0.28691755878E+04  0.90004694245E+03 0.  0.
         23    2    4    4    0    0  0.37839004722E+03 -0.69447733034E+03 -0.23396844388E+04  0.24714325122E+04  0.91529225820E+02 0.  0.
         23    2    4    4    0    0  0.21353347659E+03  0.17849376211E+03 -0.26904543496E+03  0.39774307556E+03  0.91419578549E+02 0.  0.
          2    1    3    3  502    0 -0.87405151685E+02  0.66141732303E+02 -0.27933009907E+02  0.11311340476E+03  0.00000000000E+00 0. -1.
         -1    1    3    3    0  502 -0.50451837213E+03  0.44984183592E+03  0.16133020328E+02  0.67613366986E+03  0.00000000000E+00 0.  1.
         13    1    5    5    0    0  0.95458151348E+02 -0.25786300051E+03 -0.86612560484E+03  0.90872391244E+03  0.00000000000E+00 0.  1.
        -13    1    5    5    0    0  0.28293189588E+03 -0.43661432983E+03 -0.14735588339E+04  0.15627085998E+04  0.00000000000E+00 0. -1.
          1    1    6    6  503    0  0.10533777078E+03  0.14581930541E+03 -0.16237728901E+03  0.24233386014E+03  0.00000000000E+00 0. -1.
         -1    1    6    6    0  503  0.10819570581E+03  0.32674456706E+02 -0.10666814595E+03  0.15540921542E+03  0.00000000000E+00 0.  1.
<mgrwt>
<rscale>  0 0.25528180E+04</rscale>
<asrwt>0</asrwt>
<pdfrwt beam="1">  1        2 0.48299634E+00 0.25528180E+04</pdfrwt>
<pdfrwt beam="2">  1       -1 0.79837909E-01 0.25528180E+04</pdfrwt>
<totfact> 0.22460657E+00</totfact>
</mgrwt>
</event>
<event>
12    7  0.2492439E-007  0.2352378E+04  0.7818608E-02  0.8457551E-01
          2   -1    0    0  501    0  0.00000000000E+00  0.00000000000E+00  0.71711922584E+03  0.71711922584E+03  0.00000000000E+00 0. -1.
         -1   -1    0    0    0  501 -0.00000000000E+00 -0.00000000000E+00 -0.19291364126E+04  0.19291364126E+04  0.00000000000E+00 0.  1.
         24    2    1    2    0    0  0.86043707611E+03  0.92675759615E+02 -0.10850437909E+04  0.13901843538E+04  0.79697872344E+02 0.  0.
        254    2    1    2    0    0 -0.86043707611E+03 -0.92675759615E+02 -0.12697339585E+03  0.12560712847E+04  0.90147216849E+03 0.  0.
         23    2    4    4    0    0 -0.64778189530E+03 -0.46556492391E+03 -0.14894267041E+03  0.81642382600E+03  0.89397216572E+02 0.  0.
         23    2    4    4    0    0 -0.21265518081E+03  0.37288916430E+03  0.21969274564E+02  0.43964745868E+03  0.92405000530E+02 0.  0.
          2    1    3    3  502    0  0.14117935882E+03 -0.40308519879E+01 -0.14272213338E+03  0.20079209766E+03  0.00000000000E+00 0. -1.
         -1    1    3    3    0  502  0.71925771729E+03  0.96706611603E+02 -0.94232165753E+03  0.11893922561E+04  0.00000000000E+00 0.  1.
         13    1    5    5    0    0 -0.33403967891E+03 -0.28999455733E+03 -0.63577603521E+02  0.44690207209E+03  0.00000000000E+00 0. -1.
        -13    1    5    5    0    0 -0.31374221639E+03 -0.17557036658E+03 -0.85365066888E+02  0.36952175391E+03  0.00000000000E+00 0.  1.
          1    1    6    6  503    0 -0.19468417170E+03  0.28425414313E+03  0.41805457498E+02  0.34705913167E+03  0.00000000000E+00 0. -1.
         -1    1    6    6    0  503 -0.17971009114E+02  0.88635021169E+02 -0.19836182934E+02  0.92588327016E+02  0.00000000000E+00 0.  1.
<mgrwt>
<rscale>  0 0.23523782E+04</rscale>
<asrwt>0</asrwt>
<pdfrwt beam="1">  1        2 0.11032604E+00 0.23523782E+04</pdfrwt>
<pdfrwt beam="2">  1       -1 0.29679022E+00 0.23523782E+04</pdfrwt>
<totfact> 0.14180945E+00</totfact>
</mgrwt>
</event>
<event>
12    7  0.2492439E-007  0.1335757E+04  0.7818608E-02  0.9001680E-01
          2   -1    0    0  501    0  0.00000000000E+00  0.00000000000E+00  0.60160767424E+03  0.60160767424E+03  0.00000000000E+00 0. -1.
         -1   -1    0    0    0  501 -0.00000000000E+00 -0.00000000000E+00 -0.74144998398E+03  0.74144998398E+03  0.00000000000E+00 0.  1.
         24    2    1    2    0    0  0.34181054839E+03  0.82433355487E+02 -0.11150909379E+03  0.37719186098E+03  0.78801731598E+02 0.  0.
        254    2    1    2    0    0 -0.34181054839E+03 -0.82433355487E+02 -0.28333215949E+02  0.96586579724E+03  0.89914640525E+03 0.  0.
         23    2    4    4    0    0 -0.76654791096E+02 -0.32541364226E+03  0.30893618573E+03  0.46441768166E+03  0.92044666453E+02 0.  0.
         23    2    4    4    0    0 -0.26515575729E+03  0.24298028677E+03 -0.33726940167E+03  0.50144811558E+03  0.91392384442E+02 0.  0.
          2    1    3    3  502    0  0.15588795055E+03  0.54699223061E+02 -0.15000624431E+02  0.16588573436E+03  0.00000000000E+00 0. -1.
         -3    1    3    3    0  502  0.18592259783E+03  0.27734132426E+02 -0.96508469360E+02  0.21130612661E+03  0.00000000000E+00 0.  1.
         13    1    5    5    0    0 -0.36019662657E+01 -0.12496786720E+03  0.66959782218E+02  0.14182226351E+03  0.00000000000E+00 0. -1.
        -13    1    5    5    0    0 -0.73052824830E+02 -0.20044577505E+03  0.24197640351E+03  0.32259541814E+03  0.00000000000E+00 0.  1.
          1    1    6    6  503    0 -0.22760148023E+03  0.18024425666E+03 -0.22429404548E+03  0.36687633434E+03  0.00000000000E+00 0. -1.
         -1    1    6    6    0  503 -0.37554277058E+02  0.62736030110E+02 -0.11297535619E+03  0.13457178124E+03  0.00000000000E+00 0.  1.
<mgrwt>
<rscale>  0 0.13357575E+04</rscale>
<asrwt>0</asrwt>
<pdfrwt beam="1">  1        2 0.92555027E-01 0.13357575E+04</pdfrwt>
<pdfrwt beam="2">  1       -1 0.11406923E+00 0.13357575E+04</pdfrwt>
<totfact> 0.38678871E+01</totfact>
</mgrwt>
</event>
<event>
12    7  0.2492439E-007  0.2963210E+04  0.7818608E-02  0.8254315E-01
         -1   -1    0    0    0  501 -0.00000000000E+00  0.00000000000E+00  0.68231917113E+03  0.68231917113E+03  0.00000000000E+00 0.  1.
          2   -1    0    0  501    0  0.00000000000E+00 -0.00000000000E+00 -0.32171950934E+04  0.32171950934E+04  0.00000000000E+00 0. -1.
         24    2    1    2    0    0 -0.75202664723E+03 -0.10967110523E+04 -0.89983298677E+03  0.16075078914E+04  0.77865309338E+02 0.  0.
        254    2    1    2    0    0  0.75202664723E+03  0.10967110523E+04 -0.16350429355E+04  0.22920063731E+04  0.90089322523E+03 0.  0.
         23    2    4    4    0    0  0.72030652091E+03  0.37845302784E+03 -0.54921243320E+03  0.98611069160E+03  0.93337135991E+02 0.  0.
         23    2    4    4    0    0  0.31720126325E+02  0.71825802445E+03 -0.10858305023E+04  0.13058956815E+04  0.97133389154E+02 0.  0.
          4    1    3    3  502    0 -0.47621578257E+02 -0.10613765779E+03 -0.87263784015E+02  0.14542346825E+03  0.00000000000E+00 0. -1.
         -3    1    3    3    0  502 -0.70440506897E+03 -0.99057339450E+03 -0.81256920275E+03  0.14620844231E+04  0.00000000000E+00 0.  1.
         13    1    5    5    0    0  0.17191645676E+03  0.47143175156E+02 -0.12394132960E+03  0.21711563797E+03  0.00000000000E+00 0. -1.
        -13    1    5    5    0    0  0.54839006415E+03  0.33130985269E+03 -0.42527110361E+03  0.76899505363E+03  0.00000000000E+00 0.  1.
          1    1    6    6  503    0 -0.24947664121E+01  0.11195718812E+03 -0.11302317576E+03  0.15910648664E+03  0.00000000000E+00 0. -1.
         -1    1    6    6    0  503  0.34214892737E+02  0.60630083632E+03 -0.97280732649E+03  0.11467891949E+04  0.00000000000E+00 0.  1.
<mgrwt>
<rscale>  0 0.29632103E+04</rscale>
<asrwt>0</asrwt>
<pdfrwt beam="1">  1        2 0.49495309E+00 0.29632103E+04</pdfrwt>
<pdfrwt beam="2">  1       -1 0.10497218E+00 0.29632103E+04</pdfrwt>
<totfact> 0.10493799E+00</totfact>
</mgrwt>
</event>
<event>
12    7  0.2492439E-007  0.3638802E+04  0.7818608E-02  0.8081661E-01
         -1   -1    0    0    0  501 -0.00000000000E+00  0.00000000000E+00  0.25873974820E+04  0.25873974820E+04  0.00000000000E+00 0.  1.
          2   -1    0    0  501    0  0.00000000000E+00 -0.00000000000E+00 -0.12793630638E+04  0.12793630638E+04  0.00000000000E+00 0. -1.
         24    2    1    2    0    0 -0.19377673146E+02  0.98556804234E+03 -0.86650160716E+03  0.13149423905E+04  0.80799720983E+02 0.  0.
        254    2    1    2    0    0  0.19377673146E+02 -0.98556804234E+03  0.21745360253E+04  0.25518181553E+04  0.90080470254E+03 0.  0.
         23    2    4    4    0    0 -0.32436167013E+03 -0.60364193177E+02  0.61225276612E+03  0.70147491807E+03  0.91429110248E+02 0.  0.
         23    2    4    4    0    0  0.34373934327E+03 -0.92520384916E+03  0.15622832592E+04  0.18503432372E+04  0.94245504037E+02 0.  0.
          4    1    3    3  502    0  0.18896916838E+02  0.30532089577E+03 -0.30615536783E+03  0.43279215810E+03  0.00000000000E+00 0. -1.
         -1    1    3    3    0  502 -0.38274589984E+02  0.68024714656E+03 -0.56034623933E+03  0.88215023243E+03  0.00000000000E+00 0.  1.
         13    1    5    5    0    0 -0.84595615892E+01  0.12789321730E+02  0.51321486048E+02  0.53563288387E+02  0.00000000000E+00 0.  1.
        -13    1    5    5    0    0 -0.31590210854E+03 -0.73153514907E+02  0.56093128007E+03  0.64791162969E+03  0.00000000000E+00 0. -1.
          4    1    6    6  503    0  0.23815696424E+03 -0.74967916307E+03  0.12471758694E+04  0.14745118638E+04  0.00000000000E+00 0. -1.
         -4    1    6    6    0  503  0.10558237903E+03 -0.17552468609E+03  0.31510738975E+03  0.37583137345E+03  0.00000000000E+00 0.  1.
<mgrwt>
<rscale>  0 0.36388024E+04</rscale>
<asrwt>0</asrwt>
<pdfrwt beam="1">  1        2 0.19682509E+00 0.36388024E+04</pdfrwt>
<pdfrwt beam="2">  1       -1 0.39806115E+00 0.36388024E+04</pdfrwt>
<totfact> 0.11592457E-01</totfact>
</mgrwt>
</event>
<event>
12    7  0.2492439E-007  0.2378134E+04  0.7818608E-02  0.8447735E-01
          2   -1    0    0  501    0  0.00000000000E+00  0.00000000000E+00  0.23081409667E+04  0.23081409667E+04  0.00000000000E+00 0. -1.
         -1   -1    0    0    0  501 -0.00000000000E+00 -0.00000000000E+00 -0.61256236810E+03  0.61256236810E+03  0.00000000000E+00 0.  1.
         24    2    1    2    0    0 -0.56229579086E+03  0.79300627487E+03  0.10920558471E+04  0.14642568128E+04  0.80165653780E+02 0.  0.
        254    2    1    2    0    0  0.56229579086E+03 -0.79300627487E+03  0.60352275143E+03  0.14564465220E+04  0.90108892546E+03 0.  0.
         23    2    4    4    0    0  0.16699979688E+03 -0.16231969143E+03 -0.22688601391E+03  0.33767368567E+03  0.91157228455E+02 0.  0.
         23    2    4    4    0    0  0.39529599398E+03 -0.63068658344E+03  0.83040876534E+03  0.11187728363E+04  0.89718740636E+02 0.  0.
          4    1    3    3  502    0 -0.28590323013E+03  0.33609212303E+03  0.50794121524E+03  0.67283196290E+03  0.00000000000E+00 0. -1.
         -3    1    3    3    0  502 -0.27639256074E+03  0.45691415184E+03  0.58411463189E+03  0.79142484986E+03  0.00000000000E+00 0.  1.
         13    1    5    5    0    0  0.56032015500E+02 -0.36068469453E+01 -0.44396464195E+02  0.71579620975E+02  0.00000000000E+00 0. -1.
        -13    1    5    5    0    0  0.11096778138E+03 -0.15871284449E+03 -0.18248954971E+03  0.26609406469E+03  0.00000000000E+00 0.  1.
          2    1    6    6  503    0  0.38877505652E+03 -0.60973854287E+03  0.82312477349E+03  0.10956557525E+04  0.00000000000E+00 0.  1.
         -2    1    6    6    0  503  0.65209374650E+01 -0.20948040569E+02  0.72839918502E+01  0.23117083864E+02  0.00000000000E+00 0. -1.
<mgrwt>
<rscale>  0 0.23781340E+04</rscale>
<asrwt>0</asrwt>
<pdfrwt beam="1">  1        2 0.35509861E+00 0.23781340E+04</pdfrwt>
<pdfrwt beam="2">  1       -1 0.94240366E-01 0.23781340E+04</pdfrwt>
<totfact> 0.50114480E+00</totfact>
</mgrwt>
</event>
<event>
12    7  0.2492439E-007  0.1435159E+04  0.7818608E-02  0.8928755E-01
         -1   -1    0    0    0  501 -0.00000000000E+00  0.00000000000E+00  0.74567213998E+03  0.74567213998E+03  0.00000000000E+00 0.  1.
          2   -1    0    0  501    0  0.00000000000E+00 -0.00000000000E+00 -0.69054495182E+03  0.69054495182E+03  0.00000000000E+00 0. -1.
         24    2    1    2    0    0 -0.39501417195E+03  0.98108610966E+02 -0.12224787634E+03  0.43120769091E+03  0.73034470267E+02 0.  0.
        254    2    1    2    0    0  0.39501417195E+03 -0.98108610966E+02  0.17737506450E+03  0.10050094009E+04  0.90162103280E+03 0.  0.
         23    2    4    4    0    0 -0.15432135534E+03 -0.12816360192E+03  0.35561291256E+03  0.41837797453E+03  0.91315915461E+02 0.  0.
         23    2    4    4    0    0  0.54933552729E+03  0.30054990958E+02 -0.17823784806E+03  0.58663142636E+03  0.98462560855E+02 0.  0.
          2    1    3    3  502    0 -0.19275335026E+03  0.83923735116E+02 -0.51342199862E+02  0.21640949341E+03  0.00000000000E+00 0. -1.
         -1    1    3    3    0  502 -0.20226082169E+03  0.14184875851E+02 -0.70905676476E+02  0.21479819750E+03  0.00000000000E+00 0.  1.
         13    1    5    5    0    0  0.62916387111E+01 -0.19145679409E+02  0.71476440625E+02  0.74263203016E+02  0.00000000000E+00 0. -1.
        -13    1    5    5    0    0 -0.16061299405E+03 -0.10901792252E+03  0.28413647194E+03  0.34411477151E+03  0.00000000000E+00 0.  1.
          1    1    6    6  503    0  0.21869628105E+03  0.18342854342E+02 -0.12182532322E+03  0.25100982656E+03  0.00000000000E+00 0. -1.
         -1    1    6    6    0  503  0.33063924624E+03  0.11712136617E+02 -0.56412524847E+02  0.33562159980E+03  0.00000000000E+00 0.  1.
<mgrwt>
<rscale>  0 0.14351587E+04</rscale>
<asrwt>0</asrwt>
<pdfrwt beam="1">  1        2 0.10623768E+00 0.14351587E+04</pdfrwt>
<pdfrwt beam="2">  1       -1 0.11471879E+00 0.14351587E+04</pdfrwt>
<totfact> 0.31928098E+01</totfact>
</mgrwt>
</event>
<event>
12    7  0.2492439E-007  0.1851754E+04  0.7818608E-02  0.8679252E-01
          2   -1    0    0  501    0  0.00000000000E+00  0.00000000000E+00  0.99646098231E+03  0.99646098231E+03  0.00000000000E+00 0. -1.
         -1   -1    0    0    0  501 -0.00000000000E+00 -0.00000000000E+00 -0.86029236342E+03  0.86029236342E+03  0.00000000000E+00 0.  1.
         24    2    1    2    0    0 -0.22521407839E+03  0.55783156916E+03  0.42279173243E+03  0.73950651505E+03  0.78864416150E+02 0.  0.
        254    2    1    2    0    0  0.22521407839E+03 -0.55783156916E+03 -0.28662311353E+03  0.11172468307E+04  0.89676654197E+03 0.  0.
         23    2    4    4    0    0 -0.20997116147E+03 -0.50435390892E+03 -0.36533249408E+03  0.66218375533E+03  0.80986051250E+02 0.  0.
         23    2    4    4    0    0  0.43518523985E+03 -0.53477660239E+02  0.78709380554E+02  0.45506307535E+03  0.92957962711E+02 0.  0.
          4    1    3    3  502    0 -0.98725693536E+02  0.14956694978E+03  0.13118723503E+03  0.22209710864E+03  0.00000000000E+00 0. -1.
         -3    1    3    3    0  502 -0.12648838485E+03  0.40826461938E+03  0.29160449740E+03  0.51740940641E+03  0.00000000000E+00 0.  1.
         13    1    5    5    0    0 -0.11704315635E+02 -0.21055563890E+02 -0.40245572229E+02  0.46904518538E+02  0.00000000000E+00 0. -1.
        -13    1    5    5    0    0 -0.19826684583E+03 -0.48329834503E+03 -0.32508692185E+03  0.61527923679E+03  0.00000000000E+00 0.  1.
          2    1    6    6  503    0  0.33337197675E+03 -0.43608362092E+02  0.99613308721E+02  0.35065848828E+03  0.00000000000E+00 0. -1.
         -2    1    6    6    0  503  0.10181326310E+03 -0.98692981469E+01 -0.20903928166E+02  0.10440458707E+03  0.00000000000E+00 0.  1.
<mgrwt>
<rscale>  0 0.18517535E+04</rscale>
<asrwt>0</asrwt>
<pdfrwt beam="1">  1        2 0.15330169E+00 0.18517535E+04</pdfrwt>
<pdfrwt beam="2">  1       -1 0.13235267E+00 0.18517535E+04</pdfrwt>
<totfact> 0.13161895E+01</totfact>
</mgrwt>
</event>
<event>
12    7  0.2492439E-007  0.2095030E+04  0.7818608E-02  0.8563436E-01
         -1   -1    0    0    0  501 -0.00000000000E+00  0.00000000000E+00  0.90073645670E+03  0.90073645670E+03  0.00000000000E+00 0.  1.
          2   -1    0    0  501    0  0.00000000000E+00 -0.00000000000E+00 -0.12182112898E+04  0.12182112898E+04  0.00000000000E+00 0. -1.
         24    2    1    2    0    0  0.52719610976E+03 -0.25167640822E+03 -0.75738130911E+03  0.95944348642E+03  0.75024020474E+02 0.  0.
        254    2    1    2    0    0 -0.52719610976E+03  0.25167640822E+03  0.43990647603E+03  0.11595042601E+04  0.89980868458E+03 0.  0.
         23    2    4    4    0    0  0.19952008538E+03  0.20998579350E+03  0.27209198480E+03  0.40705926151E+03  0.88095949070E+02 0.  0.
         23    2    4    4    0    0 -0.72671619514E+03  0.41690614724E+02  0.16781449123E+03  0.75244499856E+03  0.90317422191E+02 0.  0.
          4    1    3    3  502    0  0.32223015775E+03 -0.11280488257E+03 -0.43987446777E+03  0.55681842955E+03  0.00000000000E+00 0. -1.
         -3    1    3    3    0  502  0.20496595201E+03 -0.13887152566E+03 -0.31750684134E+03  0.40262505687E+03  0.00000000000E+00 0.  1.
         13    1    5    5    0    0 -0.30306626128E+01  0.24000607519E+02  0.71969767767E+01  0.25239067968E+02  0.00000000000E+00 0. -1.
        -13    1    5    5    0    0  0.20255074799E+03  0.18598518598E+03  0.26489500802E+03  0.38182019354E+03  0.00000000000E+00 0.  1.
          4    1    6    6  503    0 -0.35965493220E+03 -0.20623409540E+02  0.10150668132E+03  0.37427343163E+03  0.00000000000E+00 0. -1.
         -4    1    6    6    0  503 -0.36706126294E+03  0.62314024264E+02  0.66307809908E+02  0.37817156692E+03  0.00000000000E+00 0.  1.
<mgrwt>
<rscale>  0 0.20950297E+04</rscale>
<asrwt>0</asrwt>
<pdfrwt beam="1">  1        2 0.18741712E+00 0.20950297E+04</pdfrwt>
<pdfrwt beam="2">  1       -1 0.13857484E+00 0.20950297E+04</pdfrwt>
<totfact> 0.83591966E+00</totfact>
</mgrwt>
</event>
<event>
12    7  0.2492439E-007  0.2114466E+04  0.7818608E-02  0.8554897E-01
         -1   -1    0    0    0  501 -0.00000000000E+00  0.00000000000E+00  0.33328789573E+03  0.33328789573E+03  0.00000000000E+00 0.  1.
          2   -1    0    0  501    0  0.00000000000E+00 -0.00000000000E+00 -0.33536835506E+04  0.33536835506E+04  0.00000000000E+00 0. -1.
         24    2    1    2    0    0  0.19343915119E+03 -0.33140340609E+03  0.11218263762E+03  0.40795775290E+03  0.81225988350E+02 0.  0.
        254    2    1    2    0    0 -0.19343915119E+03  0.33140340609E+03 -0.31325782925E+04  0.32790136934E+04  0.88973991722E+03 0.  0.
         23    2    4    4    0    0 -0.12770485592E+03  0.21745827050E+03 -0.31037074613E+04  0.31152575707E+04  0.90736415213E+02 0.  0.
         23    2    4    4    0    0 -0.65734295276E+02  0.11394513560E+03 -0.28870831152E+02  0.16375612266E+03  0.93156058923E+02 0.  0.
          4    1    3    3  502    0  0.19731984657E+02 -0.56005799766E+01 -0.39877645398E+01  0.20895453587E+02  0.00000000000E+00 0. -1.
         -3    1    3    3    0  502  0.17370716654E+03 -0.32580282612E+03  0.11617040216E+03  0.38706229931E+03  0.00000000000E+00 0.  1.
         13    1    5    5    0    0 -0.54881375067E+01  0.83844253994E+02 -0.78267558349E+03  0.78717281938E+03  0.00000000000E+00 0. -1.
        -13    1    5    5    0    0 -0.12221671841E+03  0.13361401650E+03 -0.23210318778E+04  0.23280847514E+04  0.00000000000E+00 0.  1.
          2    1    6    6  503    0 -0.82894200587E+02  0.63257449130E+02 -0.34771503728E+02  0.10991820064E+03  0.00000000000E+00 0. -1.
         -2    1    6    6    0  503  0.17159905311E+02  0.50687686466E+02  0.59006725755E+01  0.53837922011E+02  0.00000000000E+00 0.  1.
<mgrwt>
<rscale>  0 0.21144665E+04</rscale>
<asrwt>0</asrwt>
<pdfrwt beam="1">  1        2 0.51595132E+00 0.21144665E+04</pdfrwt>
<pdfrwt beam="2">  1       -1 0.51275061E-01 0.21144665E+04</pdfrwt>
<totfact> 0.41216604E+00</totfact>
</mgrwt>
</event>
<event>
12    7  0.2492439E-007  0.3183374E+04  0.7818608E-02  0.8193222E-01
          2   -1    0    0  501    0  0.00000000000E+00  0.00000000000E+00  0.96151323522E+03  0.96151323522E+03  0.00000000000E+00 0. -1.
         -1   -1    0    0    0  501 -0.00000000000E+00 -0.00000000000E+00 -0.26348753053E+04  0.26348753053E+04  0.00000000000E+00 0.  1.
         24    2    1    2    0    0  0.94802260948E+03 -0.11004552942E+04 -0.57205573662E+03  0.15630935972E+04  0.79152415991E+02 0.  0.
        254    2    1    2    0    0 -0.94802260948E+03  0.11004552942E+04 -0.11013063334E+04  0.20332949433E+04  0.90092395010E+03 0.  0.
         23    2    4    4    0    0 -0.52269281831E+02  0.57604166557E+03 -0.71021137079E+03  0.92040886999E+03  0.90532968843E+02 0.  0.
         23    2    4    4    0    0 -0.89575332765E+03  0.52441362867E+03 -0.39109496265E+03  0.11128860734E+04  0.90423805183E+02 0.  0.
          4    1    3    3  502    0  0.18554196476E+03 -0.24808510947E+03 -0.95991762973E+02  0.32432462255E+03  0.00000000000E+00 0. -1.
         -3    1    3    3    0  502  0.76248064472E+03 -0.85237018476E+03 -0.47606397365E+03  0.12387689746E+04  0.00000000000E+00 0.  1.
         13    1    5    5    0    0 -0.27943723682E+02  0.25496817868E+03 -0.24553336091E+03  0.35507218301E+03  0.00000000000E+00 0. -1.
        -13    1    5    5    0    0 -0.24325558149E+02  0.32107348689E+03 -0.46467800989E+03  0.56533668697E+03  0.00000000000E+00 0.  1.
          3    1    6    6  503    0 -0.13007330313E+03  0.74310533311E+02 -0.23459709477E+02  0.15162940848E+03  0.00000000000E+00 0. -1.
         -3    1    6    6    0  503 -0.76568002452E+03  0.45010309536E+03 -0.36763525317E+03  0.96125666488E+03  0.00000000000E+00 0.  1.
<mgrwt>
<rscale>  0 0.31833740E+04</rscale>
<asrwt>0</asrwt>
<pdfrwt beam="1">  1        2 0.14792511E+00 0.31833740E+04</pdfrwt>
<pdfrwt beam="2">  1       -1 0.40536543E+00 0.31833740E+04</pdfrwt>
<totfact> 0.16838646E-01</totfact>
</mgrwt>
</event>
<event>
12    7  0.2492439E-007  0.1456706E+04  0.7818608E-02  0.8913765E-01
          2   -1    0    0  501    0  0.00000000000E+00  0.00000000000E+00  0.63777175439E+03  0.63777175439E+03  0.00000000000E+00 0. -1.
         -1   -1    0    0    0  501 -0.00000000000E+00 -0.00000000000E+00 -0.83179934673E+03  0.83179934673E+03  0.00000000000E+00 0.  1.
         24    2    1    2    0    0 -0.16768594545E+02 -0.26801608043E+03  0.29728318351E+03  0.40888663795E+03  0.81836338882E+02 0.  0.
        254    2    1    2    0    0  0.16768594545E+02  0.26801608043E+03 -0.49131077585E+03  0.10606844632E+04  0.90086150258E+03 0.  0.
         23    2    4    4    0    0 -0.28891106354E+03 -0.93966435877E+02 -0.48326088640E+03  0.57797003154E+03  0.90603417863E+02 0.  0.
         23    2    4    4    0    0  0.30567965808E+03  0.36198251631E+03 -0.80498894427E+01  0.48271443163E+03  0.92070767919E+02 0.  0.
          4    1    3    3  502    0  0.14120357774E+02 -0.20882200118E+03  0.25483111402E+03  0.32976493045E+03  0.00000000000E+00 0. -1.
         -3    1    3    3    0  502 -0.30888952319E+02 -0.59194079249E+02  0.42452069490E+02  0.79121707498E+02  0.00000000000E+00 0.  1.
         13    1    5    5    0    0 -0.39956123055E+02  0.16683311992E+02 -0.49674813237E+02  0.65896978222E+02  0.00000000000E+00 0. -1.
        -13    1    5    5    0    0 -0.24895494048E+03 -0.11064974787E+03 -0.43358607317E+03  0.51207305332E+03  0.00000000000E+00 0.  1.
          3    1    6    6  503    0  0.29414860857E+03  0.35750453402E+03 -0.22728545307E+02  0.46351858921E+03  0.00000000000E+00 0.  1.
         -3    1    6    6    0  503  0.11531049512E+02  0.44779822825E+01  0.14678655864E+02  0.19195842418E+02  0.00000000000E+00 0. -1.
<mgrwt>
<rscale>  0 0.14567060E+04</rscale>
<asrwt>0</asrwt>
<pdfrwt beam="1">  1        2 0.98118732E-01 0.14567060E+04</pdfrwt>
<pdfrwt beam="2">  1       -1 0.12796913E+00 0.14567060E+04</pdfrwt>
<totfact> 0.26906658E+01</totfact>
</mgrwt>
</event>
<event>
12    7  0.2492439E-007  0.2414892E+04  0.7818608E-02  0.8433949E-01
         -1   -1    0    0    0  501 -0.00000000000E+00  0.00000000000E+00  0.76098379473E+03  0.76098379473E+03  0.00000000000E+00 0.  1.
          2   -1    0    0  501    0  0.00000000000E+00 -0.00000000000E+00 -0.19158431608E+04  0.19158431608E+04  0.00000000000E+00 0. -1.
         24    2    1    2    0    0  0.51304065905E+03 -0.20374380576E+03  0.47857849241E+03  0.73483018785E+03  0.78840188742E+02 0.  0.
        254    2    1    2    0    0 -0.51304065905E+03  0.20374380576E+03 -0.16334378585E+04  0.19419967677E+04  0.89359384059E+03 0.  0.
         23    2    4    4    0    0 -0.11383980532E+03  0.44466733865E+02 -0.14623826364E+04  0.14702764533E+04  0.90626057545E+02 0.  0.
         23    2    4    4    0    0 -0.39920085373E+03  0.15927707190E+03 -0.17105522207E+03  0.47172031434E+03  0.92356151458E+02 0.  0.
          4    1    3    3  502    0  0.22449810276E+03 -0.12399282933E+03  0.25029704275E+03  0.35836047421E+03  0.00000000000E+00 0. -1.
         -3    1    3    3    0  502  0.28854255629E+03 -0.79750976436E+02  0.22828144966E+03  0.37646971364E+03  0.00000000000E+00 0.  1.
         13    1    5    5    0    0 -0.16365058837E+02  0.50319501603E+02 -0.61965504404E+03  0.62191015508E+03  0.00000000000E+00 0.  1.
        -13    1    5    5    0    0 -0.97474746481E+02 -0.58527677373E+01 -0.84272759234E+03  0.84836629824E+03  0.00000000000E+00 0. -1.
          3    1    6    6  503    0 -0.55895817628E+02  0.57955488382E+02 -0.44924735524E+02  0.92203106910E+02  0.00000000000E+00 0. -1.
         -3    1    6    6    0  503 -0.34330503610E+03  0.10132158351E+03 -0.12613048655E+03  0.37951720743E+03  0.00000000000E+00 0.  1.
<mgrwt>
<rscale>  0 0.24148918E+04</rscale>
<asrwt>0</asrwt>
<pdfrwt beam="1">  1        2 0.29474510E+00 0.24148918E+04</pdfrwt>
<pdfrwt beam="2">  1       -1 0.11707443E+00 0.24148918E+04</pdfrwt>
<totfact> 0.50006010E+00</totfact>
</mgrwt>
</event>
<event>
12    7  0.2492439E-007  0.2975142E+04  0.7818608E-02  0.8250865E-01
          2   -1    0    0  501    0  0.00000000000E+00  0.00000000000E+00  0.36595260602E+04  0.36595260602E+04  0.00000000000E+00 0. -1.
         -1   -1    0    0    0  501 -0.00000000000E+00 -0.00000000000E+00 -0.60468682698E+03  0.60468682698E+03  0.00000000000E+00 0.  1.
         24    2    1    2    0    0 -0.57552053655E+03 -0.11727342946E+04  0.92767872766E+03  0.16044914416E+04  0.85295667462E+02 0.  0.
        254    2    1    2    0    0  0.57552053655E+03  0.11727342946E+04  0.21271605056E+04  0.26597214456E+04  0.91802872391E+03 0.  0.
         23    2    4    4    0    0 -0.19282600243E+02 -0.11447073703E+02  0.71069698108E+03  0.71792485729E+03  0.99111289142E+02 0.  0.
         23    2    4    4    0    0  0.59480313679E+03  0.11841813683E+04  0.14164635245E+04  0.19417965883E+04  0.90159800073E+02 0.  0.
          2    1    3    3  502    0 -0.42237649748E+03 -0.83329079710E+03  0.70735715641E+03  0.11718061294E+04  0.00000000000E+00 0. -1.
         -1    1    3    3    0  502 -0.15314403906E+03 -0.33944349745E+03  0.22032157125E+03  0.43268531223E+03  0.00000000000E+00 0.  1.
         13    1    5    5    0    0 -0.18185944232E+02 -0.16111915144E+02  0.37327653376E+02  0.44538478687E+02  0.00000000000E+00 0. -1.
        -13    1    5    5    0    0 -0.10966560108E+01  0.46648414413E+01  0.67336932770E+03  0.67338637861E+03  0.00000000000E+00 0.  1.
          3    1    6    6  503    0  0.28633626840E+03  0.49465723716E+03  0.56774639531E+03  0.80561169943E+03  0.00000000000E+00 0. -1.
         -3    1    6    6    0  503  0.30846686839E+03  0.68952413110E+03  0.84871712921E+03  0.11361848889E+04  0.00000000000E+00 0.  1.
<mgrwt>
<rscale>  0 0.29751418E+04</rscale>
<asrwt>0</asrwt>
<pdfrwt beam="1">  1        2 0.56300400E+00 0.29751418E+04</pdfrwt>
<pdfrwt beam="2">  1       -1 0.93028745E-01 0.29751418E+04</pdfrwt>
<totfact> 0.68317020E-01</totfact>
</mgrwt>
</event>
<event>
12    7  0.2492439E-007  0.2470304E+04  0.7818608E-02  0.8413642E-01
          2   -1    0    0  501    0  0.00000000000E+00  0.00000000000E+00  0.22628847745E+04  0.22628847745E+04  0.00000000000E+00 0. -1.
         -1   -1    0    0    0  501 -0.00000000000E+00 -0.00000000000E+00 -0.67418407814E+03  0.67418407814E+03  0.00000000000E+00 0.  1.
         24    2    1    2    0    0 -0.10045491104E+04 -0.38508586246E+03  0.61588194141E+03  0.12421930133E+04  0.79516538217E+02 0.  0.
        254    2    1    2    0    0  0.10045491104E+04  0.38508586246E+03  0.97281875495E+03  0.16948758393E+04  0.87682252706E+03 0.  0.
         23    2    4    4    0    0  0.99093064415E+03  0.22110890539E+03  0.40752030823E+03  0.10979106148E+04  0.92207520439E+02 0.  0.
         23    2    4    4    0    0  0.13618466283E+02  0.16397695707E+03  0.56529844672E+03  0.59696522455E+03  0.98647049552E+02 0.  0.
          2    1    3    3  502    0 -0.82319367172E+03 -0.29386544174E+03  0.52638096956E+03  0.10203340846E+04  0.00000000000E+00 0. -1.
         -1    1    3    3    0  502 -0.18135543871E+03 -0.91220420722E+02  0.89500971858E+02  0.22185892876E+03  0.00000000000E+00 0.  1.
         13    1    5    5    0    0  0.88130051585E+03  0.21035487236E+03  0.33489557607E+03  0.96596833201E+03  0.00000000000E+00 0. -1.
        -13    1    5    5    0    0  0.10963012830E+03  0.10754033025E+02  0.72624732161E+02  0.13194228276E+03  0.00000000000E+00 0.  1.
          3    1    6    6  503    0  0.84765068488E+01  0.93402067416E+02  0.46409702643E+03  0.47347845495E+03  0.00000000000E+00 0. -1.
         -3    1    6    6    0  503  0.51419594341E+01  0.70574889653E+02  0.10120142029E+03  0.12348676960E+03  0.00000000000E+00 0.  1.
<mgrwt>
<rscale>  0 0.24703043E+04</rscale>
<asrwt>0</asrwt>
<pdfrwt beam="1">  1        2 0.34813611E+00 0.24703043E+04</pdfrwt>
<pdfrwt beam="2">  1       -1 0.10372063E+00 0.24703043E+04</pdfrwt>
<totfact> 0.42390961E+00</totfact>
</mgrwt>
</event>
<event>
12    7  0.2492439E-007  0.1316794E+04  0.7818608E-02  0.9016352E-01
          2   -1    0    0  501    0  0.00000000000E+00  0.00000000000E+00  0.47837667963E+03  0.47837667963E+03  0.00000000000E+00 0. -1.
         -1   -1    0    0    0  501 -0.00000000000E+00 -0.00000000000E+00 -0.90616148949E+03  0.90616148949E+03  0.00000000000E+00 0.  1.
         24    2    1    2    0    0  0.21773120641E+03  0.19570836889E+03  0.76492313103E+02  0.31300856243E+03  0.80091462010E+02 0.  0.
        254    2    1    2    0    0 -0.21773120641E+03 -0.19570836889E+03 -0.50427712296E+03  0.10715296067E+04  0.89898366914E+03 0.  0.
         23    2    4    4    0    0  0.18699008233E+03 -0.31933677348E+03 -0.51192252990E+03  0.63836161867E+03  0.92193349997E+02 0.  0.
         23    2    4    4    0    0 -0.40472128875E+03  0.12362840458E+03  0.76454069455E+01  0.43316798802E+03  0.92156115438E+02 0.  0.
          4    1    3    3  502    0  0.22438568321E+03  0.18654957187E+03  0.70501570884E+02  0.30020018170E+03  0.00000000000E+00 0. -1.
         -3    1    3    3    0  502 -0.66544768019E+01  0.91587970267E+01  0.59907422195E+01  0.12808380726E+02  0.00000000000E+00 0.  1.
         13    1    5    5    0    0  0.20634553717E+02 -0.11945418612E+03 -0.16931780549E+03  0.20823930139E+03  0.00000000000E+00 0. -1.
        -13    1    5    5    0    0  0.16635552862E+03 -0.19988258735E+03 -0.34260472442E+03  0.43012231728E+03  0.00000000000E+00 0.  1.
          2    1    6    6  503    0 -0.85877629442E+02  0.12541657712E+02 -0.33498837828E+02  0.93029202687E+02  0.00000000000E+00 0. -1.
         -2    1    6    6    0  503 -0.31884365930E+03  0.11108674687E+03  0.41144244774E+02  0.34013878533E+03  0.00000000000E+00 0.  1.
<mgrwt>
<rscale>  0 0.13167939E+04</rscale>
<asrwt>0</asrwt>
<pdfrwt beam="1">  1        2 0.73596413E-01 0.13167939E+04</pdfrwt>
<pdfrwt beam="2">  1       -1 0.13940946E+00 0.13167939E+04</pdfrwt>
<totfact> 0.30767530E+01</totfact>
</mgrwt>
</event>
<event>
12    7  0.2492439E-007  0.1880487E+04  0.7818608E-02  0.8664631E-01
         -1   -1    0    0    0  501 -0.00000000000E+00  0.00000000000E+00  0.56289128055E+03  0.56289128055E+03  0.00000000000E+00 0.  1.
          2   -1    0    0  501    0  0.00000000000E+00 -0.00000000000E+00 -0.15705652311E+04  0.15705652311E+04  0.00000000000E+00 0. -1.
         24    2    1    2    0    0 -0.66845793677E+03 -0.18092662190E+03 -0.62433975724E+03  0.93577257023E+03  0.79370743887E+02 0.  0.
        254    2    1    2    0    0  0.66845793677E+03  0.18092662190E+03 -0.38333419330E+03  0.11976839414E+04  0.89884996746E+03 0.  0.
         23    2    4    4    0    0  0.54373775134E+03  0.27361534117E+03  0.15156399795E+03  0.63367456822E+03  0.89753639319E+02 0.  0.
         23    2    4    4    0    0  0.12472018543E+03 -0.92688719262E+02 -0.53489819125E+03  0.56400937319E+03  0.88567345622E+02 0.  0.
          2    1    3    3  502    0 -0.50620105671E+03 -0.14287514255E+03 -0.51708555897E+03  0.73758409112E+03  0.00000000000E+00 0. -1.
         -1    1    3    3    0  502 -0.16225688006E+03 -0.38051479357E+02 -0.10725419827E+03  0.19818847911E+03  0.00000000000E+00 0.  1.
         13    1    5    5    0    0  0.46198108660E+03  0.21048852891E+03  0.96999756161E+02  0.51685674792E+03  0.00000000000E+00 0. -1.
        -13    1    5    5    0    0  0.81756664745E+02  0.63126812254E+02  0.54564241794E+02  0.11681782029E+03  0.00000000000E+00 0.  1.
          3    1    6    6  503    0  0.27442146969E+01 -0.10864681591E+01 -0.14937923262E+03  0.14940838753E+03  0.00000000000E+00 0. -1.
         -3    1    6    6    0  503  0.12197597073E+03 -0.91602251103E+02 -0.38551895864E+03  0.41460098566E+03  0.00000000000E+00 0.  1.
<mgrwt>
<rscale>  0 0.18804866E+04</rscale>
<asrwt>0</asrwt>
<pdfrwt beam="1">  1        2 0.24162542E+00 0.18804866E+04</pdfrwt>
<pdfrwt beam="2">  1       -1 0.86598660E-01 0.18804866E+04</pdfrwt>
<totfact> 0.16274117E+01</totfact>
</mgrwt>
</event>
<event>
12    7  0.2492439E-007  0.3895067E+04  0.7818608E-02  0.8026056E-01
          2   -1    0    0  501    0  0.00000000000E+00  0.00000000000E+00  0.26386292592E+04  0.26386292592E+04  0.00000000000E+00 0. -1.
         -1   -1    0    0    0  501 -0.00000000000E+00 -0.00000000000E+00 -0.14374459438E+04  0.14374459438E+04  0.00000000000E+00 0.  1.
         24    2    1    2    0    0  0.13891613494E+03 -0.17802799682E+04  0.10477597024E+04  0.20720684137E+04  0.83502451988E+02 0.  0.
        254    2    1    2    0    0 -0.13891613494E+03  0.17802799682E+04  0.15342361293E+03  0.20040067893E+04  0.89655448750E+03 0.  0.
         23    2    4    4    0    0  0.23556288810E+03  0.44984093439E+03  0.32261091121E+03  0.60845521521E+03  0.91067054309E+02 0.  0.
         23    2    4    4    0    0 -0.37447902303E+03  0.13304390338E+04 -0.16918729828E+03  0.13955515741E+04  0.92937036881E+02 0.  0.
          4    1    3    3  502    0  0.71554443767E+02 -0.11972319085E+04  0.74101890986E+03  0.14098203098E+04  0.00000000000E+00 0. -1.
         -3    1    3    3    0  502  0.67361691171E+02 -0.58304805963E+03  0.30674079258E+03  0.66224810389E+03  0.00000000000E+00 0.  1.
         13    1    5    5    0    0  0.18580600547E+03  0.30364570784E+03  0.18297324364E+03  0.40025466324E+03  0.00000000000E+00 0.  1.
        -13    1    5    5    0    0  0.49756882630E+02  0.14619522655E+03  0.13963766757E+03  0.20820055197E+03  0.00000000000E+00 0. -1.
          1    1    6    6  503    0 -0.81301736600E+02  0.38974777256E+03 -0.81008409821E+02  0.40629504187E+03  0.00000000000E+00 0. -1.
         -1    1    6    6    0  503 -0.29317728643E+03  0.94069126122E+03 -0.88178888461E+02  0.98925653225E+03  0.00000000000E+00 0.  1.
<mgrwt>
<rscale>  0 0.38950671E+04</rscale>
<asrwt>0</asrwt>
<pdfrwt beam="1">  1        2 0.40594296E+00 0.38950671E+04</pdfrwt>
<pdfrwt beam="2">  1       -1 0.22114553E+00 0.38950671E+04</pdfrwt>
<totfact> 0.28223178E-01</totfact>
</mgrwt>
</event>
<event>
12    7  0.2492439E-007  0.5662013E+04  0.7818608E-02  0.7733781E-01
         -1   -1    0    0    0  501 -0.00000000000E+00  0.00000000000E+00  0.24558237449E+04  0.24558237449E+04  0.00000000000E+00 0.  1.
          2   -1    0    0  501    0  0.00000000000E+00 -0.00000000000E+00 -0.32635064200E+04  0.32635064200E+04  0.00000000000E+00 0. -1.
         24    2    1    2    0    0  0.19307814768E+04  0.19027614810E+04  0.12333775065E+03  0.27148311703E+04  0.81717304728E+02 0.  0.
        254    2    1    2    0    0 -0.19307814768E+04 -0.19027614810E+04 -0.93102042578E+03  0.30044989946E+04  0.90099767528E+03 0.  0.
         23    2    4    4    0    0 -0.18095110556E+04 -0.13434033561E+04 -0.88202792672E+03  0.24218483398E+04  0.91177189776E+02 0.  0.
         23    2    4    4    0    0 -0.12127042118E+03 -0.55935812486E+03 -0.48992499063E+02  0.58265065481E+03  0.97434561030E+02 0.  0.
          4    1    3    3  502    0  0.13896281228E+04  0.14199920191E+04  0.93896155533E+02  0.19890349776E+04  0.00000000000E+00 0. -1.
         -3    1    3    3    0  502  0.54115335397E+03  0.48276946188E+03  0.29441595118E+02  0.72579619272E+03  0.00000000000E+00 0.  1.
         13    1    5    5    0    0 -0.96306701648E+03 -0.72668150180E+03 -0.42433612730E+03  0.12789156470E+04  0.00000000000E+00 0. -1.
        -13    1    5    5    0    0 -0.84644403913E+03 -0.61672185431E+03 -0.45769179942E+03  0.11429326928E+04  0.00000000000E+00 0.  1.
          1    1    6    6  503    0 -0.84163525501E+02 -0.51279071475E+03 -0.56158591846E+02  0.52267734177E+03  0.00000000000E+00 0. -1.
         -1    1    6    6    0  503 -0.37106895678E+02 -0.46567410109E+02  0.71660927832E+01  0.59973313039E+02  0.00000000000E+00 0.  1.
<mgrwt>
<rscale>  0 0.56620126E+04</rscale>
<asrwt>0</asrwt>
<pdfrwt beam="1">  1        2 0.50207791E+00 0.56620126E+04</pdfrwt>
<pdfrwt beam="2">  1       -1 0.37781904E+00 0.56620126E+04</pdfrwt>
<totfact> 0.93596764E-03</totfact>
</mgrwt>
</event>
<event>
12    7  0.2492439E-007  0.1423326E+04  0.7818608E-02  0.8937105E-01
          2   -1    0    0  501    0  0.00000000000E+00  0.00000000000E+00  0.81855486160E+03  0.81855486160E+03  0.00000000000E+00 0. -1.
         -1   -1    0    0    0  501 -0.00000000000E+00 -0.00000000000E+00 -0.61873013165E+03  0.61873013165E+03  0.00000000000E+00 0.  1.
         24    2    1    2    0    0  0.36588515417E+03 -0.16843786621E+03 -0.67012088798E+02  0.41531225296E+03  0.75831303498E+02 0.  0.
        254    2    1    2    0    0 -0.36588515417E+03  0.16843786621E+03  0.26683681876E+03  0.10219727403E+04  0.90054601950E+03 0.  0.
         23    2    4    4    0    0 -0.22808274401E+03 -0.23791245275E+03  0.43393866882E+03  0.55243564805E+03  0.90875209226E+02 0.  0.
         23    2    4    4    0    0 -0.13780241016E+03  0.40635031896E+03 -0.16710185007E+03  0.46953709224E+03  0.91825741072E+02 0.  0.
          2    1    3    3  502    0  0.21183759695E+03 -0.13000929761E+03 -0.18230003356E+02  0.24921861481E+03  0.00000000000E+00 0. -1.
         -1    1    3    3    0  502  0.15404755722E+03 -0.38428568604E+02 -0.48782085441E+02  0.16609363814E+03  0.00000000000E+00 0.  1.
         13    1    5    5    0    0 -0.57868082481E+02 -0.41679748303E+02  0.15860323283E+03  0.17389911401E+03  0.00000000000E+00 0.  1.
        -13    1    5    5    0    0 -0.17021466153E+03 -0.19623270445E+03  0.27533543599E+03  0.37853653405E+03  0.00000000000E+00 0. -1.
          3    1    6    6  503    0 -0.11778053877E+03  0.22135332648E+03 -0.73768514447E+02  0.26136438966E+03  0.00000000000E+00 0. -1.
         -3    1    6    6    0  503 -0.20021871391E+02  0.18499699248E+03 -0.93333335621E+02  0.20817270258E+03  0.00000000000E+00 0.  1.
<mgrwt>
<rscale>  0 0.14233265E+04</rscale>
<asrwt>0</asrwt>
<pdfrwt beam="1">  1        2 0.12593152E+00 0.14233265E+04</pdfrwt>
<pdfrwt beam="2">  1       -1 0.95189251E-01 0.14233265E+04</pdfrwt>
<totfact> 0.39515418E+01</totfact>
</mgrwt>
</event>
<event>
12    7  0.2492439E-007  0.1700227E+04  0.7818608E-02  0.8761235E-01
          2   -1    0    0  501    0  0.00000000000E+00  0.00000000000E+00  0.12570791121E+04  0.12570791121E+04  0.00000000000E+00 0. -1.
         -1   -1    0    0    0  501 -0.00000000000E+00 -0.00000000000E+00 -0.57489856227E+03  0.57489856227E+03  0.00000000000E+00 0.  1.
         24    2    1    2    0    0 -0.42347698113E+03  0.42433437018E+03  0.14283669151E+03  0.62161382972E+03  0.81295889177E+02 0.  0.
        254    2    1    2    0    0  0.42347698113E+03 -0.42433437018E+03  0.53934385833E+03  0.12103638446E+04  0.90260535543E+03 0.  0.
         23    2    4    4    0    0  0.62730739223E+03 -0.83304006292E+02  0.47571869981E+03  0.79708768212E+03  0.92662666818E+02 0.  0.
         23    2    4    4    0    0 -0.20383041110E+03 -0.34103036389E+03  0.63625158521E+02  0.41327616253E+03  0.94342356004E+02 0.  0.
          2    1    3    3  502    0 -0.29852777464E+03  0.27286345472E+03  0.13007065514E+03  0.42484311514E+03  0.00000000000E+00 0. -1.
         -1    1    3    3    0  502 -0.12494920649E+03  0.15147091546E+03  0.12766036373E+02  0.19677071458E+03  0.00000000000E+00 0.  1.
         13    1    5    5    0    0  0.23032094229E+03 -0.33383247943E+02  0.23188421682E+03  0.32853077132E+03  0.00000000000E+00 0. -1.
        -13    1    5    5    0    0  0.39698644995E+03 -0.49920758350E+02  0.24383448299E+03  0.46855691079E+03  0.00000000000E+00 0.  1.
          2    1    6    6  503    0 -0.10166260700E+03 -0.18911743832E+03 -0.12346588630E+02  0.21506540724E+03  0.00000000000E+00 0. -1.
         -2    1    6    6    0  503 -0.10216780411E+03 -0.15191292557E+03  0.75971747150E+02  0.19821075530E+03  0.00000000000E+00 0.  1.
<mgrwt>
<rscale>  0 0.17002270E+04</rscale>
<asrwt>0</asrwt>
<pdfrwt beam="1">  1        2 0.19339679E+00 0.17002270E+04</pdfrwt>
<pdfrwt beam="2">  1       -1 0.88445933E-01 0.17002270E+04</pdfrwt>
<totfact> 0.23857547E+01</totfact>
</mgrwt>
</event>
<event>
12    7  0.2492439E-007  0.2096724E+04  0.7818608E-02  0.8562688E-01
         -1   -1    0    0    0  501 -0.00000000000E+00  0.00000000000E+00  0.13098471786E+04  0.13098471786E+04  0.00000000000E+00 0.  1.
          2   -1    0    0  501    0  0.00000000000E+00 -0.00000000000E+00 -0.83907695179E+03  0.83907695179E+03  0.00000000000E+00 0. -1.
         24    2    1    2    0    0 -0.19209006069E+02 -0.60154322157E+02  0.10648466167E+04  0.10697400717E+04  0.80361529958E+02 0.  0.
        254    2    1    2    0    0  0.19209006069E+02  0.60154322157E+02 -0.59407638997E+03  0.10791840586E+04  0.89873463652E+03 0.  0.
         23    2    4    4    0    0  0.21117781498E+03  0.29588185410E+03 -0.65538965761E+03  0.75523789066E+03  0.93308772656E+02 0.  0.
         23    2    4    4    0    0 -0.19196880891E+03 -0.23572753194E+03  0.61313267644E+02  0.32394616797E+03  0.93607211485E+02 0.  0.
          2    1    3    3  502    0 -0.38514496751E+02 -0.70241306201E+02  0.86973320913E+03  0.87341459950E+03  0.00000000000E+00 0. -1.
         -1    1    3    3    0  502  0.19305490682E+02  0.10086984044E+02  0.19511340760E+03  0.19632547222E+03  0.00000000000E+00 0.  1.
         13    1    5    5    0    0  0.27908157871E+02  0.97872192610E+01 -0.23415564915E+02  0.37721924883E+02  0.00000000000E+00 0. -1.
        -13    1    5    5    0    0  0.18326965711E+03  0.28609463484E+03 -0.63197409270E+03  0.71751596578E+03  0.00000000000E+00 0.  1.
          1    1    6    6  503    0  0.26186769001E+01  0.62794328093E+01 -0.18552217916E+01  0.70519921306E+01  0.00000000000E+00 0. -1.
         -1    1    6    6    0  503 -0.19458748581E+03 -0.24200696475E+03  0.63168489436E+02  0.31689417584E+03  0.00000000000E+00 0.  1.
<mgrwt>
<rscale>  0 0.20967237E+04</rscale>
<asrwt>0</asrwt>
<pdfrwt beam="1">  1        2 0.12908876E+00 0.20967237E+04</pdfrwt>
<pdfrwt beam="2">  1       -1 0.20151495E+00 0.20967237E+04</pdfrwt>
<totfact> 0.49916264E+00</totfact>
</mgrwt>
</event>
<event>
12    7  0.2492439E-007  0.2978075E+04  0.7818608E-02  0.8250020E-01
          2   -1    0    0  501    0  0.00000000000E+00  0.00000000000E+00  0.24096576613E+04  0.24096576613E+04  0.00000000000E+00 0. -1.
         -1   -1    0    0    0  501 -0.00000000000E+00 -0.00000000000E+00 -0.92014425016E+03  0.92014425016E+03  0.00000000000E+00 0.  1.
         24    2    1    2    0    0  0.94799249951E+03  0.28254670176E+03  0.17077316245E+04  0.19751390583E+04  0.79401387285E+02 0.  0.
        254    2    1    2    0    0 -0.94799249951E+03 -0.28254670176E+03 -0.21821821336E+03  0.13546628532E+04  0.89942750648E+03 0.  0.
         23    2    4    4    0    0 -0.25479106049E+03 -0.52606476685E+03 -0.40942246389E+02  0.59353470908E+03  0.94575683548E+02 0.  0.
         23    2    4    4    0    0 -0.69320143902E+03  0.24351806509E+03 -0.17727596697E+03  0.76112814413E+03  0.89777504061E+02 0.  0.
          2    1    3    3  502    0  0.68947516481E+03  0.18260026752E+03  0.12842576474E+04  0.14690257198E+04  0.00000000000E+00 0. -1.
         -1    1    3    3    0  502  0.25851733470E+03  0.99946434241E+02  0.42347397718E+03  0.50611333850E+03  0.00000000000E+00 0.  1.
         13    1    5    5    0    0 -0.13869926026E+03 -0.34607904872E+03  0.11554304564E+02  0.37301701666E+03  0.00000000000E+00 0.  1.
        -13    1    5    5    0    0 -0.11609180023E+03 -0.17998571812E+03 -0.52496550953E+02  0.22051769242E+03  0.00000000000E+00 0. -1.
          2    1    6    6  503    0 -0.29855274053E+03  0.81003415018E+02 -0.11389463831E+03  0.32964720651E+03  0.00000000000E+00 0.  1.
         -2    1    6    6    0  503 -0.39464869850E+03  0.16251465007E+03 -0.63381328660E+02  0.43148093763E+03  0.00000000000E+00 0. -1.
<mgrwt>
<rscale>  0 0.29780750E+04</rscale>
<asrwt>0</asrwt>
<pdfrwt beam="1">  1        2 0.37071656E+00 0.29780750E+04</pdfrwt>
<pdfrwt beam="2">  1       -1 0.14156066E+00 0.29780750E+04</pdfrwt>
<totfact> 0.15575719E+00</totfact>
</mgrwt>
</event>
<event>
12    7  0.2492439E-007  0.1570388E+04  0.7818608E-02  0.8838949E-01
         -1   -1    0    0    0  501 -0.00000000000E+00  0.00000000000E+00  0.69349987884E+03  0.69349987884E+03  0.00000000000E+00 0.  1.
          2   -1    0    0  501    0  0.00000000000E+00 -0.00000000000E+00 -0.88901159142E+03  0.88901159142E+03  0.00000000000E+00 0. -1.
         24    2    1    2    0    0 -0.33707958834E+03  0.39831764215E+03 -0.60526380982E+02  0.53143662361E+03  0.80509932303E+02 0.  0.
        254    2    1    2    0    0  0.33707958834E+03 -0.39831764215E+03 -0.13498533160E+03  0.10510748467E+04  0.90236228899E+03 0.  0.
         23    2    4    4    0    0  0.50861518838E+03 -0.34391584315E+03 -0.38422888288E+03  0.72992859922E+03  0.90534018464E+02 0.  0.
         23    2    4    4    0    0 -0.17153560004E+03 -0.54401798994E+02  0.24924355128E+03  0.32114624743E+03  0.92889970218E+02 0.  0.
          4    1    3    3  502    0 -0.14215428039E+03  0.16918287710E+03 -0.65784461058E+02  0.23056079600E+03  0.00000000000E+00 0. -1.
         -3    1    3    3    0  502 -0.19492530795E+03  0.22913476505E+03  0.52580800764E+01  0.30087582760E+03  0.00000000000E+00 0.  1.
         13    1    5    5    0    0  0.37092935496E+03 -0.28378023972E+03 -0.25714691638E+03  0.53314570937E+03  0.00000000000E+00 0. -1.
        -13    1    5    5    0    0  0.13768583343E+03 -0.60135603435E+02 -0.12708196650E+03  0.19678288985E+03  0.00000000000E+00 0.  1.
          1    1    6    6  503    0 -0.99488272388E+02 -0.11733051701E+02  0.20081636835E+03  0.22441656499E+03  0.00000000000E+00 0. -1.
         -1    1    6    6    0  503 -0.72047327657E+02 -0.42668747293E+02  0.48427182928E+02  0.96729682437E+02  0.00000000000E+00 0.  1.
<mgrwt>
<rscale>  0 0.15703878E+04</rscale>
<asrwt>0</asrwt>
<pdfrwt beam="1">  1        2 0.13677101E+00 0.15703878E+04</pdfrwt>
<pdfrwt beam="2">  1       -1 0.10669229E+00 0.15703878E+04</pdfrwt>
<totfact> 0.26842959E+01</totfact>
</mgrwt>
</event>
<event>
12    7  0.2492439E-007  0.1349506E+04  0.7818608E-02  0.8991202E-01
         -1   -1    0    0    0  501 -0.00000000000E+00  0.00000000000E+00  0.11455949219E+04  0.11455949219E+04  0.00000000000E+00 0.  1.
          2   -1    0    0  501    0  0.00000000000E+00 -0.00000000000E+00 -0.39742805315E+03  0.39742805315E+03  0.00000000000E+00 0. -1.
         24    2    1    2    0    0  0.28926409423E+03  0.90997787761E+02  0.45046573730E+03  0.54877661680E+03  0.79259580307E+02 0.  0.
        254    2    1    2    0    0 -0.28926409423E+03 -0.90997787761E+02  0.29770113148E+03  0.99424635829E+03  0.89885791074E+03 0.  0.
         23    2    4    4    0    0 -0.11079709501E+03 -0.47621677359E+03  0.66441201730E+02  0.50208694697E+03  0.92835646817E+02 0.  0.
         23    2    4    4    0    0 -0.17846699922E+03  0.38521898583E+03  0.23125992975E+03  0.49215941132E+03  0.92171547568E+02 0.  0.
          2    1    3    3  502    0  0.12361769052E+03 -0.16021975607E+01  0.17421172311E+03  0.21362028207E+03  0.00000000000E+00 0. -1.
         -1    1    3    3    0  502  0.16564640371E+03  0.92599985321E+02  0.27625401420E+03  0.33515633472E+03  0.00000000000E+00 0.  1.
         13    1    5    5    0    0 -0.61685309744E+02 -0.21402456875E+03  0.75489588832E+02  0.23518135872E+03  0.00000000000E+00 0. -1.
        -13    1    5    5    0    0 -0.49111785264E+02 -0.26219220484E+03 -0.90483871025E+01  0.26690558825E+03  0.00000000000E+00 0.  1.
          2    1    6    6  503    0 -0.13095097183E+03  0.22201789211E+03  0.18081027913E+03  0.31485307443E+03  0.00000000000E+00 0.  1.
         -2    1    6    6    0  503 -0.47516027390E+02  0.16320109373E+03  0.50449650625E+02  0.17730633689E+03  0.00000000000E+00 0. -1.
<mgrwt>
<rscale>  0 0.13495059E+04</rscale>
<asrwt>0</asrwt>
<pdfrwt beam="1">  1        2 0.61142778E-01 0.13495059E+04</pdfrwt>
<pdfrwt beam="2">  1       -1 0.17624537E+00 0.13495059E+04</pdfrwt>
<totfact> 0.19832861E+01</totfact>
</mgrwt>
</event>
<event>
12    7  0.2492439E-007  0.1454712E+04  0.7818608E-02  0.8915140E-01
          2   -1    0    0  501    0  0.00000000000E+00  0.00000000000E+00  0.45919545906E+03  0.45919545906E+03  0.00000000000E+00 0. -1.
         -1   -1    0    0    0  501 -0.00000000000E+00 -0.00000000000E+00 -0.11521163554E+04  0.11521163554E+04  0.00000000000E+00 0.  1.
         24    2    1    2    0    0  0.31140485412E+03 -0.76936665477E+02  0.12625737709E+03  0.35476892924E+03  0.83832178935E+02 0.  0.
        254    2    1    2    0    0 -0.31140485412E+03  0.76936665477E+02 -0.81917827339E+03  0.12565428852E+04  0.89719270230E+03 0.  0.
         23    2    4    4    0    0 -0.48017123909E+03 -0.11214259894E+02 -0.89384771385E+02  0.49693793604E+03  0.90925774358E+02 0.  0.
         23    2    4    4    0    0  0.16876638498E+03  0.88150925371E+02 -0.72979350201E+03  0.75960494915E+03  0.90268736922E+02 0.  0.
          2    1    3    3  502    0  0.26298605934E+03 -0.31540543133E+02  0.10693029800E+03  0.28564061668E+03  0.00000000000E+00 0. -1.
         -1    1    3    3    0  502  0.48418794780E+02 -0.45396122344E+02  0.19327079087E+02  0.69128312564E+02  0.00000000000E+00 0.  1.
         13    1    5    5    0    0 -0.11409181252E+03  0.24939369734E+02 -0.49777063721E+02  0.12695144710E+03  0.00000000000E+00 0.  1.
        -13    1    5    5    0    0 -0.36607942657E+03 -0.36153629628E+02 -0.39607707665E+02  0.36998648894E+03  0.00000000000E+00 0. -1.
          3    1    6    6  503    0  0.56925552839E+02  0.38065460984E+02 -0.43497487037E+03  0.44033241505E+03  0.00000000000E+00 0. -1.
         -3    1    6    6    0  503  0.11184083214E+03  0.50085464387E+02 -0.29481863164E+03  0.31927253411E+03  0.00000000000E+00 0.  1.
<mgrwt>
<rscale>  0 0.14547118E+04</rscale>
<asrwt>0</asrwt>
<pdfrwt beam="1">  1        2 0.70645456E-01 0.14547118E+04</pdfrwt>
<pdfrwt beam="2">  1       -1 0.17724867E+00 0.14547118E+04</pdfrwt>
<totfact> 0.16410100E+01</totfact>
</mgrwt>
</event>
<event>
12    7  0.2492439E-007  0.1952278E+04  0.7818608E-02  0.8629263E-01
         -1   -1    0    0    0  501 -0.00000000000E+00  0.00000000000E+00  0.48913413117E+03  0.48913413117E+03  0.00000000000E+00 0.  1.
          2   -1    0    0  501    0  0.00000000000E+00 -0.00000000000E+00 -0.19480284169E+04  0.19480284169E+04  0.00000000000E+00 0. -1.
         24    2    1    2    0    0  0.20731493877E+03 -0.44729644141E+03 -0.13066077890E+04  0.13988671318E+04  0.80942866572E+02 0.  0.
        254    2    1    2    0    0 -0.20731493877E+03  0.44729644141E+03 -0.15228649671E+03  0.10382954163E+04  0.90100643955E+03 0.  0.
         23    2    4    4    0    0  0.21174456981E+02  0.24972272403E+03 -0.50159393976E+03  0.56805712453E+03  0.91008899532E+02 0.  0.
         23    2    4    4    0    0 -0.22848939575E+03  0.19757371738E+03  0.34930744305E+03  0.47023829178E+03  0.88688125005E+02 0.  0.
          2    1    3    3  502    0  0.12362891087E+03 -0.31737393512E+03 -0.98097730901E+03  0.10384251553E+04  0.00000000000E+00 0. -1.
         -1    1    3    3    0  502  0.83686027896E+02 -0.12992250629E+03 -0.32563048002E+03  0.36044197650E+03  0.00000000000E+00 0.  1.
         13    1    5    5    0    0  0.78372839392E+01  0.75582610873E+00  0.46350623419E-01  0.78737818759E+01  0.00000000000E+00 0. -1.
        -13    1    5    5    0    0  0.13337173042E+02  0.24896689792E+03 -0.50164029038E+03  0.56018334265E+03  0.00000000000E+00 0.  1.
          1    1    6    6  503    0 -0.13004392312E+03  0.84748360340E+02  0.11923692997E+03  0.19573234783E+03  0.00000000000E+00 0. -1.
         -1    1    6    6    0  503 -0.98445472636E+02  0.11282535704E+03  0.23007051308E+03  0.27450594395E+03  0.00000000000E+00 0.  1.
<mgrwt>
<rscale>  0 0.19522778E+04</rscale>
<asrwt>0</asrwt>
<pdfrwt beam="1">  1        2 0.29969668E+00 0.19522778E+04</pdfrwt>
<pdfrwt beam="2">  1       -1 0.75251405E-01 0.19522778E+04</pdfrwt>
<totfact> 0.13463247E+01</totfact>
</mgrwt>
</event>
<event>
12    7  0.2492439E-007  0.4291210E+04  0.7818608E-02  0.7948246E-01
         -1   -1    0    0    0  501 -0.00000000000E+00  0.00000000000E+00  0.20041882158E+04  0.20041882158E+04  0.00000000000E+00 0.  1.
          2   -1    0    0  501    0  0.00000000000E+00 -0.00000000000E+00 -0.22969999530E+04  0.22969999530E+04  0.00000000000E+00 0. -1.
         24    2    1    2    0    0 -0.10957512395E+04  0.13044095402E+04 -0.12851001080E+04  0.21353591998E+04  0.78240635903E+02 0.  0.
        254    2    1    2    0    0  0.10957512395E+04 -0.13044095402E+04  0.99228837077E+03  0.21658289689E+04  0.89667378918E+03 0.  0.
         23    2    4    4    0    0  0.63150509072E+03 -0.95599524319E+03  0.17989296963E+03  0.11633916627E+04  0.91613840460E+02 0.  0.
         23    2    4    4    0    0  0.46424614881E+03 -0.34841429704E+03  0.81239540114E+03  0.10024373062E+04  0.89315485565E+02 0.  0.
          2    1    3    3  502    0 -0.55310896752E+03  0.63432766762E+03 -0.67974795520E+03  0.10818310415E+04  0.00000000000E+00 0. -1.
         -1    1    3    3    0  502 -0.54264227201E+03  0.67008187261E+03 -0.60535215277E+03  0.10535281583E+04  0.00000000000E+00 0.  1.
         13    1    5    5    0    0  0.91249058403E+02 -0.10444972217E+03  0.45731444816E+02  0.14603937882E+03  0.00000000000E+00 0. -1.
        -13    1    5    5    0    0  0.54025603232E+03 -0.85154552102E+03  0.13416152481E+03  0.10173522839E+04  0.00000000000E+00 0.  1.
          3    1    6    6  503    0  0.79399984725E+02 -0.68383979118E+02  0.21016426131E+03  0.23483982394E+03  0.00000000000E+00 0. -1.
         -3    1    6    6    0  503  0.38484616409E+03 -0.28003031792E+03  0.60223113983E+03  0.76759748225E+03  0.00000000000E+00 0.  1.
<mgrwt>
<rscale>  0 0.42912097E+04</rscale>
<asrwt>0</asrwt>
<pdfrwt beam="1">  1        2 0.35338461E+00 0.42912097E+04</pdfrwt>
<pdfrwt beam="2">  1       -1 0.30833665E+00 0.42912097E+04</pdfrwt>
<totfact> 0.11629120E-01</totfact>
</mgrwt>
</event>
<event>
12    7  0.2492439E-007  0.1845072E+04  0.7818608E-02  0.8682691E-01
         -1   -1    0    0    0  501 -0.00000000000E+00  0.00000000000E+00  0.65761890518E+03  0.65761890518E+03  0.00000000000E+00 0.  1.
          2   -1    0    0  501    0  0.00000000000E+00 -0.00000000000E+00 -0.12941727136E+04  0.12941727136E+04  0.00000000000E+00 0. -1.
         24    2    1    2    0    0  0.25667480394E+03 -0.64831466434E+03 -0.19472618528E+03  0.72815011426E+03  0.78041288349E+02 0.  0.
        254    2    1    2    0    0 -0.25667480394E+03  0.64831466434E+03 -0.44182762309E+03  0.12236415045E+04  0.90326796908E+03 0.  0.
         23    2    4    4    0    0  0.63313781084E+02  0.28642250140E+03  0.23500267452E+03  0.38719273764E+03  0.92981045735E+02 0.  0.
         23    2    4    4    0    0 -0.31998858502E+03  0.36189216295E+03 -0.67683029761E+03  0.83644876684E+03  0.90491190905E+02 0.  0.
          4    1    3    3  502    0  0.26803349345E+02 -0.11664918814E+03 -0.96859955964E+01  0.12008026957E+03  0.00000000000E+00 0. -1.
         -3    1    3    3    0  502  0.22987145459E+03 -0.53166547620E+03 -0.18504018968E+03  0.60806984469E+03  0.00000000000E+00 0.  1.
         13    1    5    5    0    0  0.29987365920E+01  0.15813374620E+01 -0.75275105329E+01  0.82556928322E+01  0.00000000000E+00 0. -1.
        -13    1    5    5    0    0  0.60315044492E+02  0.28484116394E+03  0.24253018505E+03  0.37893704481E+03  0.00000000000E+00 0.  1.
          2    1    6    6  503    0 -0.91061070102E+01 -0.22511645002E+01 -0.31676797854E+02  0.33036471494E+02  0.00000000000E+00 0. -1.
         -2    1    6    6    0  503 -0.31088247801E+03  0.36414332745E+03 -0.64515349976E+03  0.80341229534E+03  0.00000000000E+00 0.  1.
<mgrwt>
<rscale>  0 0.18450718E+04</rscale>
<asrwt>0</asrwt>
<pdfrwt beam="1">  1        2 0.19910349E+00 0.18450718E+04</pdfrwt>
<pdfrwt beam="2">  1       -1 0.10117214E+00 0.18450718E+04</pdfrwt>
<totfact> 0.16580275E+01</totfact>
</mgrwt>
</event>
<event>
12    7  0.2492439E-007  0.1222900E+04  0.7818608E-02  0.9093045E-01
          2   -1    0    0  501    0  0.00000000000E+00  0.00000000000E+00  0.34584274387E+04  0.34584274387E+04  0.00000000000E+00 0. -1.
         -1   -1    0    0    0  501 -0.00000000000E+00 -0.00000000000E+00 -0.10810436817E+03  0.10810436817E+03  0.00000000000E+00 0.  1.
         24    2    1    2    0    0  0.16995982410E+03 -0.70300428458E+02  0.19561730847E+03  0.27999463615E+03  0.79387485465E+02 0.  0.
        254    2    1    2    0    0 -0.16995982410E+03  0.70300428458E+02  0.31547057621E+04  0.32865371707E+04  0.90295605507E+03 0.  0.
         23    2    4    4    0    0 -0.32853420838E+03 -0.64954971945E+02  0.43714285055E+03  0.55948977537E+03  0.98899254303E+02 0.  0.
         23    2    4    4    0    0  0.15857438428E+03  0.13525540040E+03  0.27175629115E+04  0.27270473954E+04  0.90550868913E+02 0.  0.
          4    1    3    3  502    0  0.10154331238E+03 -0.49175190399E+02  0.16982612434E+03  0.20388760666E+03  0.00000000000E+00 0. -1.
         -3    1    3    3    0  502  0.68416511719E+02 -0.21125238059E+02  0.25791184130E+02  0.76107029489E+02  0.00000000000E+00 0.  1.
         13    1    5    5    0    0 -0.13554470544E+03 -0.55810672396E+02  0.12627894569E+03  0.19347757093E+03  0.00000000000E+00 0. -1.
        -13    1    5    5    0    0 -0.19298950293E+03 -0.91442995483E+01  0.31086390486E+03  0.36601220444E+03  0.00000000000E+00 0.  1.
          4    1    6    6  503    0  0.43788558338E+02  0.96395132043E+02  0.12127634581E+04  0.12173761394E+04  0.00000000000E+00 0. -1.
         -4    1    6    6    0  503  0.11478582594E+03  0.38860268360E+02  0.15047994534E+04  0.15096712560E+04  0.00000000000E+00 0.  1.
<mgrwt>
<rscale>  0 0.12229000E+04</rscale>
<asrwt>0</asrwt>
<pdfrwt beam="1">  1        2 0.53206568E+00 0.12229000E+04</pdfrwt>
<pdfrwt beam="2">  1       -1 0.16631444E-01 0.12229000E+04</pdfrwt>
<totfact> 0.27741096E+01</totfact>
</mgrwt>
</event>
<event>
12    7  0.2492439E-007  0.1154492E+04  0.7818608E-02  0.9153650E-01
         -1   -1    0    0    0  501 -0.00000000000E+00  0.00000000000E+00  0.34104659046E+03  0.34104659046E+03  0.00000000000E+00 0.  1.
          2   -1    0    0  501    0  0.00000000000E+00 -0.00000000000E+00 -0.97702972329E+03  0.97702972329E+03  0.00000000000E+00 0. -1.
         24    2    1    2    0    0  0.44078318305E+02  0.13096001945E+03  0.58516112011E+02  0.17517579794E+03  0.90382520307E+02 0.  0.
        254    2    1    2    0    0 -0.44078318305E+02 -0.13096001945E+03 -0.69449924484E+03  0.11429005158E+04  0.89710588178E+03 0.  0.
         23    2    4    4    0    0  0.78859875056E+02  0.14335159391E+03 -0.79190139643E+03  0.81366813875E+03  0.90440361405E+02 0.  0.
         23    2    4    4    0    0 -0.12293819336E+03 -0.27431161336E+03  0.97402151596E+02  0.32923237707E+03  0.92445218156E+02 0.  0.
          2    1    3    3  502    0  0.11818256393E+02 -0.12417933308E+02  0.12366150815E+02  0.21137595364E+02  0.00000000000E+00 0. -1.
         -1    1    3    3    0  502  0.32260061912E+02  0.14337795276E+03  0.46149961196E+02  0.15403820257E+03  0.00000000000E+00 0.  1.
         13    1    5    5    0    0  0.44215709905E+02  0.20488136526E+02 -0.36041584354E+03  0.36369543992E+03  0.00000000000E+00 0. -1.
        -13    1    5    5    0    0  0.34644165151E+02  0.12286345738E+03 -0.43148555289E+03  0.44997269883E+03  0.00000000000E+00 0.  1.
          2    1    6    6  503    0 -0.14811781357E+01 -0.99836655569E+02  0.13798252059E+02  0.10079654480E+03  0.00000000000E+00 0.  1.
         -2    1    6    6    0  503 -0.12145701523E+03 -0.17447495779E+03  0.83603899537E+02  0.22843583227E+03  0.00000000000E+00 0. -1.
<mgrwt>
<rscale>  0 0.11544915E+04</rscale>
<asrwt>0</asrwt>
<pdfrwt beam="1">  1        2 0.15031226E+00 0.11544915E+04</pdfrwt>
<pdfrwt beam="2">  1       -1 0.52468706E-01 0.11544915E+04</pdfrwt>
<totfact> 0.10766257E+02</totfact>
</mgrwt>
</event>
<event>
12    7  0.2492439E-007  0.1502202E+04  0.7818608E-02  0.8882990E-01
          2   -1    0    0  501    0  0.00000000000E+00  0.00000000000E+00  0.14208602550E+04  0.14208602550E+04  0.00000000000E+00 0. -1.
         -1   -1    0    0    0  501 -0.00000000000E+00 -0.00000000000E+00 -0.39705008334E+03  0.39705008334E+03  0.00000000000E+00 0.  1.
         24    2    1    2    0    0  0.43992661325E+03 -0.16094541001E+03  0.22509004395E+03  0.52562394166E+03  0.78588485901E+02 0.  0.
        254    2    1    2    0    0 -0.43992661325E+03  0.16094541001E+03  0.79872012769E+03  0.12922863967E+04  0.90144963175E+03 0.  0.
         23    2    4    4    0    0 -0.49934510495E+03  0.25437420485E+03  0.93523658236E+03  0.10941691385E+04  0.92124203235E+02 0.  0.
         23    2    4    4    0    0  0.59418491703E+02 -0.93428794842E+02 -0.13651645466E+03  0.19811725813E+03  0.91401360567E+02 0.  0.
          4    1    3    3  502    0  0.24813551129E+03 -0.74794825239E+02  0.16393179955E+03  0.30665800618E+03  0.00000000000E+00 0. -1.
         -3    1    3    3    0  502  0.19179110196E+03 -0.86150584766E+02  0.61158244392E+02  0.21896593548E+03  0.00000000000E+00 0.  1.
         13    1    5    5    0    0 -0.24801538672E+03  0.83860579996E+02  0.38313108234E+03  0.46404057493E+03  0.00000000000E+00 0. -1.
        -13    1    5    5    0    0 -0.25132971823E+03  0.17051362485E+03  0.55210550002E+03  0.63012856361E+03  0.00000000000E+00 0.  1.
          4    1    6    6  503    0  0.18831424950E+01 -0.80458156112E+02 -0.10146854833E+03  0.12951033708E+03  0.00000000000E+00 0.  1.
         -4    1    6    6    0  503  0.57535349208E+02 -0.12970638729E+02 -0.35047906333E+02  0.68606921049E+02  0.00000000000E+00 0. -1.
<mgrwt>
<rscale>  0 0.15022020E+04</rscale>
<asrwt>0</asrwt>
<pdfrwt beam="1">  1        2 0.21859388E+00 0.15022020E+04</pdfrwt>
<pdfrwt beam="2">  1       -1 0.61084629E-01 0.15022020E+04</pdfrwt>
<totfact> 0.42126988E+01</totfact>
</mgrwt>
</event>
<event>
12    7  0.2492439E-007  0.1945391E+04  0.7818608E-02  0.8632587E-01
         -1   -1    0    0    0  501 -0.00000000000E+00  0.00000000000E+00  0.80507261685E+03  0.80507261685E+03  0.00000000000E+00 0.  1.
          2   -1    0    0  501    0  0.00000000000E+00 -0.00000000000E+00 -0.11752184475E+04  0.11752184475E+04  0.00000000000E+00 0. -1.
         24    2    1    2    0    0 -0.59748714964E+03 -0.39034394082E+03  0.11817681739E+03  0.72770560520E+03  0.78932892643E+02 0.  0.
        254    2    1    2    0    0  0.59748714964E+03  0.39034394082E+03 -0.48832264809E+03  0.12525854592E+04  0.90617439702E+03 0.  0.
         23    2    4    4    0    0  0.18149857518E+03 -0.16237318763E+03 -0.48801738121E+03  0.55348994832E+03  0.94251650757E+02 0.  0.
         23    2    4    4    0    0  0.41598857446E+03  0.55271712845E+03 -0.30526687566E+00  0.69909551087E+03  0.10095405871E+03 0.  0.
          4    1    3    3  502    0 -0.20989381133E+03 -0.11236224557E+03  0.81969455774E+01  0.23821812731E+03  0.00000000000E+00 0. -1.
         -3    1    3    3    0  502 -0.38759333831E+03 -0.27798169525E+03  0.10997987182E+03  0.48948747788E+03  0.00000000000E+00 0.  1.
         13    1    5    5    0    0  0.39135500970E+02 -0.96026163382E+02 -0.20869281852E+03  0.23303498448E+03  0.00000000000E+00 0. -1.
        -13    1    5    5    0    0  0.14236307421E+03 -0.66347024248E+02 -0.27932456269E+03  0.32045496384E+03  0.00000000000E+00 0.  1.
          3    1    6    6  503    0  0.67103057110E+01  0.51534349259E+02 -0.24506140808E+01  0.52027135859E+02  0.00000000000E+00 0. -1.
         -3    1    6    6    0  503  0.40927826875E+03  0.50118277919E+03  0.21453472051E+01  0.64706837502E+03  0.00000000000E+00 0.  1.
<mgrwt>
<rscale>  0 0.19453906E+04</rscale>
<asrwt>0</asrwt>
<pdfrwt beam="1">  1        2 0.18080284E+00 0.19453906E+04</pdfrwt>
<pdfrwt beam="2">  1       -1 0.12385733E+00 0.19453906E+04</pdfrwt>
<totfact> 0.11942926E+01</totfact>
</mgrwt>
</event>
<event>
12    7  0.2492439E-007  0.2303178E+04  0.7818608E-02  0.8476669E-01
         -1   -1    0    0    0  501 -0.00000000000E+00  0.00000000000E+00  0.88078014509E+03  0.88078014509E+03  0.00000000000E+00 0.  1.
          2   -1    0    0  501    0  0.00000000000E+00 -0.00000000000E+00 -0.15056618529E+04  0.15056618529E+04  0.00000000000E+00 0. -1.
         24    2    1    2    0    0  0.35779400191E+03 -0.35561751821E+03  0.59859174284E+03  0.78681721561E+03  0.79302516455E+02 0.  0.
        254    2    1    2    0    0 -0.35779400191E+03  0.35561751821E+03 -0.12234734506E+04  0.15996247824E+04  0.89857208551E+03 0.  0.
         23    2    4    4    0    0 -0.33361143423E+03  0.59650467725E+03 -0.56251986718E+03  0.88996674717E+03  0.92183464237E+02 0.  0.
         23    2    4    4    0    0 -0.24182567681E+02 -0.24088715903E+03 -0.66095358345E+03  0.70965803518E+03  0.90241162736E+02 0.  0.
          2    1    3    3  502    0  0.17541998796E+03 -0.16776342531E+03  0.22761434885E+03  0.33275370900E+03  0.00000000000E+00 0. -1.
         -1    1    3    3    0  502  0.18237401395E+03 -0.18785409290E+03  0.37097739399E+03  0.45406350661E+03  0.00000000000E+00 0.  1.
         13    1    5    5    0    0 -0.24622395598E+03  0.39056857680E+03 -0.42392729716E+03  0.62680491619E+03  0.00000000000E+00 0.  1.
        -13    1    5    5    0    0 -0.87387478248E+02  0.20593610045E+03 -0.13859257001E+03  0.26316183098E+03  0.00000000000E+00 0. -1.
          4    1    6    6  503    0  0.33733419312E+02 -0.11405279827E+03 -0.30525431479E+03  0.32760674760E+03  0.00000000000E+00 0.  1.
         -4    1    6    6    0  503 -0.57915986993E+02 -0.12683436076E+03 -0.35569926866E+03  0.38205128758E+03  0.00000000000E+00 0. -1.
<mgrwt>
<rscale>  0 0.23031779E+04</rscale>
<asrwt>0</asrwt>
<pdfrwt beam="1">  1        2 0.23164028E+00 0.23031779E+04</pdfrwt>
<pdfrwt beam="2">  1       -1 0.13550464E+00 0.23031779E+04</pdfrwt>
<totfact> 0.59359848E+00</totfact>
</mgrwt>
</event>
<event>
12    7  0.2492439E-007  0.1339945E+04  0.7818608E-02  0.8998475E-01
          2   -1    0    0  501    0  0.00000000000E+00  0.00000000000E+00  0.34742670847E+04  0.34742670847E+04  0.00000000000E+00 0. -1.
         -1   -1    0    0    0  501 -0.00000000000E+00 -0.00000000000E+00 -0.12919652010E+03  0.12919652010E+03  0.00000000000E+00 0.  1.
         24    2    1    2    0    0  0.65760271018E+02 -0.35386121482E+03  0.81764490233E+03  0.89683252324E+03  0.78887361701E+02 0.  0.
        254    2    1    2    0    0 -0.65760271018E+02  0.35386121482E+03  0.25274256623E+04  0.27066310816E+04  0.89912688801E+03 0.  0.
         23    2    4    4    0    0  0.36378048823E+03 -0.28892157049E+02  0.81262449572E+03  0.89548100340E+03  0.91414747421E+02 0.  0.
         23    2    4    4    0    0 -0.42954075925E+03  0.38275337187E+03  0.17148011665E+04  0.18111500782E+04  0.93360362427E+02 0.  0.
          4    1    3    3  502    0  0.21862957386E+02 -0.28989541712E+03  0.65615540442E+03  0.71767489612E+03  0.00000000000E+00 0. -1.
         -3    1    3    3    0  502  0.43897313633E+02 -0.63965797697E+02  0.16148949791E+03  0.17915762712E+03  0.00000000000E+00 0.  1.
         13    1    5    5    0    0  0.87594867555E+02 -0.45594319729E+02  0.23959391626E+03  0.25914657536E+03  0.00000000000E+00 0. -1.
        -13    1    5    5    0    0  0.27618562068E+03  0.16702162679E+02  0.57303057946E+03  0.63633442804E+03  0.00000000000E+00 0.  1.
          4    1    6    6  503    0 -0.19212343492E+03  0.15821410975E+03  0.60366832507E+03  0.65296138129E+03  0.00000000000E+00 0. -1.
         -4    1    6    6    0  503 -0.23741732433E+03  0.22453926212E+03  0.11111328415E+04  0.11581886969E+04  0.00000000000E+00 0.  1.
<mgrwt>
<rscale>  0 0.13399451E+04</rscale>
<asrwt>0</asrwt>
<pdfrwt beam="1">  1        2 0.53450256E+00 0.13399451E+04</pdfrwt>
<pdfrwt beam="2">  1       -1 0.19876390E-01 0.13399451E+04</pdfrwt>
<totfact> 0.19865477E+01</totfact>
</mgrwt>
</event>
<event>
12    7  0.2492439E-007  0.1380663E+04  0.7818608E-02  0.8967936E-01
         -1   -1    0    0    0  501 -0.00000000000E+00  0.00000000000E+00  0.39873241856E+03  0.39873241856E+03  0.00000000000E+00 0.  1.
          2   -1    0    0  501    0  0.00000000000E+00 -0.00000000000E+00 -0.11951810263E+04  0.11951810263E+04  0.00000000000E+00 0. -1.
         24    2    1    2    0    0 -0.35500107627E+03 -0.16296715718E+03 -0.24501422706E+03  0.46808190747E+03  0.80527275904E+02 0.  0.
        254    2    1    2    0    0  0.35500107627E+03  0.16296715718E+03 -0.55143438063E+03  0.11258315374E+04  0.90046250110E+03 0.  0.
         23    2    4    4    0    0 -0.10763181854E+03 -0.29087190740E+03 -0.20872426871E+03  0.38713260905E+03  0.10057217190E+03 0.  0.
         23    2    4    4    0    0  0.46263289481E+03  0.45383906459E+03 -0.34271011193E+03  0.73869892831E+03  0.90701675635E+02 0.  0.
          4    1    3    3  502    0 -0.19403963146E+03 -0.44843389073E+02 -0.11968285573E+03  0.23234950845E+03  0.00000000000E+00 0. -1.
         -3    1    3    3    0  502 -0.16096144480E+03 -0.11812376811E+03 -0.12533137133E+03  0.23573239902E+03  0.00000000000E+00 0.  1.
         13    1    5    5    0    0 -0.10327983129E+03 -0.15193942449E+03 -0.91207910754E+02  0.20511264040E+03  0.00000000000E+00 0. -1.
        -13    1    5    5    0    0 -0.43519872510E+01 -0.13893248291E+03 -0.11751635795E+03  0.18201996865E+03  0.00000000000E+00 0.  1.
          4    1    6    6  503    0  0.18715585988E+03  0.15947369813E+03 -0.17623559343E+03  0.30251968642E+03  0.00000000000E+00 0. -1.
         -4    1    6    6    0  503  0.27547703493E+03  0.29436536645E+03 -0.16647451850E+03  0.43617924189E+03  0.00000000000E+00 0.  1.
<mgrwt>
<rscale>  0 0.13806628E+04</rscale>
<asrwt>0</asrwt>
<pdfrwt beam="1">  1        2 0.18387400E+00 0.13806628E+04</pdfrwt>
<pdfrwt beam="2">  1       -1 0.61343449E-01 0.13806628E+04</pdfrwt>
<totfact> 0.57110555E+01</totfact>
</mgrwt>
</event>
<event>
12    7  0.2492439E-007  0.2670440E+04  0.7818608E-02  0.8344660E-01
          2   -1    0    0  501    0  0.00000000000E+00  0.00000000000E+00  0.25384000723E+04  0.25384000723E+04  0.00000000000E+00 0. -1.
         -1   -1    0    0    0  501 -0.00000000000E+00 -0.00000000000E+00 -0.70233689402E+03  0.70233689402E+03  0.00000000000E+00 0.  1.
         24    2    1    2    0    0  0.31553210319E+03  0.72802793819E+03 -0.24869663752E+03  0.83538917491E+03  0.80248795078E+02 0.  0.
        254    2    1    2    0    0 -0.31553210319E+03 -0.72802793819E+03  0.20847598158E+04  0.24053477914E+04  0.89993850967E+03 0.  0.
         23    2    4    4    0    0 -0.48795884091E+03 -0.37383499386E+03  0.18160558276E+04  0.19194511834E+04  0.91529468365E+02 0.  0.
         23    2    4    4    0    0  0.17242673771E+03 -0.35419294433E+03  0.26870398814E+03  0.48589660793E+03  0.93327695063E+02 0.  0.
          4    1    3    3  502    0  0.21093280600E+02  0.81967653934E+02 -0.51779204642E+01  0.84796424678E+02  0.00000000000E+00 0. -1.
         -3    1    3    3    0  502  0.29443882259E+03  0.64606028425E+03 -0.24351871705E+03  0.75059275023E+03  0.00000000000E+00 0.  1.
         13    1    5    5    0    0 -0.38897025463E+03 -0.26204623939E+03  0.14555744968E+04  0.15292688469E+04  0.00000000000E+00 0.  1.
        -13    1    5    5    0    0 -0.98988586277E+02 -0.11178875447E+03  0.36048133085E+03  0.39018233652E+03  0.00000000000E+00 0. -1.
          1    1    6    6  503    0 -0.87009915364E+01 -0.43183747348E+02  0.19754086483E+02  0.48278020066E+02  0.00000000000E+00 0. -1.
         -1    1    6    6    0  503  0.18112772925E+03 -0.31100919698E+03  0.24894990166E+03  0.43761858786E+03  0.00000000000E+00 0.  1.
<mgrwt>
<rscale>  0 0.26704397E+04</rscale>
<asrwt>0</asrwt>
<pdfrwt beam="1">  1        2 0.39052308E+00 0.26704397E+04</pdfrwt>
<pdfrwt beam="2">  1       -1 0.10805183E+00 0.26704397E+04</pdfrwt>
<totfact> 0.26314545E+00</totfact>
</mgrwt>
</event>
<event>
12    7  0.2492439E-007  0.2352835E+04  0.7818608E-02  0.8457375E-01
         -1   -1    0    0    0  501 -0.00000000000E+00  0.00000000000E+00  0.77065619640E+03  0.77065619640E+03  0.00000000000E+00 0.  1.
          2   -1    0    0  501    0  0.00000000000E+00 -0.00000000000E+00 -0.17958184772E+04  0.17958184772E+04  0.00000000000E+00 0. -1.
         24    2    1    2    0    0  0.44965771584E+02 -0.68686119493E+03 -0.12335024558E+04  0.14147509121E+04  0.78686803903E+02 0.  0.
        254    2    1    2    0    0 -0.44965771584E+02  0.68686119493E+03  0.20834017499E+03  0.11517237615E+04  0.89958978018E+03 0.  0.
         23    2    4    4    0    0 -0.16037146347E+03  0.46249425173E+03 -0.29693983260E+03  0.57976294438E+03  0.91279068266E+02 0.  0.
         23    2    4    4    0    0  0.11540569189E+03  0.22436694319E+03  0.50528000759E+03  0.57196081714E+03  0.90400726498E+02 0.  0.
          4    1    3    3  502    0  0.22414339838E+02 -0.62795509086E+03 -0.11448034613E+04  0.13059115452E+04  0.00000000000E+00 0. -1.
         -3    1    3    3    0  502  0.22551431746E+02 -0.58906104062E+02 -0.88698994419E+02  0.10883936687E+03  0.00000000000E+00 0.  1.
         13    1    5    5    0    0 -0.82486639634E+02  0.27733396416E+03 -0.22451627636E+03  0.36623180056E+03  0.00000000000E+00 0. -1.
        -13    1    5    5    0    0 -0.77884823839E+02  0.18516028758E+03 -0.72423556243E+02  0.21353114381E+03  0.00000000000E+00 0.  1.
          1    1    6    6  503    0  0.10375522141E+03  0.16867127956E+03  0.45421316536E+03  0.49550453692E+03  0.00000000000E+00 0. -1.
         -1    1    6    6    0  503  0.11650470475E+02  0.55695663631E+02  0.51066842231E+02  0.76456280220E+02  0.00000000000E+00 0.  1.
<mgrwt>
<rscale>  0 0.23528354E+04</rscale>
<asrwt>0</asrwt>
<pdfrwt beam="1">  1        2 0.27627977E+00 0.23528354E+04</pdfrwt>
<pdfrwt beam="2">  1       -1 0.11856249E+00 0.23528354E+04</pdfrwt>
<totfact> 0.56843521E+00</totfact>
</mgrwt>
</event>
<event>
12    7  0.2492439E-007  0.1714808E+04  0.7818608E-02  0.8752964E-01
          2   -1    0    0  501    0  0.00000000000E+00  0.00000000000E+00  0.93021099270E+03  0.93021099270E+03  0.00000000000E+00 0. -1.
         -1   -1    0    0    0  501 -0.00000000000E+00 -0.00000000000E+00 -0.79029535694E+03  0.79029535694E+03  0.00000000000E+00 0.  1.
         24    2    1    2    0    0  0.10147559046E+03 -0.61077331224E+03  0.34554641815E+02  0.62502210817E+03  0.78213029799E+02 0.  0.
        254    2    1    2    0    0 -0.10147559046E+03  0.61077331224E+03  0.10536099394E+03  0.10954842415E+04  0.89757643122E+03 0.  0.
         23    2    4    4    0    0 -0.16706201906E+03  0.72433240673E+03 -0.17900330997E+03  0.76943979887E+03  0.86187385643E+02 0.  0.
         23    2    4    4    0    0  0.65586428601E+02 -0.11355909450E+03  0.28436430391E+03  0.32604444261E+03  0.90800185334E+02 0.  0.
          2    1    3    3  502    0  0.43012712747E+02 -0.41428738782E+03 -0.34573367741E+01  0.41652861407E+03  0.00000000000E+00 0. -1.
         -1    1    3    3    0  502  0.58462877710E+02 -0.19648592442E+03  0.38011978589E+02  0.20849349410E+03  0.00000000000E+00 0.  1.
         13    1    5    5    0    0 -0.16138960726E+03  0.59339468198E+03 -0.12411802965E+03  0.62735089003E+03  0.00000000000E+00 0.  1.
        -13    1    5    5    0    0 -0.56724117941E+01  0.13093772475E+03 -0.54885280319E+02  0.14208890884E+03  0.00000000000E+00 0. -1.
          3    1    6    6  503    0 -0.18167629288E+02 -0.39590191447E+02  0.11662109677E+03  0.12449066722E+03  0.00000000000E+00 0. -1.
         -3    1    6    6    0  503  0.83754057889E+02 -0.73968903050E+02  0.16774320714E+03  0.20155377539E+03  0.00000000000E+00 0.  1.
<mgrwt>
<rscale>  0 0.17148078E+04</rscale>
<asrwt>0</asrwt>
<pdfrwt beam="1">  1        2 0.14310938E+00 0.17148078E+04</pdfrwt>
<pdfrwt beam="2">  1       -1 0.12158390E+00 0.17148078E+04</pdfrwt>
<totfact> 0.18195461E+01</totfact>
</mgrwt>
</event>
<event>
12    7  0.2492439E-007  0.2957657E+04  0.7818608E-02  0.8255926E-01
         -1   -1    0    0    0  501 -0.00000000000E+00  0.00000000000E+00  0.92372834295E+03  0.92372834295E+03  0.00000000000E+00 0.  1.
          2   -1    0    0  501    0  0.00000000000E+00 -0.00000000000E+00 -0.23675080128E+04  0.23675080128E+04  0.00000000000E+00 0. -1.
         24    2    1    2    0    0 -0.51837428713E+03 -0.12216357677E+04 -0.86117171643E+03  0.15843709622E+04  0.86653160389E+02 0.  0.
        254    2    1    2    0    0  0.51837428713E+03  0.12216357677E+04 -0.58260795341E+03  0.17068653935E+04  0.90158282695E+03 0.  0.
         23    2    4    4    0    0  0.24324738225E+03  0.12818305159E+04 -0.51215050534E+03  0.14044988884E+04  0.89778766648E+02 0.  0.
         23    2    4    4    0    0  0.27512690488E+03 -0.60194748217E+02 -0.70457448074E+02  0.30236650514E+03  0.84516447761E+02 0.  0.
          2    1    3    3  502    0 -0.31759310365E+03 -0.70947164389E+03 -0.55152207044E+03  0.95309600102E+03  0.00000000000E+00 0. -1.
         -1    1    3    3    0  502 -0.20078118348E+03 -0.51216412379E+03 -0.30964964598E+03  0.63127496117E+03  0.00000000000E+00 0.  1.
         13    1    5    5    0    0  0.22762390778E+03  0.12580999834E+04 -0.49324427398E+03  0.13703715282E+04  0.00000000000E+00 0. -1.
        -13    1    5    5    0    0  0.15623474473E+02  0.23730532533E+02 -0.18906231357E+02  0.34127360183E+02  0.00000000000E+00 0.  1.
          3    1    6    6  503    0  0.21024043907E+03 -0.48026435855E+02 -0.89751838766E+02  0.23358718570E+03  0.00000000000E+00 0. -1.
         -3    1    6    6    0  503  0.64886465803E+02 -0.12168312362E+02  0.19294390692E+02  0.68779319437E+02  0.00000000000E+00 0.  1.
<mgrwt>
<rscale>  0 0.29576574E+04</rscale>
<asrwt>0</asrwt>
<pdfrwt beam="1">  1        2 0.36423200E+00 0.29576574E+04</pdfrwt>
<pdfrwt beam="2">  1       -1 0.14211205E+00 0.29576574E+04</pdfrwt>
<totfact> 0.16327131E+00</totfact>
</mgrwt>
</event>
<event>
12    7  0.2492439E-007  0.2051920E+04  0.7818608E-02  0.8582724E-01
         -1   -1    0    0    0  501 -0.00000000000E+00  0.00000000000E+00  0.57693737999E+03  0.57693737999E+03  0.00000000000E+00 0.  1.
          2   -1    0    0  501    0  0.00000000000E+00 -0.00000000000E+00 -0.18244510361E+04  0.18244510361E+04  0.00000000000E+00 0. -1.
         24    2    1    2    0    0  0.19115866283E+03  0.11668693170E+03 -0.14360560027E+04  0.14559205182E+04  0.85382891640E+02 0.  0.
        254    2    1    2    0    0 -0.19115866283E+03 -0.11668693170E+03  0.18854234659E+03  0.94546789784E+03  0.89900158787E+03 0.  0.
         23    2    4    4    0    0 -0.42617070965E+03 -0.10389853109E+03  0.41008489170E+03  0.60900734673E+03  0.10150838114E+03 0.  0.
         23    2    4    4    0    0  0.23501204681E+03 -0.12788400603E+02 -0.22154254511E+03  0.33646055111E+03  0.93436597892E+02 0.  0.
          2    1    3    3  502    0  0.20015909607E+03  0.11027900819E+03 -0.13601607426E+04  0.13792252785E+04  0.00000000000E+00 0. -1.
         -1    1    3    3    0  502 -0.90004332366E+01  0.64079235023E+01 -0.75895260108E+02  0.76695239676E+02  0.00000000000E+00 0.  1.
         13    1    5    5    0    0 -0.33872035822E+02 -0.35075847580E+02  0.69817639998E+02  0.85159454843E+02  0.00000000000E+00 0. -1.
        -13    1    5    5    0    0 -0.39229867382E+03 -0.68822683513E+02  0.34026725170E+03  0.52384789188E+03  0.00000000000E+00 0.  1.
          4    1    6    6  503    0  0.11481466736E+03 -0.12055686968E+02 -0.17041889994E+03  0.20584059096E+03  0.00000000000E+00 0. -1.
         -4    1    6    6    0  503  0.12019737945E+03 -0.73271363524E+00 -0.51123645174E+02  0.13061996016E+03  0.00000000000E+00 0.  1.
<mgrwt>
<rscale>  0 0.20519201E+04</rscale>
<asrwt>0</asrwt>
<pdfrwt beam="1">  1        2 0.28068477E+00 0.20519201E+04</pdfrwt>
<pdfrwt beam="2">  1       -1 0.88759597E-01 0.20519201E+04</pdfrwt>
<totfact> 0.10972805E+01</totfact>
</mgrwt>
</event>
<event>
12    7  0.2492439E-007  0.1772100E+04  0.7818608E-02  0.8721279E-01
          2   -1    0    0  501    0  0.00000000000E+00  0.00000000000E+00  0.48638513904E+04  0.48638513904E+04  0.00000000000E+00 0. -1.
         -1   -1    0    0    0  501 -0.00000000000E+00 -0.00000000000E+00 -0.16141214934E+03  0.16141214934E+03  0.00000000000E+00 0.  1.
         24    2    1    2    0    0  0.29621439482E+03  0.51362753112E+03  0.97423118628E+03  0.11434421041E+04  0.82323949809E+02 0.  0.
        254    2    1    2    0    0 -0.29621439482E+03 -0.51362753112E+03  0.37282080548E+04  0.38818214356E+04  0.90412728634E+03 0.  0.
         23    2    4    4    0    0 -0.49184419626E+02 -0.60864937126E+03  0.13184963832E+04  0.14559221972E+04  0.91670974849E+02 0.  0.
         23    2    4    4    0    0 -0.24702997519E+03  0.95021840137E+02  0.24097116716E+04  0.24258992384E+04  0.90685257233E+02 0.  0.
          4    1    3    3  502    0  0.10489269352E+03  0.18901574327E+03  0.43307250402E+03  0.48402605518E+03  0.00000000000E+00 0. -1.
         -3    1    3    3    0  502  0.19132170130E+03  0.32461178786E+03  0.54115868226E+03  0.65941604893E+03  0.00000000000E+00 0.  1.
         13    1    5    5    0    0 -0.67165066076E+02 -0.26768820955E+03  0.57967886192E+03  0.64202469313E+03  0.00000000000E+00 0. -1.
        -13    1    5    5    0    0  0.17980646450E+02 -0.34096116172E+03  0.73881752126E+03  0.81389750409E+03  0.00000000000E+00 0.  1.
          4    1    6    6  503    0 -0.56742122719E+01 -0.13762773378E+02  0.14760310104E+03  0.14835189939E+03  0.00000000000E+00 0. -1.
         -4    1    6    6    0  503 -0.24135576292E+03  0.10878461351E+03  0.22621085706E+04  0.22775473390E+04  0.00000000000E+00 0.  1.
<mgrwt>
<rscale>  0 0.17721001E+04</rscale>
<asrwt>0</asrwt>
<pdfrwt beam="1">  1        2 0.74828472E+00 0.17721001E+04</pdfrwt>
<pdfrwt beam="2">  1       -1 0.24832642E-01 0.17721001E+04</pdfrwt>
<totfact> 0.79184149E-01</totfact>
</mgrwt>
</event>
<event>
12    7  0.2492439E-007  0.1749171E+04  0.7818608E-02  0.8733807E-01
         -1   -1    0    0    0  501 -0.00000000000E+00  0.00000000000E+00  0.61991077852E+03  0.61991077852E+03  0.00000000000E+00 0.  1.
          2   -1    0    0  501    0  0.00000000000E+00 -0.00000000000E+00 -0.12338864524E+04  0.12338864524E+04  0.00000000000E+00 0. -1.
         24    2    1    2    0    0  0.39381162500E+02 -0.59336240144E+03 -0.43200602817E+03  0.73929453122E+03  0.79356033884E+02 0.  0.
        254    2    1    2    0    0 -0.39381162500E+02  0.59336240144E+03 -0.18196964573E+03  0.11145026997E+04  0.92486404424E+03 0.  0.
         23    2    4    4    0    0 -0.35905329012E+03  0.14425873317E+03  0.19225903255E+03  0.44163429778E+03  0.91364490570E+02 0.  0.
         23    2    4    4    0    0  0.31967212762E+03  0.44910366827E+03 -0.37422867828E+03  0.67286840195E+03  0.93917030710E+02 0.  0.
          2    1    3    3  502    0  0.63402182149E+02 -0.38398599516E+03 -0.27890257593E+03  0.47880238934E+03  0.00000000000E+00 0. -1.
         -1    1    3    3    0  502 -0.24021019649E+02 -0.20937640628E+03 -0.15310345224E+03  0.26049214188E+03  0.00000000000E+00 0.  1.
         13    1    5    5    0    0 -0.11737502394E+03  0.19388323248E+02  0.22776197464E+02  0.12112620895E+03  0.00000000000E+00 0.  1.
        -13    1    5    5    0    0 -0.24167826618E+03  0.12487040992E+03  0.16948283509E+03  0.32050808883E+03  0.00000000000E+00 0. -1.
          2    1    6    6  503    0  0.28733811498E+03  0.34031466434E+03 -0.30715510993E+03  0.54103745216E+03  0.00000000000E+00 0. -1.
         -2    1    6    6    0  503  0.32334012638E+02  0.10878900393E+03 -0.67073568354E+02  0.13183094978E+03  0.00000000000E+00 0.  1.
<mgrwt>
<rscale>  0 0.17491707E+04</rscale>
<asrwt>0</asrwt>
<pdfrwt beam="1">  1        2 0.18982869E+00 0.17491707E+04</pdfrwt>
<pdfrwt beam="2">  1       -1 0.95370888E-01 0.17491707E+04</pdfrwt>
<totfact> 0.20742456E+01</totfact>
</mgrwt>
</event>
<event>
12    7  0.2492439E-007  0.2620882E+04  0.7818608E-02  0.8361142E-01
         -1   -1    0    0    0  501 -0.00000000000E+00  0.00000000000E+00  0.15749187070E+04  0.15749187070E+04  0.00000000000E+00 0.  1.
          2   -1    0    0  501    0  0.00000000000E+00 -0.00000000000E+00 -0.10903774061E+04  0.10903774061E+04  0.00000000000E+00 0. -1.
         24    2    1    2    0    0  0.11332586414E+04 -0.68707254540E+02  0.16578099495E+01  0.11380458444E+04  0.78420407815E+02 0.  0.
        254    2    1    2    0    0 -0.11332586414E+04  0.68707254540E+02  0.48288349091E+03  0.15272502687E+04  0.90017836139E+03 0.  0.
         23    2    4    4    0    0 -0.43514582589E+03  0.13565366968E+03 -0.23385662175E+03  0.51999094393E+03  0.89150739459E+02 0.  0.
         23    2    4    4    0    0 -0.69811281555E+03 -0.66946415137E+02  0.71674011266E+03  0.10072593248E+04  0.94929619040E+02 0.  0.
          2    1    3    3  502    0  0.53186764011E+03 -0.25958315266E+02 -0.37850829574E+02  0.53384427133E+03  0.00000000000E+00 0. -1.
         -1    1    3    3    0  502  0.60139100133E+03 -0.42748939274E+02  0.39508639524E+02  0.60420157306E+03  0.00000000000E+00 0.  1.
         13    1    5    5    0    0 -0.40932691435E+03  0.10261871788E+03 -0.21954489501E+03  0.47568801225E+03  0.00000000000E+00 0. -1.
        -13    1    5    5    0    0 -0.25818911541E+02  0.33034951797E+02 -0.14311726737E+02  0.44302931682E+02  0.00000000000E+00 0.  1.
          1    1    6    6  503    0 -0.69567454492E+03 -0.60447003319E+02  0.71622652410E+03  0.10002986287E+04  0.00000000000E+00 0. -1.
         -1    1    6    6    0  503 -0.24382706314E+01 -0.64994118189E+01  0.51358855611E+00  0.69606961483E+01  0.00000000000E+00 0.  1.
<mgrwt>
<rscale>  0 0.26208821E+04</rscale>
<asrwt>0</asrwt>
<pdfrwt beam="1">  1        2 0.16775037E+00 0.26208821E+04</pdfrwt>
<pdfrwt beam="2">  1       -1 0.24229519E+00 0.26208821E+04</pdfrwt>
<totfact> 0.17407210E+00</totfact>
</mgrwt>
</event>
<event>
12    7  0.2492439E-007  0.1679456E+04  0.7818608E-02  0.8773169E-01
          2   -1    0    0  501    0  0.00000000000E+00  0.00000000000E+00  0.33626647408E+03  0.33626647408E+03  0.00000000000E+00 0. -1.
         -1   -1    0    0    0  501 -0.00000000000E+00 -0.00000000000E+00 -0.20969771491E+04  0.20969771491E+04  0.00000000000E+00 0.  1.
         24    2    1    2    0    0 -0.13116243081E+03 -0.53800479484E+03 -0.31078115365E+03  0.63851265815E+03  0.66788821129E+02 0.  0.
        254    2    1    2    0    0  0.13116243081E+03  0.53800479484E+03 -0.14499295213E+04  0.17947309650E+04  0.90117194661E+03 0.  0.
         23    2    4    4    0    0 -0.61295067372E+02 -0.19362536532E+03 -0.65756324406E+03  0.69540140701E+03  0.99728779996E+02 0.  0.
         23    2    4    4    0    0  0.19245749818E+03  0.73163016016E+03 -0.79236627727E+03  0.10993295580E+04  0.91425269146E+02 0.  0.
          4    1    3    3  502    0 -0.45337654999E+02 -0.86045064352E+02 -0.44349047757E+02  0.10689290948E+03  0.00000000000E+00 0. -1.
         -3    1    3    3    0  502 -0.85824775806E+02 -0.45195973049E+03 -0.26643210590E+03  0.53161974867E+03  0.00000000000E+00 0.  1.
         13    1    5    5    0    0 -0.34963345835E+02 -0.50765141553E+02 -0.34839661299E+03  0.35380748309E+03  0.00000000000E+00 0.  1.
        -13    1    5    5    0    0 -0.26331721538E+02 -0.14286022376E+03 -0.30916663107E+03  0.34159392392E+03  0.00000000000E+00 0. -1.
          2    1    6    6  503    0  0.94884867573E+02  0.29659051853E+03 -0.38721551121E+03  0.49689528666E+03  0.00000000000E+00 0. -1.
         -2    1    6    6    0  503  0.97572630604E+02  0.43503964163E+03 -0.40515076605E+03  0.60243427132E+03  0.00000000000E+00 0.  1.
<mgrwt>
<rscale>  0 0.16794560E+04</rscale>
<asrwt>0</asrwt>
<pdfrwt beam="1">  1        2 0.51733304E-01 0.16794560E+04</pdfrwt>
<pdfrwt beam="2">  1       -1 0.32261187E+00 0.16794560E+04</pdfrwt>
<totfact> 0.24861377E+00</totfact>
</mgrwt>
</event>
<event>
12    7  0.2492439E-007  0.1022087E+04  0.7818608E-02  0.9284647E-01
         -1   -1    0    0    0  501 -0.00000000000E+00  0.00000000000E+00  0.17373423065E+03  0.17373423065E+03  0.00000000000E+00 0.  1.
          2   -1    0    0  501    0  0.00000000000E+00 -0.00000000000E+00 -0.15032459103E+04  0.15032459103E+04  0.00000000000E+00 0. -1.
         24    2    1    2    0    0  0.59195712637E+02  0.32013854839E+02 -0.24802958150E+03  0.26852751026E+03  0.77841705848E+02 0.  0.
        254    2    1    2    0    0 -0.59195712637E+02 -0.32013854839E+02 -0.10814820981E+04  0.14084526307E+04  0.89978123174E+03 0.  0.
         23    2    4    4    0    0 -0.24757907257E+03 -0.29530099661E+03 -0.97950266070E+03  0.10570386779E+04  0.96990868539E+02 0.  0.
         23    2    4    4    0    0  0.18838335994E+03  0.26328714177E+03 -0.10197943739E+03  0.35141395270E+03  0.91014016405E+02 0.  0.
          2    1    3    3  502    0  0.45126350249E+02  0.19747961305E+02 -0.24464872158E+03  0.24955834275E+03  0.00000000000E+00 0. -1.
         -1    1    3    3    0  502  0.14069362389E+02  0.12265893534E+02 -0.33808599162E+01  0.18969167509E+02  0.00000000000E+00 0.  1.
         13    1    5    5    0    0 -0.19395609918E+03 -0.26990406288E+03 -0.88611182790E+03  0.94639386257E+03  0.00000000000E+00 0. -1.
        -13    1    5    5    0    0 -0.53622973391E+02 -0.25396933727E+02 -0.93390832808E+02  0.11064481538E+03  0.00000000000E+00 0.  1.
          3    1    6    6  503    0  0.18501107383E+03  0.20349702780E+03 -0.95693081155E+02  0.29119976570E+03  0.00000000000E+00 0. -1.
         -3    1    6    6    0  503  0.33722861101E+01  0.59790113968E+02 -0.62863562385E+01  0.60214187005E+02  0.00000000000E+00 0.  1.
<mgrwt>
<rscale>  0 0.10220866E+04</rscale>
<asrwt>0</asrwt>
<pdfrwt beam="1">  1        2 0.23126859E+00 0.10220866E+04</pdfrwt>
<pdfrwt beam="2">  1       -1 0.26728344E-01 0.10220866E+04</pdfrwt>
<totfact> 0.17911890E+02</totfact>
</mgrwt>
</event>
<event>
12    7  0.2492439E-007  0.2385618E+04  0.7818608E-02  0.8444908E-01
          2   -1    0    0  501    0  0.00000000000E+00  0.00000000000E+00  0.21999253697E+04  0.21999253697E+04  0.00000000000E+00 0. -1.
         -1   -1    0    0    0  501 -0.00000000000E+00 -0.00000000000E+00 -0.64674596181E+03  0.64674596181E+03  0.00000000000E+00 0.  1.
         24    2    1    2    0    0 -0.63470911920E+03  0.60906932450E+03  0.48615171483E+02  0.88449240469E+03  0.78372641981E+02 0.  0.
        254    2    1    2    0    0  0.63470911920E+03 -0.60906932450E+03  0.15045642364E+04  0.19621789268E+04  0.90144966097E+03 0.  0.
         23    2    4    4    0    0  0.15926401543E+03 -0.22640792041E+03  0.12682936368E+04  0.13012876966E+04  0.90306960338E+02 0.  0.
         23    2    4    4    0    0  0.47544510377E+03 -0.38266140409E+03  0.23627059953E+03  0.66089123016E+03  0.92063157760E+02 0.  0.
          2    1    3    3  502    0 -0.15322114448E+03  0.19494257809E+03  0.20237324618E+02  0.24877475188E+03  0.00000000000E+00 0. -1.
         -1    1    3    3    0  502 -0.48148797473E+03  0.41412674641E+03  0.28377846865E+02  0.63571765281E+03  0.00000000000E+00 0.  1.
         13    1    5    5    0    0  0.41665751547E+02 -0.12641905807E+03  0.69161102411E+03  0.70430364316E+03  0.00000000000E+00 0.  1.
        -13    1    5    5    0    0  0.11759826388E+03 -0.99988862339E+02  0.57668261273E+03  0.59698405346E+03  0.00000000000E+00 0. -1.
          1    1    6    6  503    0  0.29191081717E+03 -0.26866472503E+03  0.11467411735E+03  0.41296829521E+03  0.00000000000E+00 0. -1.
         -1    1    6    6    0  503  0.18353428661E+03 -0.11399667906E+03  0.12159648219E+03  0.24792293496E+03  0.00000000000E+00 0.  1.
<mgrwt>
<rscale>  0 0.23856176E+04</rscale>
<asrwt>0</asrwt>
<pdfrwt beam="1">  1        2 0.33845005E+00 0.23856176E+04</pdfrwt>
<pdfrwt beam="2">  1       -1 0.99499380E-01 0.23856176E+04</pdfrwt>
<totfact> 0.50995660E+00</totfact>
</mgrwt>
</event>
<event>
12    7  0.2492439E-007  0.2950791E+04  0.7818608E-02  0.8257924E-01
          2   -1    0    0  501    0  0.00000000000E+00  0.00000000000E+00  0.27366494558E+04  0.27366494558E+04  0.00000000000E+00 0. -1.
         -1   -1    0    0    0  501 -0.00000000000E+00 -0.00000000000E+00 -0.79542226743E+03  0.79542226743E+03  0.00000000000E+00 0.  1.
         24    2    1    2    0    0  0.44852870689E+03  0.12002082567E+04  0.42429196470E+03  0.13521505670E+04  0.81299593962E+02 0.  0.
        254    2    1    2    0    0 -0.44852870689E+03 -0.12002082567E+04  0.15169352236E+04  0.21799211562E+04  0.89960319826E+03 0.  0.
         23    2    4    4    0    0 -0.64150917580E+03 -0.46589972064E+03  0.83814777166E+03  0.11572781204E+04  0.90578079736E+02 0.  0.
         23    2    4    4    0    0  0.19298046890E+03 -0.73430853609E+03  0.67878745196E+03  0.10226430358E+04  0.92714002312E+02 0.  0.
          4    1    3    3  502    0  0.11558934210E+03  0.41301070768E+03  0.15477943517E+03  0.45595549587E+03  0.00000000000E+00 0. -1.
         -3    1    3    3    0  502  0.33293936479E+03  0.78719754904E+03  0.26951252954E+03  0.89619507108E+03  0.00000000000E+00 0.  1.
         13    1    5    5    0    0 -0.72567596682E+02 -0.28131953875E+02  0.57702808222E+02  0.96886928911E+02  0.00000000000E+00 0. -1.
        -13    1    5    5    0    0 -0.56894157911E+03 -0.43776776676E+03  0.78044496344E+03  0.10603911915E+04  0.00000000000E+00 0.  1.
          1    1    6    6  503    0  0.59231783333E+02 -0.37747732386E+03  0.30564253253E+03  0.48930041067E+03  0.00000000000E+00 0. -1.
         -1    1    6    6    0  503  0.13374868557E+03 -0.35683121223E+03  0.37314491943E+03  0.53334262515E+03  0.00000000000E+00 0.  1.
<mgrwt>
<rscale>  0 0.29507910E+04</rscale>
<asrwt>0</asrwt>
<pdfrwt beam="1">  1        2 0.42102299E+00 0.29507910E+04</pdfrwt>
<pdfrwt beam="2">  1       -1 0.12237266E+00 0.29507910E+04</pdfrwt>
<totfact> 0.14542763E+00</totfact>
</mgrwt>
</event>
<event>
12    7  0.2492439E-007  0.2842734E+04  0.7818608E-02  0.8290123E-01
          2   -1    0    0  501    0  0.00000000000E+00  0.00000000000E+00  0.17717427686E+04  0.17717427686E+04  0.00000000000E+00 0. -1.
         -1   -1    0    0    0  501 -0.00000000000E+00 -0.00000000000E+00 -0.11402807880E+04  0.11402807880E+04  0.00000000000E+00 0.  1.
         24    2    1    2    0    0  0.39028184678E+03 -0.11625021033E+04  0.64956524845E+03  0.13900590129E+04  0.81227994419E+02 0.  0.
        254    2    1    2    0    0 -0.39028184678E+03  0.11625021033E+04 -0.18103267838E+02  0.15219645437E+04  0.90128646050E+03 0.  0.
         23    2    4    4    0    0  0.18876075143E+03  0.78390432459E+03 -0.10706337482E+03  0.81853972872E+03  0.91695746225E+02 0.  0.
         23    2    4    4    0    0 -0.57904259821E+03  0.37859777875E+03  0.88960106981E+02  0.70342481502E+03  0.90917331319E+02 0.  0.
          4    1    3    3  502    0  0.23526867312E+03 -0.72852905212E+03  0.44852002524E+03  0.88728582845E+03  0.00000000000E+00 0. -1.
         -3    1    3    3    0  502  0.15501317366E+03 -0.43397305122E+03  0.20104522320E+03  0.50277318442E+03  0.00000000000E+00 0.  1.
         13    1    5    5    0    0  0.82682791647E+01  0.58506889823E+02 -0.32180890447E+02  0.67283209697E+02  0.00000000000E+00 0. -1.
        -13    1    5    5    0    0  0.18049247226E+03  0.72539743477E+03 -0.74882484372E+02  0.75125651902E+03  0.00000000000E+00 0.  1.
          4    1    6    6  503    0 -0.41441606808E+03  0.26794907964E+03  0.10458147741E+03  0.50445482670E+03  0.00000000000E+00 0. -1.
         -4    1    6    6    0  503 -0.16462653012E+03  0.11064869912E+03 -0.15621370433E+02  0.19896998832E+03  0.00000000000E+00 0.  1.
<mgrwt>
<rscale>  0 0.28427341E+04</rscale>
<asrwt>0</asrwt>
<pdfrwt beam="1">  1        2 0.27257581E+00 0.28427341E+04</pdfrwt>
<pdfrwt beam="2">  1       -1 0.17542781E+00 0.28427341E+04</pdfrwt>
<totfact> 0.19828159E+00</totfact>
</mgrwt>
</event>
<event>
12    7  0.2492439E-007  0.1138093E+04  0.7818608E-02  0.9168839E-01
          2   -1    0    0  501    0  0.00000000000E+00  0.00000000000E+00  0.23522886878E+04  0.23522886878E+04  0.00000000000E+00 0. -1.
         -1   -1    0    0    0  501 -0.00000000000E+00 -0.00000000000E+00 -0.13765912059E+03  0.13765912059E+03  0.00000000000E+00 0.  1.
         24    2    1    2    0    0  0.74478249666E+02  0.67677895591E+02  0.41025073878E+02  0.13345609623E+03  0.77460736560E+02 0.  0.
        254    2    1    2    0    0 -0.74478249666E+02 -0.67677895591E+02  0.21736044933E+04  0.23564917121E+04  0.90463771139E+03 0.  0.
         23    2    4    4    0    0  0.29559546662E+03 -0.16654136485E+03  0.17228789485E+04  0.17579684273E+04  0.83835638452E+02 0.  0.
         23    2    4    4    0    0 -0.37007371628E+03  0.98863469255E+02  0.45072554483E+03  0.59852328482E+03  0.91367744168E+02 0.  0.
          2    1    3    3  502    0  0.78740862184E+02  0.65685731385E+02  0.56642222069E+02  0.11714555052E+03  0.00000000000E+00 0. -1.
         -1    1    3    3    0  502 -0.42626125181E+01  0.19921642063E+01 -0.15617148192E+02  0.16310545709E+02  0.00000000000E+00 0.  1.
         13    1    5    5    0    0  0.22718081380E+03 -0.14282105874E+03  0.11706411285E+04  0.12010035923E+04  0.00000000000E+00 0.  1.
        -13    1    5    5    0    0  0.68414652818E+02 -0.23720306105E+02  0.55223782000E+03  0.55696483505E+03  0.00000000000E+00 0. -1.
          3    1    6    6  503    0 -0.20785842179E+03  0.73357123211E+02  0.19325010915E+03  0.29314159671E+03  0.00000000000E+00 0. -1.
         -3    1    6    6    0  503 -0.16221529449E+03  0.25506346044E+02  0.25747543567E+03  0.30538168811E+03  0.00000000000E+00 0.  1.
<mgrwt>
<rscale>  0 0.11380931E+04</rscale>
<asrwt>0</asrwt>
<pdfrwt beam="1">  1        2 0.36189054E+00 0.11380931E+04</pdfrwt>
<pdfrwt beam="2">  1       -1 0.21178328E-01 0.11380931E+04</pdfrwt>
<totfact> 0.89243403E+01</totfact>
</mgrwt>
</event>
<event>
12    7  0.2492439E-007  0.1594981E+04  0.7818608E-02  0.8823637E-01
         -1   -1    0    0    0  501 -0.00000000000E+00  0.00000000000E+00  0.20915667105E+03  0.20915667105E+03  0.00000000000E+00 0.  1.
          2   -1    0    0  501    0  0.00000000000E+00 -0.00000000000E+00 -0.30407415416E+04  0.30407415416E+04  0.00000000000E+00 0. -1.
         24    2    1    2    0    0  0.12490934529E+03 -0.39815062893E+03 -0.16506533847E+04  0.17045062483E+04  0.80985714460E+02 0.  0.
        254    2    1    2    0    0 -0.12490934529E+03  0.39815062893E+03 -0.11809314859E+04  0.15453919644E+04  0.90526840307E+03 0.  0.
         23    2    4    4    0    0  0.28100299434E+03  0.95605085481E+02 -0.91577066718E+03  0.96683877502E+03  0.89656493518E+02 0.  0.
         23    2    4    4    0    0 -0.40591233962E+03  0.30254554345E+03 -0.26516081868E+03  0.57855318941E+03  0.90082739179E+02 0.  0.
          2    1    3    3  502    0  0.73183169976E+02 -0.17883938137E+03 -0.91210306688E+03  0.93234720212E+03  0.00000000000E+00 0. -1.
         -3    1    3    3    0  502  0.51726175312E+02 -0.21931124756E+03 -0.73855031785E+03  0.77215904613E+03  0.00000000000E+00 0.  1.
         13    1    5    5    0    0  0.63231920968E+02 -0.12722930721E+02 -0.24439296491E+03  0.25276089511E+03  0.00000000000E+00 0. -1.
        -13    1    5    5    0    0  0.21777107337E+03  0.10832801620E+03 -0.67137770227E+03  0.71407787992E+03  0.00000000000E+00 0.  1.
          2    1    6    6  503    0 -0.40186878759E+03  0.27878773243E+03 -0.24450267818E+03  0.54681137683E+03  0.00000000000E+00 0. -1.
         -2    1    6    6    0  503 -0.40435520366E+01  0.23757811015E+02 -0.20658140495E+02  0.31741812582E+02  0.00000000000E+00 0.  1.
<mgrwt>
<rscale>  0 0.15949814E+04</rscale>
<asrwt>0</asrwt>
<pdfrwt beam="1">  1        2 0.46780634E+00 0.15949814E+04</pdfrwt>
<pdfrwt beam="2">  1       -1 0.32177953E-01 0.15949814E+04</pdfrwt>
<totfact> 0.16268178E+01</totfact>
</mgrwt>
</event>
<event>
12    7  0.2492439E-007  0.3310668E+04  0.7818608E-02  0.8160186E-01
         -1   -1    0    0    0  501 -0.00000000000E+00  0.00000000000E+00  0.10249144865E+04  0.10249144865E+04  0.00000000000E+00 0.  1.
          2   -1    0    0  501    0  0.00000000000E+00 -0.00000000000E+00 -0.26735218061E+04  0.26735218061E+04  0.00000000000E+00 0. -1.
         24    2    1    2    0    0  0.52322497215E+02  0.11803931334E+04  0.32543614461E+03  0.12280937837E+04  0.78994076578E+02 0.  0.
        254    2    1    2    0    0 -0.52322497215E+02 -0.11803931334E+04 -0.19740434642E+04  0.24703425089E+04  0.89982160430E+03 0.  0.
         23    2    4    4    0    0 -0.85488992762E+02 -0.12526676203E+04 -0.19836747259E+04  0.23494079231E+04  0.90926542476E+02 0.  0.
         23    2    4    4    0    0  0.33166495547E+02  0.72274486883E+02  0.96312616478E+01  0.12093458583E+03  0.90602400458E+02 0.  0.
          4    1    3    3  502    0  0.33160737070E+02  0.64447852704E+03  0.13716420300E+03  0.65974709161E+03  0.00000000000E+00 0. -1.
         -3    1    3    3    0  502  0.19161760144E+02  0.53591460637E+03  0.18827194161E+03  0.56834669206E+03  0.00000000000E+00 0.  1.
         13    1    5    5    0    0 -0.10398436307E+02 -0.74404350702E+03 -0.11368179254E+04  0.13586993278E+04  0.00000000000E+00 0.  1.
        -13    1    5    5    0    0 -0.75090556454E+02 -0.50862411328E+03 -0.84685680049E+03  0.99070859530E+03  0.00000000000E+00 0. -1.
          4    1    6    6  503    0  0.63321644872E+02  0.51968413608E+02  0.17435272860E+02  0.83751629608E+02  0.00000000000E+00 0. -1.
         -4    1    6    6    0  503 -0.30155149325E+02  0.20306073276E+02 -0.78040112124E+01  0.37182956226E+02  0.00000000000E+00 0.  1.
<mgrwt>
<rscale>  0 0.33106683E+04</rscale>
<asrwt>0</asrwt>
<pdfrwt beam="1">  1        2 0.41131105E+00 0.33106683E+04</pdfrwt>
<pdfrwt beam="2">  1       -1 0.15767915E+00 0.33106683E+04</pdfrwt>
<totfact> 0.79436139E-01</totfact>
</mgrwt>
</event>
<event>
12    7  0.2492439E-007  0.2766210E+04  0.7818608E-02  0.8313836E-01
         -1   -1    0    0    0  501 -0.00000000000E+00  0.00000000000E+00  0.19530025375E+04  0.19530025375E+04  0.00000000000E+00 0.  1.
          2   -1    0    0  501    0  0.00000000000E+00 -0.00000000000E+00 -0.97950667934E+03  0.97950667934E+03  0.00000000000E+00 0. -1.
         24    2    1    2    0    0  0.10997503393E+04  0.35598130346E+03 -0.27109596680E+02  0.11590903168E+04  0.81129124876E+02 0.  0.
        254    2    1    2    0    0 -0.10997503393E+04 -0.35598130346E+03  0.10006054548E+04  0.17734189000E+04  0.89868226950E+03 0.  0.
         23    2    4    4    0    0 -0.23992056758E+03  0.15057526897E+03 -0.72025367344E+02  0.30546506470E+03  0.88805753413E+02 0.  0.
         23    2    4    4    0    0 -0.85982977177E+03 -0.50655657243E+03  0.10726308222E+04  0.14679538353E+04  0.91895508913E+02 0.  0.
          2    1    3    3  502    0  0.46182387370E+03  0.11098871562E+03 -0.26945064745E+02  0.47573713522E+03  0.00000000000E+00 0. -1.
         -1    1    3    3    0  502  0.63792646565E+03  0.24499258784E+03 -0.16453193468E+00  0.68335318155E+03  0.00000000000E+00 0.  1.
         13    1    5    5    0    0 -0.24215943896E+03  0.15334556432E+03 -0.59891414287E+02  0.29281912076E+03  0.00000000000E+00 0.  1.
        -13    1    5    5    0    0  0.22388713816E+01 -0.27702953566E+01 -0.12133953057E+02  0.12645943943E+02  0.00000000000E+00 0. -1.
          2    1    6    6  503    0 -0.52603285294E+03 -0.36018042735E+03  0.69525097296E+03  0.94329974983E+03  0.00000000000E+00 0.  1.
         -2    1    6    6    0  503 -0.33379691883E+03 -0.14637614508E+03  0.37737984920E+03  0.52465408552E+03  0.00000000000E+00 0. -1.
<mgrwt>
<rscale>  0 0.27662097E+04</rscale>
<asrwt>0</asrwt>
<pdfrwt beam="1">  1        2 0.15069334E+00 0.27662097E+04</pdfrwt>
<pdfrwt beam="2">  1       -1 0.30046193E+00 0.27662097E+04</pdfrwt>
<totfact> 0.84710028E-01</totfact>
</mgrwt>
</event>
<event>
12    7  0.2492439E-007  0.2158548E+04  0.7818608E-02  0.8535882E-01
          2   -1    0    0  501    0  0.00000000000E+00  0.00000000000E+00  0.30977346504E+04  0.30977346504E+04  0.00000000000E+00 0. -1.
         -1   -1    0    0    0  501 -0.00000000000E+00 -0.00000000000E+00 -0.37602725487E+03  0.37602725487E+03  0.00000000000E+00 0.  1.
         24    2    1    2    0    0  0.58299103751E+03  0.64497376107E+03  0.14241640236E+04  0.16705800736E+04  0.82005571577E+02 0.  0.
        254    2    1    2    0    0 -0.58299103751E+03 -0.64497376107E+03  0.12975433720E+04  0.18031818317E+04  0.90109722779E+03 0.  0.
         23    2    4    4    0    0 -0.55541242290E+03  0.27236028162E+02  0.70354997434E+03  0.90139090435E+03  0.91094650242E+02 0.  0.
         23    2    4    4    0    0 -0.27578614610E+02 -0.67220978923E+03  0.59399339763E+03  0.90179092740E+03  0.88159739098E+02 0.  0.
          2    1    3    3  502    0  0.47327028921E+03  0.55131550998E+03  0.11393273779E+04  0.13512958345E+04  0.00000000000E+00 0. -1.
         -1    1    3    3    0  502  0.10972074830E+03  0.93658251083E+02  0.28483664566E+03  0.31928423907E+03  0.00000000000E+00 0.  1.
         13    1    5    5    0    0 -0.47863792963E+03  0.23602691548E+02  0.65066328092E+03  0.80809285349E+03  0.00000000000E+00 0.  1.
        -13    1    5    5    0    0 -0.76774493276E+02  0.36333366139E+01  0.52886693418E+02  0.93298050855E+02  0.00000000000E+00 0. -1.
          1    1    6    6  503    0 -0.26130222204E+02 -0.96906420745E+02  0.60481751417E+02  0.11718227318E+03  0.00000000000E+00 0. -1.
         -1    1    6    6    0  503 -0.14483924055E+01 -0.57530336848E+03  0.53351164621E+03  0.78460865422E+03  0.00000000000E+00 0.  1.
<mgrwt>
<rscale>  0 0.21585483E+04</rscale>
<asrwt>0</asrwt>
<pdfrwt beam="1">  1        2 0.47657454E+00 0.21585483E+04</pdfrwt>
<pdfrwt beam="2">  1       -1 0.57850349E-01 0.21585483E+04</pdfrwt>
<totfact> 0.47786162E+00</totfact>
</mgrwt>
</event>
<event>
12    7  0.2492439E-007  0.1840829E+04  0.7818608E-02  0.8684883E-01
          2   -1    0    0  501    0  0.00000000000E+00  0.00000000000E+00  0.32763905434E+04  0.32763905434E+04  0.00000000000E+00 0. -1.
         -1   -1    0    0    0  501 -0.00000000000E+00 -0.00000000000E+00 -0.25856587958E+03  0.25856587958E+03  0.00000000000E+00 0.  1.
         24    2    1    2    0    0  0.22217284734E+03 -0.35512343673E+03  0.79326708363E+02  0.43344648944E+03  0.78164590102E+02 0.  0.
        254    2    1    2    0    0 -0.22217284734E+03  0.35512343673E+03  0.29384979554E+04  0.31015099335E+04  0.89951109176E+03 0.  0.
         23    2    4    4    0    0 -0.43371686544E+03  0.49832076817E+03  0.15631959541E+04  0.16993774087E+04  0.88702193055E+02 0.  0.
         23    2    4    4    0    0  0.21154401810E+03 -0.14319733144E+03  0.13753020013E+04  0.14021325248E+04  0.96247986164E+02 0.  0.
          2    1    3    3  502    0  0.20966488345E+03 -0.29117980099E+03  0.82649107125E+02  0.36820634808E+03  0.00000000000E+00 0. -1.
         -1    1    3    3    0  502  0.12507963886E+02 -0.63943635739E+02 -0.33223987619E+01  0.65240141368E+02  0.00000000000E+00 0.  1.
         13    1    5    5    0    0 -0.43143208570E+03  0.50212736777E+03  0.15549969171E+04  0.16900535347E+04  0.00000000000E+00 0. -1.
        -13    1    5    5    0    0 -0.22847797366E+01 -0.38065995947E+01  0.81990369882E+01  0.93238740046E+01  0.00000000000E+00 0.  1.
          3    1    6    6  503    0  0.11439942375E+03 -0.95446174307E+02  0.10164168268E+04  0.10272781347E+04  0.00000000000E+00 0. -1.
         -3    1    6    6    0  503  0.97144594351E+02 -0.47751157138E+02  0.35888517455E+03  0.37485439004E+03  0.00000000000E+00 0.  1.
<mgrwt>
<rscale>  0 0.18408289E+04</rscale>
<asrwt>0</asrwt>
<pdfrwt beam="1">  1        2 0.50406005E+00 0.18408289E+04</pdfrwt>
<pdfrwt beam="2">  1       -1 0.39779369E-01 0.18408289E+04</pdfrwt>
<totfact> 0.76547383E+00</totfact>
</mgrwt>
</event>
<event>
12    7  0.2492439E-007  0.2472981E+04  0.7818608E-02  0.8412675E-01
          2   -1    0    0  501    0  0.00000000000E+00  0.00000000000E+00  0.29132827788E+04  0.29132827788E+04  0.00000000000E+00 0. -1.
         -1   -1    0    0    0  501 -0.00000000000E+00 -0.00000000000E+00 -0.52480596049E+03  0.52480596049E+03  0.00000000000E+00 0.  1.
         24    2    1    2    0    0  0.32456656068E+03  0.49876487550E+03  0.22751460392E+04  0.23530164065E+04  0.79289696760E+02 0.  0.
        254    2    1    2    0    0 -0.32456656068E+03 -0.49876487550E+03  0.11333077910E+03  0.10850723328E+04  0.90023788447E+03 0.  0.
         23    2    4    4    0    0 -0.62442531273E+03 -0.34405095267E+03  0.14810660440E+03  0.73393644798E+03  0.91919063267E+02 0.  0.
         23    2    4    4    0    0  0.29985875205E+03 -0.15471392283E+03 -0.34775825301E+02  0.35113588485E+03  0.90749008265E+02 0.  0.
          2    1    3    3  502    0  0.24911154780E+03  0.31470729664E+03  0.15087766769E+04  0.15612508788E+04  0.00000000000E+00 0. -1.
         -1    1    3    3    0  502  0.75455012871E+02  0.18405757886E+03  0.76636936231E+03  0.79176552766E+03  0.00000000000E+00 0.  1.
         13    1    5    5    0    0 -0.41326373677E+03 -0.27379811720E+03  0.11559267176E+03  0.50903240650E+03  0.00000000000E+00 0.  1.
        -13    1    5    5    0    0 -0.21116157596E+03 -0.70252835471E+02  0.32513932644E+02  0.22490404147E+03  0.00000000000E+00 0. -1.
          3    1    6    6  503    0  0.21212187138E+03 -0.94041547355E+02  0.16817644102E+02  0.23264207294E+03  0.00000000000E+00 0. -1.
         -3    1    6    6    0  503  0.87736880673E+02 -0.60672375475E+02 -0.51593469403E+02  0.11849381191E+03  0.00000000000E+00 0.  1.
<mgrwt>
<rscale>  0 0.24729805E+04</rscale>
<asrwt>0</asrwt>
<pdfrwt beam="1">  1        2 0.44819734E+00 0.24729805E+04</pdfrwt>
<pdfrwt beam="2">  1       -1 0.80739381E-01 0.24729805E+04</pdfrwt>
<totfact> 0.30659486E+00</totfact>
</mgrwt>
</event>
<event>
12    7  0.2492439E-007  0.1990632E+04  0.7818608E-02  0.8611013E-01
         -1   -1    0    0    0  501 -0.00000000000E+00  0.00000000000E+00  0.37444892702E+03  0.37444892702E+03  0.00000000000E+00 0.  1.
          2   -1    0    0  501    0  0.00000000000E+00 -0.00000000000E+00 -0.26456318970E+04  0.26456318970E+04  0.00000000000E+00 0. -1.
         24    2    1    2    0    0 -0.23317054584E+03 -0.75414494520E+03 -0.90358791506E+03  0.12025401309E+04  0.80799407761E+02 0.  0.
        254    2    1    2    0    0  0.23317054584E+03  0.75414494520E+03 -0.13675950549E+04  0.18175406931E+04  0.90001935266E+03 0.  0.
         23    2    4    4    0    0  0.12461726704E+03  0.58780804040E+03 -0.14592784651E+04  0.15807499381E+04  0.90713683174E+02 0.  0.
         23    2    4    4    0    0  0.10855327880E+03  0.16633690480E+03  0.91683410224E+02  0.23679075506E+03  0.90621375707E+02 0.  0.
          2    1    3    3  502    0 -0.19578909382E+03 -0.70538085365E+03 -0.83312862209E+03  0.11090531182E+04  0.00000000000E+00 0. -1.
         -1    1    3    3    0  502 -0.37381452020E+02 -0.48764091551E+02 -0.70459292967E+02  0.93487012709E+02  0.00000000000E+00 0.  1.
         13    1    5    5    0    0  0.88261222718E+02  0.40680661328E+03 -0.89572052880E+03  0.98772310379E+03  0.00000000000E+00 0. -1.
        -13    1    5    5    0    0  0.36356044319E+02  0.18100142712E+03 -0.56355793632E+03  0.59302683427E+03  0.00000000000E+00 0.  1.
          4    1    6    6  503    0  0.50491521057E+02  0.13982966174E+03  0.38142542447E+02  0.15348153487E+03  0.00000000000E+00 0.  1.
         -4    1    6    6    0  503  0.58061757747E+02  0.26507243063E+02  0.53540867777E+02  0.83309220197E+02  0.00000000000E+00 0. -1.
<mgrwt>
<rscale>  0 0.19906321E+04</rscale>
<asrwt>0</asrwt>
<pdfrwt beam="1">  1        2 0.40702029E+00 0.19906321E+04</pdfrwt>
<pdfrwt beam="2">  1       -1 0.57607528E-01 0.19906321E+04</pdfrwt>
<totfact> 0.92487610E+00</totfact>
</mgrwt>
</event>
<event>
12    7  0.2492439E-007  0.1262815E+04  0.7818608E-02  0.9059584E-01
          2   -1    0    0  501    0  0.00000000000E+00  0.00000000000E+00  0.10661140524E+04  0.10661140524E+04  0.00000000000E+00 0. -1.
         -3   -1    0    0    0  501 -0.00000000000E+00 -0.00000000000E+00 -0.37395198358E+03  0.37395198358E+03  0.00000000000E+00 0.  1.
         24    2    1    2    0    0  0.25091516637E+03 -0.87694485857E+02  0.33487308230E+03  0.43526112550E+03  0.81630402177E+02 0.  0.
        254    2    1    2    0    0 -0.25091516637E+03  0.87694485857E+02  0.35728898651E+03  0.10048049105E+04  0.90073788898E+03 0.  0.
         23    2    4    4    0    0 -0.34008130243E+03 -0.11324616400E+03 -0.18495185689E+03  0.41280836158E+03  0.87883832996E+02 0.  0.
         23    2    4    4    0    0  0.89166136060E+02  0.20094064986E+03  0.54224084340E+03  0.59199654888E+03  0.90039086220E+02 0.  0.
          4    1    3    3  502    0  0.79309179859E+02 -0.59838621605E+02  0.16233772414E+03  0.19032641258E+03  0.00000000000E+00 0. -1.
         -3    1    3    3    0  502  0.17160598651E+03 -0.27855864252E+02  0.17253535815E+03  0.24493471292E+03  0.00000000000E+00 0.  1.
         13    1    5    5    0    0 -0.37354912669E+02 -0.11322703549E+02 -0.56170585377E+02  0.68401226435E+02  0.00000000000E+00 0.  1.
        -13    1    5    5    0    0 -0.30272638976E+03 -0.10192346045E+03 -0.12878127151E+03  0.34440713515E+03  0.00000000000E+00 0. -1.
          3    1    6    6  503    0  0.86604335294E+02  0.12566514824E+03  0.43462249826E+03  0.46063950805E+03  0.00000000000E+00 0. -1.
         -3    1    6    6    0  503  0.25618007662E+01  0.75275501617E+02  0.10761834514E+03  0.13135704084E+03  0.00000000000E+00 0.  1.
<mgrwt>
<rscale>  0 0.12628151E+04</rscale>
<asrwt>0</asrwt>
<pdfrwt beam="1">  1        2 0.16401754E+00 0.12628151E+04</pdfrwt>
<pdfrwt beam="2">  1       -3 0.57531075E-01 0.12628151E+04</pdfrwt>
<totfact> 0.42476866E+01</totfact>
</mgrwt>
</event>
<event>
12    7  0.2492439E-007  0.2376230E+04  0.7818608E-02  0.8448457E-01
         -1   -1    0    0    0  501 -0.00000000000E+00  0.00000000000E+00  0.52409151098E+03  0.52409151098E+03  0.00000000000E+00 0.  1.
          2   -1    0    0  501    0  0.00000000000E+00 -0.00000000000E+00 -0.26934558422E+04  0.26934558422E+04  0.00000000000E+00 0. -1.
         24    2    1    2    0    0  0.27380579593E+03 -0.94791567032E+03 -0.60625049918E+03  0.11607771462E+04  0.79688038048E+02 0.  0.
        254    2    1    2    0    0 -0.27380579593E+03  0.94791567032E+03 -0.15631138320E+04  0.20567702070E+04  0.90192300144E+03 0.  0.
         23    2    4    4    0    0 -0.80644226029E+02  0.79602290790E+03 -0.46881858420E+03  0.93182558365E+03  0.91389782529E+02 0.  0.
         23    2    4    4    0    0 -0.19316156990E+03  0.15189276242E+03 -0.10942952478E+04  0.11249446233E+04  0.87381421393E+02 0.  0.
          4    1    3    3  502    0  0.13722100608E+03 -0.61179310516E+03 -0.39085215728E+03  0.73884086033E+03  0.00000000000E+00 0. -1.
         -3    1    3    3    0  502  0.13658478984E+03 -0.33612256516E+03 -0.21539834189E+03  0.42193628585E+03  0.00000000000E+00 0.  1.
         13    1    5    5    0    0 -0.91459158651E+02  0.46078649303E+03 -0.28123475415E+03  0.54752347603E+03  0.00000000000E+00 0. -1.
        -13    1    5    5    0    0  0.10814932622E+02  0.33523641488E+03 -0.18758383005E+03  0.38430210762E+03  0.00000000000E+00 0.  1.
          2    1    6    6  503    0 -0.57834701699E+02  0.10018273547E+03 -0.46124632472E+03  0.47553086680E+03  0.00000000000E+00 0. -1.
         -2    1    6    6    0  503 -0.13532686820E+03  0.51710026948E+02 -0.63304892308E+03  0.64941375652E+03  0.00000000000E+00 0.  1.
<mgrwt>
<rscale>  0 0.23762301E+04</rscale>
<asrwt>0</asrwt>
<pdfrwt beam="1">  1        2 0.41437782E+00 0.23762301E+04</pdfrwt>
<pdfrwt beam="2">  1       -1 0.80629463E-01 0.23762301E+04</pdfrwt>
<totfact> 0.42129861E+00</totfact>
</mgrwt>
</event>
<event>
12    7  0.2492439E-007  0.2670256E+04  0.7818608E-02  0.8344721E-01
          2   -1    0    0  501    0  0.00000000000E+00  0.00000000000E+00  0.13761541586E+04  0.13761541586E+04  0.00000000000E+00 0. -1.
         -1   -1    0    0    0  501 -0.00000000000E+00 -0.00000000000E+00 -0.12953253246E+04  0.12953253246E+04  0.00000000000E+00 0.  1.
         24    2    1    2    0    0 -0.64241916276E+03  0.13578992735E+03  0.10196064309E+04  0.12153167089E+04  0.79095790870E+02 0.  0.
        254    2    1    2    0    0  0.64241916276E+03 -0.13578992735E+03 -0.93877759693E+03  0.14561627743E+04  0.89886893573E+03 0.  0.
         23    2    4    4    0    0  0.67167564405E+03 -0.35261469264E+03 -0.38823101548E+03  0.85732380460E+03  0.93784285822E+02 0.  0.
         23    2    4    4    0    0 -0.29256481295E+02  0.21682476529E+03 -0.55054658145E+03  0.59883896968E+03  0.87393665186E+02 0.  0.
          4    1    3    3  502    0 -0.25951688516E+03  0.54515885531E+02  0.48451594886E+03  0.55233748755E+03  0.00000000000E+00 0. -1.
         -3    1    3    3    0  502 -0.38290227760E+03  0.81274041822E+02  0.53509048199E+03  0.66297922138E+03  0.00000000000E+00 0.  1.
         13    1    5    5    0    0  0.28559985272E+03 -0.10299192484E+03 -0.17633824487E+03  0.35109797644E+03  0.00000000000E+00 0.  1.
        -13    1    5    5    0    0  0.38607579133E+03 -0.24962276779E+03 -0.21189277061E+03  0.50622582816E+03  0.00000000000E+00 0. -1.
          3    1    6    6  503    0 -0.21656067762E+01  0.11092746676E+03 -0.17078539069E+03  0.20365962391E+03  0.00000000000E+00 0. -1.
         -3    1    6    6    0  503 -0.27090874519E+02  0.10589729852E+03 -0.37976119076E+03  0.39517934577E+03  0.00000000000E+00 0.  1.
<mgrwt>
<rscale>  0 0.26702564E+04</rscale>
<asrwt>0</asrwt>
<pdfrwt beam="1">  1        2 0.21171602E+00 0.26702564E+04</pdfrwt>
<pdfrwt beam="2">  1       -1 0.19928082E+00 0.26702564E+04</pdfrwt>
<totfact> 0.22776886E+00</totfact>
</mgrwt>
</event>
<event>
12    7  0.3223863E-007  0.1524850E+04  0.7818608E-02  0.8868094E-01
          4   -1    0    0  501    0  0.00000000000E+00  0.00000000000E+00  0.24583235535E+04  0.24583235535E+04  0.00000000000E+00 0. -1.
         -3   -1    0    0    0  501 -0.00000000000E+00 -0.00000000000E+00 -0.23645875837E+03  0.23645875837E+03  0.00000000000E+00 0.  1.
         24    2    1    2    0    0 -0.21795836503E+03  0.41373032596E+03  0.47212911894E+03  0.67295810786E+03  0.10624536916E+03 0.  0.
        254    2    1    2    0    0  0.21795836503E+03 -0.41373032596E+03  0.17497356762E+04  0.20218242040E+04  0.89862091224E+03 0.  0.
         23    2    4    4    0    0 -0.15915111624E+03 -0.49298855081E+03  0.13924913235E+04  0.14886904456E+04  0.93810275954E+02 0.  0.
         23    2    4    4    0    0  0.37710948127E+03  0.79258224846E+02  0.35724435270E+03  0.53313375840E+03  0.90081350637E+02 0.  0.
          2    1    3    3  502    0 -0.11192629502E+03  0.22532998463E+03  0.32693351323E+03  0.41253680995E+03  0.00000000000E+00 0. -1.
         -1    1    3    3    0  502 -0.10603207001E+03  0.18840034133E+03  0.14519560571E+03  0.26042129791E+03  0.00000000000E+00 0.  1.
         13    1    5    5    0    0 -0.66583276513E+02 -0.34870362806E+03  0.93075113102E+03  0.99615521925E+03  0.00000000000E+00 0. -1.
        -13    1    5    5    0    0 -0.92567839726E+02 -0.14428492275E+03  0.46174019246E+03  0.49253522637E+03  0.00000000000E+00 0.  1.
          2    1    6    6  503    0  0.11756248405E+03  0.48840409290E+02  0.71886881739E+02  0.14619865595E+03  0.00000000000E+00 0. -1.
         -2    1    6    6    0  503  0.25954699723E+03  0.30417815556E+02  0.28535747096E+03  0.38693510245E+03  0.00000000000E+00 0.  1.
<mgrwt>
<rscale>  0 0.15248503E+04</rscale>
<asrwt>0</asrwt>
<pdfrwt beam="1">  1        4 0.37820360E+00 0.15248503E+04</pdfrwt>
<pdfrwt beam="2">  1       -3 0.36378272E-01 0.15248503E+04</pdfrwt>
<totfact> 0.16089574E-01</totfact>
</mgrwt>
</event>
<event>
12    7  0.2492439E-007  0.1381100E+04  0.7818608E-02  0.8967614E-01
         -1   -1    0    0    0  501 -0.00000000000E+00  0.00000000000E+00  0.11223372334E+04  0.11223372334E+04  0.00000000000E+00 0.  1.
          2   -1    0    0  501    0  0.00000000000E+00 -0.00000000000E+00 -0.42488038648E+03  0.42488038648E+03  0.00000000000E+00 0. -1.
         24    2    1    2    0    0 -0.27526369173E+03 -0.26057119509E+03  0.93952948852E+02  0.39862024464E+03  0.80021841680E+02 0.  0.
        254    2    1    2    0    0  0.27526369173E+03  0.26057119509E+03  0.60350389808E+03  0.11485973753E+04  0.90077273924E+03 0.  0.
         23    2    4    4    0    0  0.43038985020E+03 -0.21654312619E+02 -0.20085938500E+02  0.44085921096E+03  0.90824372054E+02 0.  0.
         23    2    4    4    0    0 -0.15512615847E+03  0.28222550771E+03  0.62358983658E+03  0.70773816430E+03  0.91179288599E+02 0.  0.
          4    1    3    3  502    0 -0.11043740112E+03 -0.70135394742E+02  0.30619688393E+01  0.13086163997E+03  0.00000000000E+00 0. -1.
         -3    1    3    3    0  502 -0.16482629061E+03 -0.19043580035E+03  0.90890980013E+02  0.26775860468E+03  0.00000000000E+00 0.  1.
         13    1    5    5    0    0 -0.35806505198E+01  0.13950823345E+01 -0.46099243491E+01  0.60015594115E+01  0.00000000000E+00 0. -1.
        -13    1    5    5    0    0  0.43397050072E+03 -0.23049394953E+02 -0.15476014151E+02  0.43485765155E+03  0.00000000000E+00 0.  1.
          2    1    6    6  503    0 -0.75259917094E+02  0.68758869389E+02  0.14053785711E+03  0.17361660785E+03  0.00000000000E+00 0. -1.
         -2    1    6    6    0  503 -0.79866241376E+02  0.21346663832E+03  0.48305197947E+03  0.53412155645E+03  0.00000000000E+00 0.  1.
<mgrwt>
<rscale>  0 0.13810997E+04</rscale>
<asrwt>0</asrwt>
<pdfrwt beam="1">  1        2 0.65366214E-01 0.13810997E+04</pdfrwt>
<pdfrwt beam="2">  1       -1 0.17266727E+00 0.13810997E+04</pdfrwt>
<totfact> 0.19475760E+01</totfact>
</mgrwt>
</event>
<event>
12    7  0.2492439E-007  0.2470973E+04  0.7818608E-02  0.8413400E-01
         -1   -1    0    0    0  501 -0.00000000000E+00  0.00000000000E+00  0.72321205244E+03  0.72321205244E+03  0.00000000000E+00 0.  1.
          2   -1    0    0  501    0  0.00000000000E+00 -0.00000000000E+00 -0.21106210627E+04  0.21106210627E+04  0.00000000000E+00 0. -1.
         24    2    1    2    0    0 -0.10366678283E+04  0.18368725789E+03 -0.38260234295E+03  0.11230189250E+04  0.79785701875E+02 0.  0.
        254    2    1    2    0    0  0.10366678283E+04 -0.18368725789E+03 -0.10048066673E+04  0.17108141901E+04  0.89934840827E+03 0.  0.
         23    2    4    4    0    0  0.89272527166E+03  0.53739877358E+02 -0.10836102213E+04  0.14080361743E+04  0.92240832510E+02 0.  0.
         23    2    4    4    0    0  0.14394255664E+03 -0.23742713525E+03  0.78803554008E+02  0.30277801586E+03  0.91506407412E+02 0.  0.
          2    1    3    3  502    0 -0.46197249284E+03  0.77873680226E+02 -0.21233574223E+03  0.51436306404E+03  0.00000000000E+00 0. -1.
         -1    1    3    3    0  502 -0.57469533546E+03  0.10581357766E+03 -0.17026660071E+03  0.60865586100E+03  0.00000000000E+00 0.  1.
         13    1    5    5    0    0  0.30959195596E+03  0.27821546840E+02 -0.31089366415E+03  0.43963176417E+03  0.00000000000E+00 0.  1.
        -13    1    5    5    0    0  0.58313331570E+03  0.25918330518E+02 -0.77271655718E+03  0.96840441009E+03  0.00000000000E+00 0. -1.
          4    1    6    6  503    0 -0.12173279587E+02 -0.31513281727E+02  0.12311821592E+02  0.35956315329E+02  0.00000000000E+00 0. -1.
         -4    1    6    6    0  503  0.15611583623E+03 -0.20591385352E+03  0.66491732417E+02  0.26682170053E+03  0.00000000000E+00 0.  1.
<mgrwt>
<rscale>  0 0.24709728E+04</rscale>
<asrwt>0</asrwt>
<pdfrwt beam="1">  1        2 0.32471093E+00 0.24709728E+04</pdfrwt>
<pdfrwt beam="2">  1       -1 0.11126339E+00 0.24709728E+04</pdfrwt>
<totfact> 0.43786028E+00</totfact>
</mgrwt>
</event>
<event>
12    7  0.2492439E-007  0.3334469E+04  0.7818608E-02  0.8154180E-01
          2   -1    0    0  501    0  0.00000000000E+00  0.00000000000E+00  0.36834871173E+04  0.36834871173E+04  0.00000000000E+00 0. -1.
         -1   -1    0    0    0  501 -0.00000000000E+00 -0.00000000000E+00 -0.75463007162E+03  0.75463007162E+03  0.00000000000E+00 0.  1.
         24    2    1    2    0    0 -0.98049672115E+03  0.10575545056E+04  0.61971139816E+03  0.15716741312E+04  0.79511038491E+02 0.  0.
        254    2    1    2    0    0  0.98049672115E+03 -0.10575545056E+04  0.23091456476E+04  0.28664430578E+04  0.89696534456E+03 0.  0.
         23    2    4    4    0    0  0.38631718806E+03 -0.17922175857E+03  0.14020015591E+04  0.14680180773E+04  0.90040518898E+02 0.  0.
         23    2    4    4    0    0  0.59417953309E+03 -0.87833274698E+03  0.90714408848E+03  0.13984249805E+04  0.90356498282E+02 0.  0.
          4    1    3    3  502    0 -0.13923184034E+03  0.12279815677E+03  0.59361125383E+02  0.19490673636E+03  0.00000000000E+00 0. -1.
         -3    1    3    3    0  502 -0.84126488081E+03  0.93475634878E+03  0.56035027277E+03  0.13767673948E+04  0.00000000000E+00 0.  1.
         13    1    5    5    0    0  0.27024586975E+03 -0.78119959516E+02  0.91571500652E+03  0.95795069360E+03  0.00000000000E+00 0.  1.
        -13    1    5    5    0    0  0.11607131831E+03 -0.10110179906E+03  0.48628655256E+03  0.51006738369E+03  0.00000000000E+00 0. -1.
          3    1    6    6  503    0  0.39200566774E+02 -0.73040691057E+02  0.43211411815E+02  0.93481832976E+02  0.00000000000E+00 0. -1.
         -3    1    6    6    0  503  0.55497896632E+03 -0.80529205592E+03  0.86393267666E+03  0.13049431475E+04  0.00000000000E+00 0.  1.
<mgrwt>
<rscale>  0 0.33344686E+04</rscale>
<asrwt>0</asrwt>
<pdfrwt beam="1">  1        2 0.56669031E+00 0.33344686E+04</pdfrwt>
<pdfrwt beam="2">  1       -1 0.11609694E+00 0.33344686E+04</pdfrwt>
<totfact> 0.38016195E-01</totfact>
</mgrwt>
</event>
<event>
12    7  0.2492439E-007  0.2090000E+04  0.7818608E-02  0.8565661E-01
         -1   -1    0    0    0  501 -0.00000000000E+00  0.00000000000E+00  0.53261293361E+03  0.53261293361E+03  0.00000000000E+00 0.  1.
          2   -1    0    0  501    0  0.00000000000E+00 -0.00000000000E+00 -0.20503169122E+04  0.20503169122E+04  0.00000000000E+00 0. -1.
         24    2    1    2    0    0 -0.70723629332E+03 -0.43427771450E+03 -0.37883757340E+03  0.91573250864E+03  0.79169517199E+02 0.  0.
        254    2    1    2    0    0  0.70723629332E+03  0.43427771450E+03 -0.11388664052E+04  0.16671973372E+04  0.89092646406E+03 0.  0.
         23    2    4    4    0    0  0.77139848622E+03  0.48175770188E+03 -0.55171730133E+03  0.10676901994E+04  0.91783841021E+02 0.  0.
         23    2    4    4    0    0 -0.64162192904E+02 -0.47479987381E+02 -0.58714910387E+03  0.59950713778E+03  0.91069214747E+02 0.  0.
          2    1    3    3  502    0 -0.35530277930E+03 -0.22706906906E+03 -0.23508832047E+03  0.48277007522E+03  0.00000000000E+00 0. -1.
         -1    1    3    3    0  502 -0.35193351402E+03 -0.20720864544E+03 -0.14374925293E+03  0.43296243342E+03  0.00000000000E+00 0.  1.
         13    1    5    5    0    0  0.39323500494E+03  0.29794209814E+03 -0.31066884445E+03  0.58302520860E+03  0.00000000000E+00 0. -1.
        -13    1    5    5    0    0  0.37816348129E+03  0.18381560373E+03 -0.24104845689E+03  0.48466499082E+03  0.00000000000E+00 0.  1.
          1    1    6    6  503    0 -0.72634308838E+02 -0.67058212702E+02 -0.45193662828E+03  0.46262215975E+03  0.00000000000E+00 0. -1.
         -1    1    6    6    0  503  0.84721159345E+01  0.19578225320E+02 -0.13521247559E+03  0.13688497803E+03  0.00000000000E+00 0.  1.
<mgrwt>
<rscale>  0 0.20900003E+04</rscale>
<asrwt>0</asrwt>
<pdfrwt beam="1">  1        2 0.31543337E+00 0.20900003E+04</pdfrwt>
<pdfrwt beam="2">  1       -1 0.81940451E-01 0.20900003E+04</pdfrwt>
<totfact> 0.97447258E+00</totfact>
</mgrwt>
</event>
<event>
12    7  0.2492439E-007  0.2528182E+04  0.7818608E-02  0.8393014E-01
         -1   -1    0    0    0  501 -0.00000000000E+00  0.00000000000E+00  0.53807924088E+03  0.53807924088E+03  0.00000000000E+00 0.  1.
          2   -1    0    0  501    0  0.00000000000E+00 -0.00000000000E+00 -0.29696864992E+04  0.29696864992E+04  0.00000000000E+00 0. -1.
         24    2    1    2    0    0 -0.48393736090E+03 -0.88059355043E+03 -0.16571370956E+04  0.19396073656E+04  0.79580202323E+02 0.  0.
        254    2    1    2    0    0  0.48393736090E+03  0.88059355043E+03 -0.77447016267E+03  0.15681583745E+04  0.92177886948E+03 0.  0.
         23    2    4    4    0    0  0.52156318687E+03  0.55879816212E+02 -0.31462355270E+03  0.61843757828E+03  0.91248816762E+02 0.  0.
         23    2    4    4    0    0 -0.37625825970E+02  0.82471373422E+03 -0.45984660997E+03  0.94972079619E+03  0.94563416915E+02 0.  0.
          2    1    3    3  502    0 -0.11703380662E+03 -0.21306042980E+03 -0.46922226575E+03  0.52845169440E+03  0.00000000000E+00 0. -1.
         -1    1    3    3    0  502 -0.36690355428E+03 -0.66753312063E+03 -0.11879148299E+04  0.14111556712E+04  0.00000000000E+00 0.  1.
         13    1    5    5    0    0  0.33284544606E+03 -0.67176708810E+01 -0.18171658235E+03  0.37927843910E+03  0.00000000000E+00 0. -1.
        -13    1    5    5    0    0  0.18871774081E+03  0.62597487093E+02 -0.13290697035E+03  0.23915913918E+03  0.00000000000E+00 0.  1.
          2    1    6    6  503    0 -0.16576392443E+01  0.71923797972E+03 -0.38948485780E+03  0.81792693665E+03  0.00000000000E+00 0. -1.
         -2    1    6    6    0  503 -0.35968186726E+02  0.10547575450E+03 -0.70361752170E+02  0.13179385954E+03  0.00000000000E+00 0.  1.
<mgrwt>
<rscale>  0 0.25281825E+04</rscale>
<asrwt>0</asrwt>
<pdfrwt beam="1">  1        2 0.45687485E+00 0.25281825E+04</pdfrwt>
<pdfrwt beam="2">  1       -1 0.82781421E-01 0.25281825E+04</pdfrwt>
<totfact> 0.26682567E+00</totfact>
</mgrwt>
</event>
<event>
12    7  0.2492439E-007  0.2083010E+04  0.7818608E-02  0.8568765E-01
          2   -1    0    0  501    0  0.00000000000E+00  0.00000000000E+00  0.95421615176E+03  0.95421615176E+03  0.00000000000E+00 0. -1.
         -1   -1    0    0    0  501 -0.00000000000E+00 -0.00000000000E+00 -0.11367790228E+04  0.11367790228E+04  0.00000000000E+00 0.  1.
         24    2    1    2    0    0  0.60485107784E+03 -0.27881949566E+03 -0.59625952405E+03  0.89758982434E+03  0.80974904834E+02 0.  0.
        254    2    1    2    0    0 -0.60485107784E+03  0.27881949566E+03  0.41369665296E+03  0.11934053503E+04  0.89971455019E+03 0.  0.
         23    2    4    4    0    0  0.16346197676E+03 -0.12517554057E+03 -0.27216253829E+01  0.22617840336E+03  0.93597698138E+02 0.  0.
         23    2    4    4    0    0 -0.76831305461E+03  0.40399503623E+03  0.41641827835E+03  0.96722694690E+03  0.92773083920E+02 0.  0.
          2    1    3    3  502    0  0.83580375442E+02 -0.42641429928E+02 -0.49417726318E+02  0.10604754773E+03  0.00000000000E+00 0. -1.
         -1    1    3    3    0  502  0.52127070240E+03 -0.23617806573E+03 -0.54684179773E+03  0.79154227661E+03  0.00000000000E+00 0.  1.
         13    1    5    5    0    0  0.16481458940E+03 -0.13646916734E+03 -0.68173303081E+01  0.21408913682E+03  0.00000000000E+00 0. -1.
        -13    1    5    5    0    0 -0.13526126437E+01  0.11293626764E+02  0.40957049253E+01  0.12089266532E+02  0.00000000000E+00 0.  1.
          4    1    6    6  503    0 -0.66665969592E+03  0.36466668228E+03  0.39399175586E+03  0.85594768707E+03  0.00000000000E+00 0. -1.
         -4    1    6    6    0  503 -0.10165335869E+03  0.39328353953E+02  0.22426522487E+02  0.11127925983E+03  0.00000000000E+00 0.  1.
<mgrwt>
<rscale>  0 0.20830102E+04</rscale>
<asrwt>0</asrwt>
<pdfrwt beam="1">  1        2 0.14680248E+00 0.20830102E+04</pdfrwt>
<pdfrwt beam="2">  1       -1 0.17488908E+00 0.20830102E+04</pdfrwt>
<totfact> 0.64352740E+00</totfact>
</mgrwt>
</event>
<event>
12    7  0.2492439E-007  0.3585369E+04  0.7818608E-02  0.8093851E-01
          2   -1    0    0  501    0  0.00000000000E+00  0.00000000000E+00  0.39134488616E+04  0.39134488616E+04  0.00000000000E+00 0. -1.
         -1   -1    0    0    0  501 -0.00000000000E+00 -0.00000000000E+00 -0.82119851837E+03  0.82119851837E+03  0.00000000000E+00 0.  1.
         24    2    1    2    0    0  0.10329534393E+04  0.11486667249E+04  0.58359250092E+03  0.16533299269E+04  0.80570388533E+02 0.  0.
        254    2    1    2    0    0 -0.10329534393E+04 -0.11486667249E+04  0.25086578424E+04  0.30813174531E+04  0.90262119630E+03 0.  0.
         23    2    4    4    0    0 -0.68909852514E+03 -0.18913105865E+03  0.13876898473E+04  0.15634785797E+04  0.90304054143E+02 0.  0.
         23    2    4    4    0    0 -0.34385491418E+03 -0.95953566622E+03  0.11209679951E+04  0.15178388734E+04  0.91217886644E+02 0.  0.
          2    1    3    3  502    0  0.35818421989E+03  0.34987713688E+03  0.20966391547E+03  0.54283414017E+03  0.00000000000E+00 0. -1.
         -1    1    3    3    0  502  0.67476921943E+03  0.79878958799E+03  0.37392858545E+03  0.11104957868E+04  0.00000000000E+00 0.  1.
         13    1    5    5    0    0 -0.34598760530E+03 -0.69772679972E+02  0.60134375792E+03  0.69727323560E+03  0.00000000000E+00 0. -1.
        -13    1    5    5    0    0 -0.34311091984E+03 -0.11935837868E+03  0.78634608937E+03  0.86620534410E+03  0.00000000000E+00 0.  1.
          3    1    6    6  503    0 -0.14757786980E+03 -0.42486105330E+03  0.56199324841E+03  0.71980730305E+03  0.00000000000E+00 0. -1.
         -3    1    6    6    0  503 -0.19627704438E+03 -0.53467461293E+03  0.55897474665E+03  0.79803157034E+03  0.00000000000E+00 0.  1.
<mgrwt>
<rscale>  0 0.35853694E+04</rscale>
<asrwt>0</asrwt>
<pdfrwt beam="1">  1        2 0.60206904E+00 0.35853694E+04</pdfrwt>
<pdfrwt beam="2">  1       -1 0.12633824E+00 0.35853694E+04</pdfrwt>
<totfact> 0.20191199E-01</totfact>
</mgrwt>
</event>
<event>
12    7  0.2492439E-007  0.1412730E+04  0.7818608E-02  0.8944655E-01
         -1   -1    0    0    0  501 -0.00000000000E+00  0.00000000000E+00  0.23222845730E+03  0.23222845730E+03  0.00000000000E+00 0.  1.
          2   -1    0    0  501    0  0.00000000000E+00 -0.00000000000E+00 -0.21485381772E+04  0.21485381772E+04  0.00000000000E+00 0. -1.
         24    2    1    2    0    0 -0.18589689047E+03  0.36617441943E+03 -0.66923615797E+03  0.78891159845E+03  0.76570984745E+02 0.  0.
        254    2    1    2    0    0  0.18589689047E+03 -0.36617441943E+03 -0.12470735620E+04  0.15918550361E+04  0.90009367714E+03 0.  0.
         23    2    4    4    0    0  0.46373457871E+03 -0.24302999827E+02 -0.92483957556E+03  0.10387666471E+04  0.89819325675E+02 0.  0.
         23    2    4    4    0    0 -0.27783768824E+03 -0.34187141960E+03 -0.32223398641E+03  0.55308838901E+03  0.89454879763E+02 0.  0.
          4    1    3    3  502    0 -0.65387119321E+02  0.15766189522E+03 -0.34612849004E+03  0.38592444882E+03  0.00000000000E+00 0. -1.
         -3    1    3    3    0  502 -0.12050977115E+03  0.20851252421E+03 -0.32310766793E+03  0.40298714963E+03  0.00000000000E+00 0.  1.
         13    1    5    5    0    0  0.46175575981E+03 -0.24805063499E+02 -0.92691241283E+03  0.10358572749E+04  0.00000000000E+00 0. -1.
        -13    1    5    5    0    0  0.19788188993E+01  0.50206367185E+00  0.20728372678E+01  0.29093721841E+01  0.00000000000E+00 0.  1.
          1    1    6    6  503    0 -0.28053421168E+03 -0.34150762041E+03 -0.30823664106E+03  0.53882903189E+03  0.00000000000E+00 0. -1.
         -1    1    6    6    0  503  0.26965234425E+01 -0.36379919575E+00 -0.13997345350E+02  0.14259357117E+02  0.00000000000E+00 0.  1.
<mgrwt>
<rscale>  0 0.14127303E+04</rscale>
<asrwt>0</asrwt>
<pdfrwt beam="1">  1        2 0.33054434E+00 0.14127303E+04</pdfrwt>
<pdfrwt beam="2">  1       -1 0.35727454E-01 0.14127303E+04</pdfrwt>
<totfact> 0.45771018E+01</totfact>
</mgrwt>
</event>
<event>
12    7  0.2492439E-007  0.3568409E+04  0.7818608E-02  0.8097767E-01
          2   -1    0    0  501    0  0.00000000000E+00  0.00000000000E+00  0.27719120926E+04  0.27719120926E+04  0.00000000000E+00 0. -1.
         -1   -1    0    0    0  501 -0.00000000000E+00 -0.00000000000E+00 -0.11484437136E+04  0.11484437136E+04  0.00000000000E+00 0.  1.
         24    2    1    2    0    0 -0.16193360307E+04  0.28166566820E+03  0.10830417039E+04  0.19700423461E+04  0.80639843353E+02 0.  0.
        254    2    1    2    0    0  0.16193360307E+04 -0.28166566820E+03  0.54042667507E+03  0.19503134600E+04  0.90004270582E+03 0.  0.
         23    2    4    4    0    0  0.13734915183E+04  0.12250066349E+03  0.48676573668E+03  0.14652985691E+04  0.93132437721E+02 0.  0.
         23    2    4    4    0    0  0.24584451237E+03 -0.40416633169E+03  0.53660938391E+02  0.48501489085E+03  0.92574295079E+02 0.  0.
          2    1    3    3  502    0 -0.88728563192E+02  0.32590627267E+02  0.72045615254E+02  0.11885065246E+03  0.00000000000E+00 0. -1.
         -1    1    3    3    0  502 -0.15306074675E+04  0.24907504093E+03  0.10109960887E+04  0.18511916937E+04  0.00000000000E+00 0.  1.
         13    1    5    5    0    0  0.88409145465E+03  0.11795115869E+03  0.29131058704E+03  0.93829208360E+03  0.00000000000E+00 0. -1.
        -13    1    5    5    0    0  0.48940006364E+03  0.45495047994E+01  0.19545514964E+03  0.52700648555E+03  0.00000000000E+00 0.  1.
          2    1    6    6  503    0  0.13939688862E+03 -0.23571247636E+03 -0.14980013226E+02  0.27425583835E+03  0.00000000000E+00 0.  1.
         -2    1    6    6    0  503  0.10644762374E+03 -0.16845385533E+03  0.68640951618E+02  0.21075905251E+03  0.00000000000E+00 0. -1.
<mgrwt>
<rscale>  0 0.35684086E+04</rscale>
<asrwt>0</asrwt>
<pdfrwt beam="1">  1        2 0.42644801E+00 0.35684086E+04</pdfrwt>
<pdfrwt beam="2">  1       -1 0.17668365E+00 0.35684086E+04</pdfrwt>
<totfact> 0.49064059E-01</totfact>
</mgrwt>
</event>
<event>
12    7  0.2492439E-007  0.1481022E+04  0.7818608E-02  0.8897172E-01
          2   -1    0    0  501    0  0.00000000000E+00  0.00000000000E+00  0.64074775810E+03  0.64074775810E+03  0.00000000000E+00 0. -1.
         -1   -1    0    0    0  501 -0.00000000000E+00 -0.00000000000E+00 -0.85580663968E+03  0.85580663968E+03  0.00000000000E+00 0.  1.
         24    2    1    2    0    0 -0.15376065735E+02  0.35897559495E+03 -0.36824589700E+03  0.52024021308E+03  0.77103420655E+02 0.  0.
        254    2    1    2    0    0  0.15376065735E+02 -0.35897559495E+03  0.15318701542E+03  0.97631418470E+03  0.89477551620E+03 0.  0.
         23    2    4    4    0    0 -0.21011647261E+03 -0.44676628730E+03  0.38220120936E+03  0.63084392276E+03  0.90206667823E+02 0.  0.
         23    2    4    4    0    0  0.22549253835E+03  0.87790692349E+02 -0.22901419394E+03  0.34547026194E+03  0.91367994102E+02 0.  0.
          4    1    3    3  502    0 -0.24063345978E+02  0.14070938096E+03 -0.99944450256E+02  0.17426149215E+03  0.00000000000E+00 0. -1.
         -3    1    3    3    0  502  0.86872802437E+01  0.21826621399E+03 -0.26830144675E+03  0.34597872092E+03  0.00000000000E+00 0.  1.
         13    1    5    5    0    0 -0.10656117903E+03 -0.12709447066E+03  0.12614467814E+03  0.20837650820E+03  0.00000000000E+00 0. -1.
        -13    1    5    5    0    0 -0.10355529358E+03 -0.31967181664E+03  0.25605653122E+03  0.42246741456E+03  0.00000000000E+00 0.  1.
          3    1    6    6  503    0  0.12192367646E+03 -0.12092915013E+01 -0.10180209533E+03  0.15884115298E+03  0.00000000000E+00 0. -1.
         -3    1    6    6    0  503  0.10356886189E+03  0.88999983850E+02 -0.12721209860E+03  0.18662910896E+03  0.00000000000E+00 0.  1.
<mgrwt>
<rscale>  0 0.14810215E+04</rscale>
<asrwt>0</asrwt>
<pdfrwt beam="1">  1        2 0.98576579E-01 0.14810215E+04</pdfrwt>
<pdfrwt beam="2">  1       -1 0.13166256E+00 0.14810215E+04</pdfrwt>
<totfact> 0.24849266E+01</totfact>
</mgrwt>
</event>
<event>
12    7  0.2492439E-007  0.2943214E+04  0.7818608E-02  0.8260135E-01
          2   -1    0    0  501    0  0.00000000000E+00  0.00000000000E+00  0.17240142473E+04  0.17240142473E+04  0.00000000000E+00 0. -1.
         -1   -1    0    0    0  501 -0.00000000000E+00 -0.00000000000E+00 -0.12561538233E+04  0.12561538233E+04  0.00000000000E+00 0.  1.
         24    2    1    2    0    0 -0.10843549695E+04  0.43583996182E+03 -0.43624281223E+03  0.12500318380E+04  0.80558255922E+02 0.  0.
        254    2    1    2    0    0  0.10843549695E+04 -0.43583996182E+03  0.90410323622E+03  0.17301362325E+04  0.90010363244E+03 0.  0.
         23    2    4    4    0    0  0.34068032601E+03 -0.58152399106E+03  0.24928395459E+03  0.72450878890E+03  0.92397286006E+02 0.  0.
         23    2    4    4    0    0  0.74367464354E+03  0.14568402924E+03  0.65481928162E+03  0.10056274436E+04  0.90677737177E+02 0.  0.
          2    1    3    3  502    0 -0.90121593611E+03  0.33650665711E+03 -0.37910027502E+03  0.10339941549E+04  0.00000000000E+00 0. -1.
         -1    1    3    3    0  502 -0.18313903343E+03  0.99333304715E+02 -0.57142537208E+02  0.21603768317E+03  0.00000000000E+00 0.  1.
         13    1    5    5    0    0  0.52053951541E+02 -0.37564225177E+02  0.29806452069E+02  0.70775062480E+02  0.00000000000E+00 0.  1.
        -13    1    5    5    0    0  0.28862637446E+03 -0.54395976588E+03  0.21947750253E+03  0.65373372642E+03  0.00000000000E+00 0. -1.
          3    1    6    6  503    0  0.42233695502E+03  0.63311532279E+02  0.42175301666E+03  0.60021034709E+03  0.00000000000E+00 0. -1.
         -3    1    6    6    0  503  0.32133768852E+03  0.82372496958E+02  0.23306626496E+03  0.40541709656E+03  0.00000000000E+00 0.  1.
<mgrwt>
<rscale>  0 0.29432139E+04</rscale>
<asrwt>0</asrwt>
<pdfrwt beam="1">  1        2 0.26523296E+00 0.29432139E+04</pdfrwt>
<pdfrwt beam="2">  1       -1 0.19325444E+00 0.29432139E+04</pdfrwt>
<totfact> 0.15607216E+00</totfact>
</mgrwt>
</event>
<event>
12    7  0.2492439E-007  0.2040154E+04  0.7818608E-02  0.8588074E-01
          2   -1    0    0  501    0  0.00000000000E+00  0.00000000000E+00  0.21356582902E+04  0.21356582902E+04  0.00000000000E+00 0. -1.
         -1   -1    0    0    0  501 -0.00000000000E+00 -0.00000000000E+00 -0.48723010929E+03  0.48723010929E+03  0.00000000000E+00 0.  1.
         24    2    1    2    0    0  0.71103069555E+03 -0.34817737694E+03  0.41545438194E+03  0.89836855513E+03  0.87587564999E+02 0.  0.
        254    2    1    2    0    0 -0.71103069555E+03  0.34817737694E+03  0.12329737989E+04  0.17245198443E+04  0.90936910481E+03 0.  0.
         23    2    4    4    0    0 -0.82224076260E+03  0.48402565959E+03  0.79950370830E+03  0.12482391774E+04  0.92380482993E+02 0.  0.
         23    2    4    4    0    0  0.11121006705E+03 -0.13584828265E+03  0.43347009064E+03  0.47628066691E+03  0.90136115290E+02 0.  0.
          4    1    3    3  502    0  0.37945082456E+03 -0.15420441175E+03  0.25191824595E+03  0.48085832790E+03  0.00000000000E+00 0. -1.
         -3    1    3    3    0  502  0.33157987099E+03 -0.19397296519E+03  0.16353613599E+03  0.41751022723E+03  0.00000000000E+00 0.  1.
         13    1    5    5    0    0 -0.14952413877E+03  0.48613955217E+02  0.12744999495E+03  0.20239635849E+03  0.00000000000E+00 0.  1.
        -13    1    5    5    0    0 -0.67271662383E+03  0.43541170437E+03  0.67205371335E+03  0.10458428189E+04  0.00000000000E+00 0. -1.
          3    1    6    6  503    0  0.39666947666E+02 -0.11104680528E+03  0.30710826614E+03  0.32896861071E+03  0.00000000000E+00 0. -1.
         -3    1    6    6    0  503  0.71543119383E+02 -0.24801477368E+02  0.12636182450E+03  0.14731205620E+03  0.00000000000E+00 0.  1.
<mgrwt>
<rscale>  0 0.20401539E+04</rscale>
<asrwt>0</asrwt>
<pdfrwt beam="1">  1        2 0.32856281E+00 0.20401539E+04</pdfrwt>
<pdfrwt beam="2">  1       -1 0.74958480E-01 0.20401539E+04</pdfrwt>
<totfact> 0.10589519E+01</totfact>
</mgrwt>
</event>
<event>
12    7  0.2492439E-007  0.2909872E+04  0.7818608E-02  0.8269946E-01
          2   -1    0    0  501    0  0.00000000000E+00  0.00000000000E+00  0.12764135174E+04  0.12764135174E+04  0.00000000000E+00 0. -1.
         -1   -1    0    0    0  501 -0.00000000000E+00 -0.00000000000E+00 -0.16584268771E+04  0.16584268771E+04  0.00000000000E+00 0.  1.
         24    2    1    2    0    0  0.53315290967E+02 -0.37738626559E+03 -0.14413673355E+04  0.14930842868E+04  0.80610037296E+02 0.  0.
        254    2    1    2    0    0 -0.53315290967E+02  0.37738626559E+03  0.10593539758E+04  0.14417561076E+04  0.90064805233E+03 0.  0.
         23    2    4    4    0    0  0.17614756333E+02  0.58703079670E+03  0.10456843307E+04  0.12027287755E+04  0.90472934985E+02 0.  0.
         23    2    4    4    0    0 -0.70930047300E+02 -0.20964453111E+03  0.13669645091E+02  0.23902733216E+03  0.89248559016E+02 0.  0.
          4    1    3    3  502    0  0.13015906021E+02 -0.35239450405E+01 -0.45595625601E+02  0.47547797763E+02  0.00000000000E+00 0. -1.
         -3    1    3    3    0  502  0.40299384946E+02 -0.37386232055E+03 -0.13957717099E+04  0.14455364891E+04  0.00000000000E+00 0.  1.
         13    1    5    5    0    0  0.51337476167E+02  0.41643786587E+03  0.76604378395E+03  0.87342951147E+03  0.00000000000E+00 0. -1.
        -13    1    5    5    0    0 -0.33722719835E+02  0.17059293084E+03  0.27964054677E+03  0.32929926401E+03  0.00000000000E+00 0.  1.
          2    1    6    6  503    0 -0.35283270338E+02 -0.39202866555E+02  0.35438319113E+02  0.63542492660E+02  0.00000000000E+00 0. -1.
         -2    1    6    6    0  503 -0.35646776961E+02 -0.17044166456E+03 -0.21768674022E+02  0.17548483950E+03  0.00000000000E+00 0.  1.
<mgrwt>
<rscale>  0 0.29098718E+04</rscale>
<asrwt>0</asrwt>
<pdfrwt beam="1">  1        2 0.19637131E+00 0.29098718E+04</pdfrwt>
<pdfrwt beam="2">  1       -1 0.25514260E+00 0.29098718E+04</pdfrwt>
<totfact> 0.10818507E+00</totfact>
</mgrwt>
</event>
<event>
12    7  0.2492439E-007  0.1262442E+04  0.7818608E-02  0.9059891E-01
          2   -1    0    0  501    0  0.00000000000E+00  0.00000000000E+00  0.33280173273E+04  0.33280173273E+04  0.00000000000E+00 0. -1.
         -1   -1    0    0    0  501 -0.00000000000E+00 -0.00000000000E+00 -0.11972284788E+03  0.11972284788E+03  0.00000000000E+00 0.  1.
         24    2    1    2    0    0  0.13930424195E+03 -0.26179911875E+03  0.60511464784E+03  0.67875331044E+03  0.81227267579E+02 0.  0.
        254    2    1    2    0    0 -0.13930424195E+03  0.26179911875E+03  0.26031798315E+04  0.27689868647E+04  0.89599027403E+03 0.  0.
         23    2    4    4    0    0  0.96236901396E+02  0.38174282298E+03  0.47932946420E+03  0.62684868325E+03  0.90517469906E+02 0.  0.
         23    2    4    4    0    0 -0.23554114335E+03 -0.11994370423E+03  0.21238503673E+04  0.21421381814E+04  0.90274487997E+02 0.  0.
          4    1    3    3  502    0  0.12501399783E+03 -0.26366489081E+03  0.58765320806E+03  0.65611277021E+03  0.00000000000E+00 0. -1.
         -3    1    3    3    0  502  0.14290244126E+02  0.18657720534E+01  0.17461439783E+02  0.22640540229E+02  0.00000000000E+00 0.  1.
         13    1    5    5    0    0  0.34538109255E+02  0.24963400967E+03  0.35424255904E+03  0.43473878411E+03  0.00000000000E+00 0. -1.
        -13    1    5    5    0    0  0.61698792141E+02  0.13210881331E+03  0.12508690516E+03  0.19210989914E+03  0.00000000000E+00 0.  1.
          1    1    6    6  503    0 -0.11881885890E+03 -0.10939120930E+03  0.12997463265E+04  0.13097422919E+04  0.00000000000E+00 0. -1.
         -1    1    6    6    0  503 -0.11672228445E+03 -0.10552494930E+02  0.82410404079E+03  0.83239588952E+03  0.00000000000E+00 0.  1.
<mgrwt>
<rscale>  0 0.12624416E+04</rscale>
<asrwt>0</asrwt>
<pdfrwt beam="1">  1        2 0.51200260E+00 0.12624416E+04</pdfrwt>
<pdfrwt beam="2">  1       -1 0.18418902E-01 0.12624416E+04</pdfrwt>
<totfact> 0.28548946E+01</totfact>
</mgrwt>
</event>
<event>
12    7  0.2492439E-007  0.2061038E+04  0.7818608E-02  0.8578603E-01
          2   -1    0    0  501    0  0.00000000000E+00  0.00000000000E+00  0.17283536046E+04  0.17283536046E+04  0.00000000000E+00 0. -1.
         -1   -1    0    0    0  501 -0.00000000000E+00 -0.00000000000E+00 -0.61443978213E+03  0.61443978213E+03  0.00000000000E+00 0.  1.
         24    2    1    2    0    0 -0.45822818081E+03 -0.41163756882E+03  0.10869053312E+04  0.12518663303E+04  0.79922188103E+02 0.  0.
        254    2    1    2    0    0  0.45822818081E+03  0.41163756882E+03  0.27008491285E+02  0.10909270565E+04  0.89998546109E+03 0.  0.
         23    2    4    4    0    0  0.36263813009E+03  0.59232558846E+03 -0.24321011479E+03  0.74142032217E+03  0.90536832558E+02 0.  0.
         23    2    4    4    0    0  0.95590050718E+02 -0.18068801964E+03  0.27021860607E+03  0.34950673429E+03  0.85739395915E+02 0.  0.
          2    1    3    3  502    0 -0.37560771534E+03 -0.29431986119E+03  0.85545605323E+03  0.97954601501E+03  0.00000000000E+00 0. -1.
         -1    1    3    3    0  502 -0.82620465474E+02 -0.11731770763E+03  0.23144927800E+03  0.27232031529E+03  0.00000000000E+00 0.  1.
         13    1    5    5    0    0  0.31063461087E+03  0.43378638011E+03 -0.18409047791E+03  0.56440569549E+03  0.00000000000E+00 0. -1.
        -13    1    5    5    0    0  0.52003519224E+02  0.15853920835E+03 -0.59119636877E+02  0.17701462668E+03  0.00000000000E+00 0.  1.
          1    1    6    6  503    0  0.42605503150E+02 -0.86322229430E+02  0.19574454128E+03  0.21813454938E+03  0.00000000000E+00 0. -1.
         -1    1    6    6    0  503  0.52984547568E+02 -0.94365790208E+02  0.74474064797E+02  0.13137218492E+03  0.00000000000E+00 0.  1.
<mgrwt>
<rscale>  0 0.20610378E+04</rscale>
<asrwt>0</asrwt>
<pdfrwt beam="1">  1        2 0.26590055E+00 0.20610378E+04</pdfrwt>
<pdfrwt beam="2">  1       -1 0.94529198E-01 0.20610378E+04</pdfrwt>
<totfact> 0.10780573E+01</totfact>
</mgrwt>
</event>
<event>
12    7  0.2492439E-007  0.2277594E+04  0.7818608E-02  0.8486808E-01
         -3   -1    0    0    0  501 -0.00000000000E+00  0.00000000000E+00  0.11571373741E+04  0.11571373741E+04  0.00000000000E+00 0.  1.
          2   -1    0    0  501    0  0.00000000000E+00 -0.00000000000E+00 -0.11207474337E+04  0.11207474337E+04  0.00000000000E+00 0. -1.
         24    2    1    2    0    0 -0.38118866346E+03  0.65764064056E+03  0.60046400800E+03  0.97193500630E+03  0.79401651778E+02 0.  0.
        254    2    1    2    0    0  0.38118866346E+03 -0.65764064056E+03 -0.56407406755E+03  0.13059498015E+04  0.89973847368E+03 0.  0.
         23    2    4    4    0    0  0.36778774222E+03  0.11633496047E+03 -0.22010640962E+03  0.45397442192E+03  0.94044127145E+02 0.  0.
         23    2    4    4    0    0  0.13400921241E+02 -0.77397560102E+03 -0.34396765793E+03  0.85197537955E+03  0.91271474117E+02 0.  0.
          4    1    3    3  502    0 -0.21451308878E+03  0.36712894988E+03  0.28540447066E+03  0.51210862419E+03  0.00000000000E+00 0. -1.
         -3    1    3    3    0  502 -0.16667557468E+03  0.29051169068E+03  0.31505953734E+03  0.45982638211E+03  0.00000000000E+00 0.  1.
         13    1    5    5    0    0  0.17812308321E+03  0.88044972680E+02 -0.15311594941E+03  0.25084705290E+03  0.00000000000E+00 0.  1.
        -13    1    5    5    0    0  0.18966465901E+03  0.28289987788E+02 -0.66990460217E+02  0.20312736902E+03  0.00000000000E+00 0. -1.
          1    1    6    6  503    0  0.43460431993E+02 -0.24147259673E+03 -0.12586742048E+03  0.27575429581E+03  0.00000000000E+00 0. -1.
         -1    1    6    6    0  503 -0.30059510752E+02 -0.53250300429E+03 -0.21810023745E+03  0.57622108374E+03  0.00000000000E+00 0.  1.
<mgrwt>
<rscale>  0 0.22775941E+04</rscale>
<asrwt>0</asrwt>
<pdfrwt beam="1">  1        2 0.17242268E+00 0.22775941E+04</pdfrwt>
<pdfrwt beam="2">  1       -3 0.17802113E+00 0.22775941E+04</pdfrwt>
<totfact> 0.24708089E+00</totfact>
</mgrwt>
</event>
<event>
12    7  0.2492439E-007  0.2082157E+04  0.7818608E-02  0.8569144E-01
          2   -1    0    0  501    0  0.00000000000E+00  0.00000000000E+00  0.10343301688E+04  0.10343301688E+04  0.00000000000E+00 0. -1.
         -3   -1    0    0    0  501 -0.00000000000E+00 -0.00000000000E+00 -0.10478707422E+04  0.10478707422E+04  0.00000000000E+00 0.  1.
         24    2    1    2    0    0  0.63909356067E+03  0.48035149865E+03 -0.27529878300E+03  0.84940929595E+03  0.80799694243E+02 0.  0.
        254    2    1    2    0    0 -0.63909356067E+03 -0.48035149865E+03  0.26175820966E+03  0.12327916150E+04  0.90115462837E+03 0.  0.
         23    2    4    4    0    0 -0.78181176014E+03 -0.11559838002E+03  0.23438563921E+03  0.82956179159E+03  0.92970556899E+02 0.  0.
         23    2    4    4    0    0  0.14271819947E+03 -0.36475311862E+03  0.27372570455E+02  0.40322982344E+03  0.91824348010E+02 0.  0.
          4    1    3    3  502    0  0.41166774115E+03  0.27717730169E+03 -0.13905814179E+03  0.51539766441E+03  0.00000000000E+00 0. -1.
         -3    1    3    3    0  502  0.22742581952E+03  0.20317419695E+03 -0.13624064121E+03  0.33401163154E+03  0.00000000000E+00 0.  1.
         13    1    5    5    0    0 -0.39620932260E+03 -0.11605000806E+02  0.11784516192E+03  0.41352628157E+03  0.00000000000E+00 0.  1.
        -13    1    5    5    0    0 -0.38560243754E+03 -0.10399337921E+03  0.11654047728E+03  0.41603551003E+03  0.00000000000E+00 0. -1.
          4    1    6    6  503    0  0.12403905914E+03 -0.27125587325E+03 -0.15535001825E+02  0.29867502950E+03  0.00000000000E+00 0. -1.
         -4    1    6    6    0  503  0.18679140337E+02 -0.93497245376E+02  0.42907572280E+02  0.10455479394E+03  0.00000000000E+00 0.  1.
<mgrwt>
<rscale>  0 0.20821569E+04</rscale>
<asrwt>0</asrwt>
<pdfrwt beam="1">  1        2 0.15912772E+00 0.20821569E+04</pdfrwt>
<pdfrwt beam="2">  1       -3 0.16121088E+00 0.20821569E+04</pdfrwt>
<totfact> 0.37220013E+00</totfact>
</mgrwt>
</event>
<event>
12    7  0.2492439E-007  0.1489572E+04  0.7818608E-02  0.8891417E-01
         -1   -1    0    0    0  501 -0.00000000000E+00  0.00000000000E+00  0.21552181952E+03  0.21552181952E+03  0.00000000000E+00 0.  1.
          2   -1    0    0  501    0  0.00000000000E+00 -0.00000000000E+00 -0.25737810869E+04  0.25737810869E+04  0.00000000000E+00 0. -1.
         24    2    1    2    0    0  0.46305003636E+03 -0.69330085026E+02 -0.73208881548E+03  0.87271612857E+03  0.80358014283E+02 0.  0.
        254    2    1    2    0    0 -0.46305003636E+03  0.69330085026E+02 -0.16261704519E+04  0.19165867779E+04  0.89980694681E+03 0.  0.
         23    2    4    4    0    0  0.22534288933E+03  0.86476098671E+02 -0.78159391761E+03  0.82303703956E+03  0.90793078146E+02 0.  0.
         23    2    4    4    0    0 -0.68839292569E+03 -0.17146013646E+02 -0.84457653430E+03  0.10935497383E+04  0.91447809710E+02 0.  0.
          4    1    3    3  502    0  0.10198689122E+03 -0.29793792580E+02 -0.22648662205E+03  0.25017031404E+03  0.00000000000E+00 0. -1.
         -3    1    3    3    0  502  0.36106314514E+03 -0.39536292446E+02 -0.50560219343E+03  0.62254581454E+03  0.00000000000E+00 0.  1.
         13    1    5    5    0    0  0.16461929001E+03  0.48489386400E+02 -0.40772980859E+03  0.44237351644E+03  0.00000000000E+00 0. -1.
        -13    1    5    5    0    0  0.60723599321E+02  0.37986712271E+02 -0.37386410902E+03  0.38066352312E+03  0.00000000000E+00 0.  1.
          4    1    6    6  503    0 -0.11807036623E+03 -0.12356138671E+01 -0.20416494742E+03  0.23585051171E+03  0.00000000000E+00 0. -1.
         -4    1    6    6    0  503 -0.57032255946E+03 -0.15910399779E+02 -0.64041158689E+03  0.85769922658E+03  0.00000000000E+00 0.  1.
<mgrwt>
<rscale>  0 0.14895717E+04</rscale>
<asrwt>0</asrwt>
<pdfrwt beam="1">  1        2 0.39596632E+00 0.14895717E+04</pdfrwt>
<pdfrwt beam="2">  1       -1 0.33157203E-01 0.14895717E+04</pdfrwt>
<totfact> 0.29780441E+01</totfact>
</mgrwt>
</event>
<event>
12    7  0.2492439E-007  0.1744182E+04  0.7818608E-02  0.8736559E-01
         -1   -1    0    0    0  501 -0.00000000000E+00  0.00000000000E+00  0.94330627673E+03  0.94330627673E+03  0.00000000000E+00 0.  1.
          2   -1    0    0  501    0  0.00000000000E+00 -0.00000000000E+00 -0.80625246424E+03  0.80625246424E+03  0.00000000000E+00 0. -1.
         24    2    1    2    0    0 -0.26707580287E+03  0.55581322314E+03  0.21581004778E+03  0.65788148549E+03  0.77306201097E+02 0.  0.
        254    2    1    2    0    0  0.26707580287E+03 -0.55581322314E+03 -0.78756235289E+02  0.10916772555E+04  0.89738445610E+03 0.  0.
         23    2    4    4    0    0  0.10235178762E+03 -0.73701958920E+03  0.12487487818E+03  0.76038298498E+03  0.94418140972E+02 0.  0.
         23    2    4    4    0    0  0.16472401525E+03  0.18120636606E+03 -0.20363111347E+03  0.33129427051E+03  0.91216856989E+02 0.  0.
          4    1    3    3  502    0 -0.82891771992E+02  0.21656101489E+03  0.47194802585E+02  0.23663699716E+03  0.00000000000E+00 0. -1.
         -3    1    3    3    0  502 -0.18418403088E+03  0.33925220825E+03  0.16861524520E+03  0.42124448832E+03  0.00000000000E+00 0.  1.
         13    1    5    5    0    0  0.11436005622E+03 -0.65528688074E+03  0.92220915139E+02  0.67155328583E+03  0.00000000000E+00 0. -1.
        -13    1    5    5    0    0 -0.12008268595E+02 -0.81732708465E+02  0.32653963041E+02  0.88829699143E+02  0.00000000000E+00 0.  1.
          1    1    6    6  503    0  0.11599740316E+03  0.16211559348E+03 -0.19384981275E+03  0.27805505407E+03  0.00000000000E+00 0. -1.
         -1    1    6    6    0  503  0.48726612089E+02  0.19090772579E+02 -0.97813007170E+01  0.53239216440E+02  0.00000000000E+00 0.  1.
<mgrwt>
<rscale>  0 0.17441823E+04</rscale>
<asrwt>0</asrwt>
<pdfrwt beam="1">  1        2 0.12403884E+00 0.17441823E+04</pdfrwt>
<pdfrwt beam="2">  1       -1 0.14512404E+00 0.17441823E+04</pdfrwt>
<totfact> 0.14068433E+01</totfact>
</mgrwt>
</event>
<event>
12    7  0.2492439E-007  0.1739425E+04  0.7818608E-02  0.8739193E-01
         -1   -1    0    0    0  501 -0.00000000000E+00  0.00000000000E+00  0.50162074825E+03  0.50162074825E+03  0.00000000000E+00 0.  1.
          2   -1    0    0  501    0  0.00000000000E+00 -0.00000000000E+00 -0.15079125634E+04  0.15079125634E+04  0.00000000000E+00 0. -1.
         24    2    1    2    0    0  0.55690870617E+03 -0.29043241440E+03 -0.25776962091E+03  0.68364020858E+03  0.80127791547E+02 0.  0.
        254    2    1    2    0    0 -0.55690870617E+03  0.29043241440E+03 -0.74852219419E+03  0.13258931030E+04  0.89621914234E+03 0.  0.
         23    2    4    4    0    0 -0.34895115348E+03  0.12154924367E+03 -0.91953622111E+03  0.99510030552E+03  0.90203270283E+02 0.  0.
         23    2    4    4    0    0 -0.20795755269E+03  0.16888317073E+03  0.17101402691E+03  0.33079279750E+03  0.91707188366E+02 0.  0.
          4    1    3    3  502    0  0.13856013669E+03 -0.37656813743E+02 -0.73200285108E+02  0.16116832456E+03  0.00000000000E+00 0. -1.
         -3    1    3    3    0  502  0.41834856948E+03 -0.25277560065E+03 -0.18456933581E+03  0.52247188402E+03  0.00000000000E+00 0.  1.
         13    1    5    5    0    0 -0.27890766371E+03  0.11231597390E+03 -0.64530969461E+03  0.71191921229E+03  0.00000000000E+00 0.  1.
        -13    1    5    5    0    0 -0.70043489771E+02  0.92332697706E+01 -0.27422652649E+03  0.28318109323E+03  0.00000000000E+00 0. -1.
          4    1    6    6  503    0 -0.14898113993E+03  0.70424418615E+02  0.12629159447E+03  0.20761634238E+03  0.00000000000E+00 0.  1.
         -4    1    6    6    0  503 -0.58976412758E+02  0.98458752116E+02  0.44722432449E+02  0.12317645511E+03  0.00000000000E+00 0. -1.
<mgrwt>
<rscale>  0 0.17394255E+04</rscale>
<asrwt>0</asrwt>
<pdfrwt beam="1">  1        2 0.23198654E+00 0.17394255E+04</pdfrwt>
<pdfrwt beam="2">  1       -1 0.77172425E-01 0.17394255E+04</pdfrwt>
<totfact> 0.22865060E+01</totfact>
</mgrwt>
</event>
<event>
12    7  0.2492439E-007  0.1932634E+04  0.7818608E-02  0.8638781E-01
         -1   -1    0    0    0  501 -0.00000000000E+00  0.00000000000E+00  0.16799324065E+04  0.16799324065E+04  0.00000000000E+00 0.  1.
          2   -1    0    0  501    0  0.00000000000E+00 -0.00000000000E+00 -0.55583724264E+03  0.55583724264E+03  0.00000000000E+00 0. -1.
         24    2    1    2    0    0 -0.20005440104E+03 -0.69570354900E+03  0.68843177440E+03  0.10021234509E+04  0.79296351281E+02 0.  0.
        254    2    1    2    0    0  0.20005440104E+03  0.69570354900E+03  0.43566338947E+03  0.12336461983E+04  0.89891888516E+03 0.  0.
         23    2    4    4    0    0  0.26458308436E+03  0.48094127911E+03  0.68743545585E+03  0.88458009098E+03  0.92766960273E+02 0.  0.
         23    2    4    4    0    0 -0.64528683317E+02  0.21476226989E+03 -0.25177206638E+03  0.34906610728E+03  0.90394636467E+02 0.  0.
          2    1    3    3  502    0 -0.97921798362E+02 -0.42815846631E+03  0.37454904230E+03  0.57723074759E+03  0.00000000000E+00 0. -1.
         -1    1    3    3    0  502 -0.10213260268E+03 -0.26754508269E+03  0.31388273210E+03  0.42489270329E+03  0.00000000000E+00 0.  1.
         13    1    5    5    0    0  0.23405141838E+03  0.35208027897E+03  0.55012982734E+03  0.69381799935E+03  0.00000000000E+00 0. -1.
        -13    1    5    5    0    0  0.30531665980E+02  0.12886100014E+03  0.13730562851E+03  0.19076209164E+03  0.00000000000E+00 0.  1.
          3    1    6    6  503    0 -0.64132148013E+02  0.63043929745E+02 -0.88165662840E+02  0.12593908683E+03  0.00000000000E+00 0. -1.
         -3    1    6    6    0  503 -0.39653530338E+00  0.15171834014E+03 -0.16360640354E+03  0.22312702045E+03  0.00000000000E+00 0.  1.
<mgrwt>
<rscale>  0 0.19326345E+04</rscale>
<asrwt>0</asrwt>
<pdfrwt beam="1">  1        2 0.85513423E-01 0.19326345E+04</pdfrwt>
<pdfrwt beam="2">  1       -1 0.25845114E+00 0.19326345E+04</pdfrwt>
<totfact> 0.35626575E+00</totfact>
</mgrwt>
</event>
<event>
12    7  0.2492439E-007  0.1908100E+04  0.7818608E-02  0.8650835E-01
          2   -1    0    0  501    0  0.00000000000E+00  0.00000000000E+00  0.37546575684E+03  0.37546575684E+03  0.00000000000E+00 0. -1.
         -1   -1    0    0    0  501 -0.00000000000E+00 -0.00000000000E+00 -0.24242187358E+04  0.24242187358E+04  0.00000000000E+00 0.  1.
         24    2    1    2    0    0 -0.12957056498E+03 -0.45476721211E+03  0.34804173454E+02  0.48162088188E+03  0.84531620389E+02 0.  0.
        254    2    1    2    0    0  0.12957056498E+03  0.45476721211E+03 -0.20835571524E+04  0.23180636108E+04  0.89922563776E+03 0.  0.
         23    2    4    4    0    0  0.44431534217E+03  0.22200464964E+03 -0.16573306647E+04  0.17326033760E+04  0.92018141199E+02 0.  0.
         23    2    4    4    0    0 -0.31474477719E+03  0.23276256248E+03 -0.42622648768E+03  0.58546023481E+03  0.88611412837E+02 0.  0.
          2    1    3    3  502    0 -0.13458572030E+03 -0.36454687111E+03  0.13747427751E+02  0.38884023598E+03  0.00000000000E+00 0. -1.
         -1    1    3    3    0  502  0.50151553204E+01 -0.90220341002E+02  0.21056745703E+02  0.92780645897E+02  0.00000000000E+00 0.  1.
         13    1    5    5    0    0  0.28510065730E+03  0.13521237501E+03 -0.89471575283E+03  0.94872601393E+03  0.00000000000E+00 0. -1.
        -13    1    5    5    0    0  0.15921468487E+03  0.86792274629E+02 -0.76261491192E+03  0.78387736202E+03  0.00000000000E+00 0.  1.
          2    1    6    6  503    0 -0.22373479446E+03  0.12578883203E+03 -0.31481265679E+03  0.40618603790E+03  0.00000000000E+00 0. -1.
         -2    1    6    6    0  503 -0.91009982736E+02  0.10697373044E+03 -0.11141383089E+03  0.17927419691E+03  0.00000000000E+00 0.  1.
<mgrwt>
<rscale>  0 0.19080997E+04</rscale>
<asrwt>0</asrwt>
<pdfrwt beam="1">  1        2 0.57763964E-01 0.19080997E+04</pdfrwt>
<pdfrwt beam="2">  1       -1 0.37295672E+00 0.19080997E+04</pdfrwt>
<totfact> 0.99973825E-01</totfact>
</mgrwt>
</event>
<event>
12    7  0.2492439E-007  0.1873681E+04  0.7818608E-02  0.8668069E-01
         -1   -1    0    0    0  501 -0.00000000000E+00  0.00000000000E+00  0.81839294270E+03  0.81839294270E+03  0.00000000000E+00 0.  1.
          2   -1    0    0  501    0  0.00000000000E+00 -0.00000000000E+00 -0.10724310156E+04  0.10724310156E+04  0.00000000000E+00 0. -1.
         24    2    1    2    0    0 -0.60880503329E+03  0.11713696677E+03 -0.46317117529E+03  0.77793955581E+03  0.79358536545E+02 0.  0.
        254    2    1    2    0    0  0.60880503329E+03 -0.11713696677E+03  0.20913310238E+03  0.11128844025E+04  0.90022797183E+03 0.  0.
         23    2    4    4    0    0  0.62491587861E+03 -0.37499290798E+03  0.34076466400E+03  0.80985330625E+03  0.92748504279E+02 0.  0.
         23    2    4    4    0    0 -0.16110845320E+02  0.25785594121E+03 -0.13163156162E+03  0.30303109624E+03  0.88043918149E+02 0.  0.
          2    1    3    3  502    0 -0.29719096811E+03  0.56100569449E+02 -0.27539202059E+03  0.40903607472E+03  0.00000000000E+00 0. -1.
         -1    1    3    3    0  502 -0.31161406518E+03  0.61036397318E+02 -0.18777915470E+03  0.36890348108E+03  0.00000000000E+00 0.  1.
         13    1    5    5    0    0  0.16492492013E+03 -0.11504933533E+03  0.51864408431E+02  0.20766919777E+03  0.00000000000E+00 0.  1.
        -13    1    5    5    0    0  0.45999095848E+03 -0.25994357265E+03  0.28890025557E+03  0.60218410848E+03  0.00000000000E+00 0. -1.
          1    1    6    6  503    0  0.72880264962E+01  0.24003369146E+03 -0.13113006227E+03  0.27361356253E+03  0.00000000000E+00 0. -1.
         -1    1    6    6    0  503 -0.23398871817E+02  0.17822249750E+02 -0.50149934184E+00  0.29417533718E+02  0.00000000000E+00 0.  1.
<mgrwt>
<rscale>  0 0.18736808E+04</rscale>
<asrwt>0</asrwt>
<pdfrwt beam="1">  1        2 0.16498939E+00 0.18736808E+04</pdfrwt>
<pdfrwt beam="2">  1       -1 0.12590661E+00 0.18736808E+04</pdfrwt>
<totfact> 0.13335303E+01</totfact>
</mgrwt>
</event>
<event>
12    7  0.2492439E-007  0.2024189E+04  0.7818608E-02  0.8595394E-01
         -1   -1    0    0    0  501 -0.00000000000E+00  0.00000000000E+00  0.12405254750E+04  0.12405254750E+04  0.00000000000E+00 0.  1.
          2   -1    0    0  501    0  0.00000000000E+00 -0.00000000000E+00 -0.82572708774E+03  0.82572708774E+03  0.00000000000E+00 0. -1.
         24    2    1    2    0    0  0.13919960979E+03  0.79486288619E+03  0.23747287945E+03  0.84496804654E+03  0.79963066408E+02 0.  0.
        254    2    1    2    0    0 -0.13919960979E+03 -0.79486288619E+03  0.17732550780E+03  0.12212845162E+04  0.89939312570E+03 0.  0.
         23    2    4    4    0    0  0.23801974120E+03 -0.67723615063E+03  0.32020954147E+03  0.79134073894E+03  0.91563168023E+02 0.  0.
         23    2    4    4    0    0 -0.37721935099E+03 -0.11762673556E+03 -0.14288403367E+03  0.42994377725E+03  0.91133511075E+02 0.  0.
          2    1    3    3  502    0  0.31475143007E+02  0.40614297219E+03  0.11041035922E+03  0.42205834420E+03  0.00000000000E+00 0. -1.
         -1    1    3    3    0  502  0.10772446679E+03  0.38871991400E+03  0.12706252023E+03  0.42290970234E+03  0.00000000000E+00 0.  1.
         13    1    5    5    0    0  0.56302829923E+02 -0.17831004505E+03  0.41044746210E+02  0.19143968244E+03  0.00000000000E+00 0. -1.
        -13    1    5    5    0    0  0.18171691127E+03 -0.49892610558E+03  0.27916479526E+03  0.59990105649E+03  0.00000000000E+00 0.  1.
          3    1    6    6  503    0 -0.36695409716E+02 -0.21943307989E+00  0.10917738430E+02  0.38285744835E+02  0.00000000000E+00 0. -1.
         -3    1    6    6    0  503 -0.34052394127E+03 -0.11740730248E+03 -0.15380177210E+03  0.39165803242E+03  0.00000000000E+00 0.  1.
<mgrwt>
<rscale>  0 0.20241892E+04</rscale>
<asrwt>0</asrwt>
<pdfrwt beam="1">  1        2 0.12703494E+00 0.20241892E+04</pdfrwt>
<pdfrwt beam="2">  1       -1 0.19085007E+00 0.20241892E+04</pdfrwt>
<totfact> 0.60878454E+00</totfact>
</mgrwt>
</event>
<event>
12    7  0.2492439E-007  0.2317699E+04  0.7818608E-02  0.8470975E-01
         -1   -1    0    0    0  501 -0.00000000000E+00  0.00000000000E+00  0.76779866444E+03  0.76779866444E+03  0.00000000000E+00 0.  1.
          2   -1    0    0  501    0  0.00000000000E+00 -0.00000000000E+00 -0.17490679372E+04  0.17490679372E+04  0.00000000000E+00 0. -1.
         24    2    1    2    0    0 -0.78651646587E+03  0.56925818558E+03 -0.25656867535E+03  0.10074258804E+04  0.80102349038E+02 0.  0.
        254    2    1    2    0    0  0.78651646587E+03 -0.56925818558E+03 -0.72470059744E+03  0.15094407213E+04  0.90030955915E+03 0.  0.
         23    2    4    4    0    0  0.32092915227E+03 -0.74554250349E+03 -0.47890250814E+03  0.94657845975E+03  0.88510015702E+02 0.  0.
         23    2    4    4    0    0  0.46558731360E+03  0.17628431791E+03 -0.24579808930E+03  0.56286226155E+03  0.92463600692E+02 0.  0.
          2    1    3    3  502    0 -0.40299105359E+03  0.29903468410E+03 -0.17350229230E+03  0.53096758564E+03  0.00000000000E+00 0. -1.
         -1    1    3    3    0  502 -0.38352541228E+03  0.27022350148E+03 -0.83066383047E+02  0.47645829472E+03  0.00000000000E+00 0.  1.
         13    1    5    5    0    0  0.23318352052E+03 -0.50334507542E+03 -0.28171750066E+03  0.62217004860E+03  0.00000000000E+00 0. -1.
        -13    1    5    5    0    0  0.87745631742E+02 -0.24219742808E+03 -0.19718500748E+03  0.32440841116E+03  0.00000000000E+00 0.  1.
          3    1    6    6  503    0  0.21946661035E+03  0.96227954737E+02 -0.16782334386E+03  0.29255783544E+03  0.00000000000E+00 0. -1.
         -3    1    6    6    0  503  0.24612070325E+03  0.80056363177E+02 -0.77974745440E+02  0.27030442612E+03  0.00000000000E+00 0.  1.
<mgrwt>
<rscale>  0 0.23176989E+04</rscale>
<asrwt>0</asrwt>
<pdfrwt beam="1">  1        2 0.26908737E+00 0.23176989E+04</pdfrwt>
<pdfrwt beam="2">  1       -1 0.11812287E+00 0.23176989E+04</pdfrwt>
<totfact> 0.61076491E+00</totfact>
</mgrwt>
</event>
<event>
12    7  0.2492439E-007  0.2215491E+04  0.7818608E-02  0.8512008E-01
          2   -1    0    0  501    0  0.00000000000E+00  0.00000000000E+00  0.21978689348E+04  0.21978689348E+04  0.00000000000E+00 0. -1.
         -1   -1    0    0    0  501 -0.00000000000E+00 -0.00000000000E+00 -0.55831338482E+03  0.55831338482E+03  0.00000000000E+00 0.  1.
         24    2    1    2    0    0  0.40176798507E+03 -0.42933795589E+03  0.15701259676E+04  0.16788038667E+04  0.85663730681E+02 0.  0.
        254    2    1    2    0    0 -0.40176798507E+03  0.42933795589E+03  0.69429582432E+02  0.10773784529E+04  0.90009736675E+03 0.  0.
         23    2    4    4    0    0  0.25980055705E+03 -0.81866849342E+01  0.13737272515E+01  0.27611453121E+03  0.93134289976E+02 0.  0.
         23    2    4    4    0    0 -0.66156854212E+03  0.43752464083E+03  0.68055855181E+02  0.80126392168E+03  0.91057814054E+02 0.  0.
          2    1    3    3  502    0  0.23677767726E+03 -0.19958284906E+03  0.88339520713E+03  0.93610046153E+03  0.00000000000E+00 0. -1.
         -1    1    3    3    0  502  0.16499030781E+03 -0.22975510683E+03  0.68673076044E+03  0.74270340522E+03  0.00000000000E+00 0.  1.
         13    1    5    5    0    0  0.13658544496E+03  0.72882057082E+01  0.45769270660E+02  0.14423428114E+03  0.00000000000E+00 0.  1.
        -13    1    5    5    0    0  0.12321511208E+03 -0.15474890642E+02 -0.44395543408E+02  0.13188025008E+03  0.00000000000E+00 0. -1.
          4    1    6    6  503    0 -0.35722967785E+03  0.28832917590E+03  0.27331622019E+02  0.45988452243E+03  0.00000000000E+00 0. -1.
         -4    1    6    6    0  503 -0.30433886427E+03  0.14919546493E+03  0.40724233161E+02  0.34137939925E+03  0.00000000000E+00 0.  1.
<mgrwt>
<rscale>  0 0.22154906E+04</rscale>
<asrwt>0</asrwt>
<pdfrwt beam="1">  1        2 0.33813368E+00 0.22154906E+04</pdfrwt>
<pdfrwt beam="2">  1       -1 0.85894368E-01 0.22154906E+04</pdfrwt>
<totfact> 0.71985846E+00</totfact>
</mgrwt>
</event>
<event>
12    7  0.2492439E-007  0.1002649E+04  0.7818608E-02  0.9305644E-01
          2   -1    0    0  501    0  0.00000000000E+00  0.00000000000E+00  0.38186119239E+03  0.38186119239E+03  0.00000000000E+00 0. -1.
         -1   -1    0    0    0  501 -0.00000000000E+00 -0.00000000000E+00 -0.65816183641E+03  0.65816183641E+03  0.00000000000E+00 0.  1.
         24    2    1    2    0    0 -0.17813882879E+02  0.53696065401E+02  0.20290858813E+02  0.90708007484E+02  0.67938367714E+02 0.  0.
        254    2    1    2    0    0  0.17813882879E+02 -0.53696065401E+02 -0.29659150283E+03  0.94931502131E+03  0.90001771553E+03 0.  0.
         23    2    4    4    0    0 -0.88907851484E+02  0.37909944240E+03  0.11086720180E+02  0.40019828648E+03  0.91732000146E+02 0.  0.
         23    2    4    4    0    0  0.10672173436E+03 -0.43279550780E+03 -0.30767822301E+03  0.54911673483E+03  0.90342788262E+02 0.  0.
          4    1    3    3  502    0 -0.24234477797E+02  0.66086249080E+02  0.58596263519E+01  0.70633118666E+02  0.00000000000E+00 0. -1.
         -3    1    3    3    0  502  0.64205949175E+01 -0.12390183679E+02  0.14431232461E+02  0.20074888818E+02  0.00000000000E+00 0.  1.
         13    1    5    5    0    0 -0.65372500263E+02  0.36809150844E+03  0.13568264048E+02  0.37409760781E+03  0.00000000000E+00 0. -1.
        -13    1    5    5    0    0 -0.23535351221E+02  0.11007933961E+02 -0.24815438678E+01  0.26100678672E+02  0.00000000000E+00 0.  1.
          2    1    6    6  503    0  0.11648322854E+03 -0.36912907518E+03 -0.23876695750E+03  0.45479036563E+03  0.00000000000E+00 0. -1.
         -2    1    6    6    0  503 -0.97614941780E+01 -0.63666432625E+02 -0.68911265516E+02  0.94326369202E+02  0.00000000000E+00 0.  1.
<mgrwt>
<rscale>  0 0.10026494E+04</rscale>
<asrwt>0</asrwt>
<pdfrwt beam="1">  1        2 0.58747876E-01 0.10026494E+04</pdfrwt>
<pdfrwt beam="2">  1       -1 0.10125567E+00 0.10026494E+04</pdfrwt>
<totfact> 0.88743286E+01</totfact>
</mgrwt>
</event>
<event>
12    7  0.2492439E-007  0.1855188E+04  0.7818608E-02  0.8677489E-01
         -1   -1    0    0    0  501 -0.00000000000E+00  0.00000000000E+00  0.32948210718E+03  0.32948210718E+03  0.00000000000E+00 0.  1.
          2   -1    0    0  501    0  0.00000000000E+00 -0.00000000000E+00 -0.26114647334E+04  0.26114647334E+04  0.00000000000E+00 0. -1.
         24    2    1    2    0    0  0.28384075657E+03  0.62385972665E+03 -0.11403919151E+04  0.13329209777E+04  0.80112914502E+02 0.  0.
        254    2    1    2    0    0 -0.28384075657E+03 -0.62385972665E+03 -0.11415907110E+04  0.16080258628E+04  0.90152719892E+03 0.  0.
         23    2    4    4    0    0 -0.48956673716E+03 -0.19956529711E+03 -0.94914138253E+03  0.10904095418E+04  0.92853146815E+02 0.  0.
         23    2    4    4    0    0  0.20572598059E+03 -0.42429442954E+03 -0.19244932851E+03  0.51761632104E+03  0.92417367037E+02 0.  0.
          4    1    3    3  502    0  0.20624212945E+03  0.37491645284E+03 -0.74925748049E+03  0.86283540414E+03  0.00000000000E+00 0. -1.
         -3    1    3    3    0  502  0.77598627125E+02  0.24894327381E+03 -0.39113443465E+03  0.47008557356E+03  0.00000000000E+00 0.  1.
         13    1    5    5    0    0 -0.45512432314E+03 -0.18707390172E+03 -0.92100353839E+03  0.10442137291E+04  0.00000000000E+00 0.  1.
        -13    1    5    5    0    0 -0.34442414024E+02 -0.12491395385E+02 -0.28137844140E+02  0.46195812746E+02  0.00000000000E+00 0. -1.
          1    1    6    6  503    0  0.38262462208E+02 -0.20659067448E+02 -0.15752306535E+02  0.46248764775E+02  0.00000000000E+00 0. -1.
         -1    1    6    6    0  503  0.16746351838E+03 -0.40363536209E+03 -0.17669702198E+03  0.47136755626E+03  0.00000000000E+00 0.  1.
<mgrwt>
<rscale>  0 0.18551883E+04</rscale>
<asrwt>0</asrwt>
<pdfrwt beam="1">  1        2 0.40176382E+00 0.18551883E+04</pdfrwt>
<pdfrwt beam="2">  1       -1 0.50689553E-01 0.18551883E+04</pdfrwt>
<totfact> 0.12555068E+01</totfact>
</mgrwt>
</event>
<event>
12    7  0.2492439E-007  0.1713135E+04  0.7818608E-02  0.8753908E-01
         -1   -1    0    0    0  501 -0.00000000000E+00  0.00000000000E+00  0.13683520003E+04  0.13683520003E+04  0.00000000000E+00 0.  1.
          2   -1    0    0  501    0  0.00000000000E+00 -0.00000000000E+00 -0.53619805188E+03  0.53619805188E+03  0.00000000000E+00 0. -1.
         24    2    1    2    0    0 -0.26026957484E+03 -0.34430354958E+03 -0.18444100711E+03  0.47670271798E+03  0.83317527489E+02 0.  0.
        254    2    1    2    0    0  0.26026957484E+03  0.34430354958E+03  0.10165949556E+04  0.14278473342E+04  0.90498481777E+03 0.  0.
         23    2    4    4    0    0 -0.23033094751E+03 -0.60573096025E+02  0.37222910163E+02  0.25656190305E+03  0.87846569164E+02 0.  0.
         23    2    4    4    0    0  0.49060052235E+03  0.40487664560E+03  0.97937204540E+03  0.11712854312E+04  0.90144258370E+02 0.  0.
          2    1    3    3  502    0 -0.22589559488E+03 -0.24500736895E+03 -0.15528007260E+03  0.36765382029E+03  0.00000000000E+00 0. -1.
         -1    1    3    3    0  502 -0.34373979954E+02 -0.99296180633E+02 -0.29160934505E+02  0.10904889769E+03  0.00000000000E+00 0.  1.
         13    1    5    5    0    0 -0.13469481636E+03  0.80786764070E+01  0.32218433014E+02  0.13872990303E+03  0.00000000000E+00 0. -1.
        -13    1    5    5    0    0 -0.95636131150E+02 -0.68651772432E+02  0.50044771486E+01  0.11783200003E+03  0.00000000000E+00 0.  1.
          1    1    6    6  503    0  0.18401930016E+03  0.10527365355E+03  0.28399680195E+03  0.35440066095E+03  0.00000000000E+00 0. -1.
         -1    1    6    6    0  503  0.30658122219E+03  0.29960299205E+03  0.69537524345E+03  0.81688477024E+03  0.00000000000E+00 0.  1.
<mgrwt>
<rscale>  0 0.17131348E+04</rscale>
<asrwt>0</asrwt>
<pdfrwt beam="1">  1        2 0.82492009E-01 0.17131348E+04</pdfrwt>
<pdfrwt beam="2">  1       -1 0.21051569E+00 0.17131348E+04</pdfrwt>
<totfact> 0.78576917E+00</totfact>
</mgrwt>
</event>
<event>
12    7  0.2492439E-007  0.5610954E+04  0.7818608E-02  0.7740604E-01
          2   -1    0    0  501    0  0.00000000000E+00  0.00000000000E+00  0.28847079128E+04  0.28847079128E+04  0.00000000000E+00 0. -1.
         -1   -1    0    0    0  501 -0.00000000000E+00 -0.00000000000E+00 -0.27284222688E+04  0.27284222688E+04  0.00000000000E+00 0.  1.
         24    2    1    2    0    0  0.23747915556E+04  0.11369952915E+04  0.80778967435E+03  0.27552231301E+04  0.79605986284E+02 0.  0.
        254    2    1    2    0    0 -0.23747915556E+04 -0.11369952915E+04 -0.65150403036E+03  0.28579070515E+04  0.90043433282E+03 0.  0.
         23    2    4    4    0    0 -0.20767510775E+04 -0.82525424105E+03 -0.23103685724E+03  0.22483459358E+04  0.87987597947E+02 0.  0.
         23    2    4    4    0    0 -0.29804047815E+03 -0.31174105048E+03 -0.42046717312E+03  0.60956111570E+03  0.93602889530E+02 0.  0.
          4    1    3    3  502    0  0.13492064994E+04  0.61878668693E+03  0.48765288280E+03  0.15623893484E+04  0.00000000000E+00 0. -1.
         -3    1    3    3    0  502  0.10255850563E+04  0.51820860459E+03  0.32013679156E+03  0.11928337817E+04  0.00000000000E+00 0.  1.
         13    1    5    5    0    0 -0.14122664687E+04 -0.55851632697E+03 -0.19815147998E+03  0.15315681752E+04  0.00000000000E+00 0. -1.
        -13    1    5    5    0    0 -0.66448460874E+03 -0.26673791408E+03 -0.32885377256E+02  0.71677776060E+03  0.00000000000E+00 0.  1.
          1    1    6    6  503    0 -0.44292641630E+02 -0.10327850930E+03 -0.94107009232E+02  0.14657563840E+03  0.00000000000E+00 0. -1.
         -1    1    6    6    0  503 -0.25374783652E+03 -0.20846254118E+03 -0.32636016389E+03  0.46298547730E+03  0.00000000000E+00 0.  1.
<mgrwt>
<rscale>  0 0.56109540E+04</rscale>
<asrwt>0</asrwt>
<pdfrwt beam="1">  1        2 0.44380122E+00 0.56109540E+04</pdfrwt>
<pdfrwt beam="2">  1       -1 0.41975727E+00 0.56109540E+04</pdfrwt>
<totfact> 0.84933279E-03</totfact>
</mgrwt>
</event>
<event>
12    7  0.2492439E-007  0.1834535E+04  0.7818608E-02  0.8688147E-01
          2   -1    0    0  501    0  0.00000000000E+00  0.00000000000E+00  0.11409608363E+04  0.11409608363E+04  0.00000000000E+00 0. -1.
         -1   -1    0    0    0  501 -0.00000000000E+00 -0.00000000000E+00 -0.73743107128E+03  0.73743107128E+03  0.00000000000E+00 0.  1.
         24    2    1    2    0    0 -0.50618616952E+03  0.30653307245E+03  0.52494548777E+03  0.79509192754E+03  0.80102717793E+02 0.  0.
        254    2    1    2    0    0  0.50618616952E+03 -0.30653307245E+03 -0.12141572271E+03  0.10832999801E+04  0.89922750537E+03 0.  0.
         23    2    4    4    0    0  0.80926006738E+02  0.28054538567E+03  0.95870834941E+02  0.32066295455E+03  0.91535683975E+02 0.  0.
         23    2    4    4    0    0  0.42526016278E+03 -0.58707845811E+03 -0.21728655765E+03  0.76263702554E+03  0.94310458392E+02 0.  0.
          2    1    3    3  502    0 -0.12227209752E+03  0.10543824313E+03  0.17454718559E+03  0.23776965522E+03  0.00000000000E+00 0. -1.
         -1    1    3    3    0  502 -0.38391407200E+03  0.20109482932E+03  0.35039830219E+03  0.55732227233E+03  0.00000000000E+00 0.  1.
         13    1    5    5    0    0 -0.97826635794E+01  0.10628530071E+03  0.54720985218E+02  0.11994436993E+03  0.00000000000E+00 0.  1.
        -13    1    5    5    0    0  0.90708670317E+02  0.17426008495E+03  0.41149849723E+02  0.20071858462E+03  0.00000000000E+00 0. -1.
          1    1    6    6  503    0  0.33427038471E+03 -0.50620415238E+03 -0.15603480484E+03  0.62635947690E+03  0.00000000000E+00 0. -1.
         -1    1    6    6    0  503  0.90989778069E+02 -0.80874305730E+02 -0.61251752811E+02  0.13627754864E+03  0.00000000000E+00 0.  1.
<mgrwt>
<rscale>  0 0.18345353E+04</rscale>
<asrwt>0</asrwt>
<pdfrwt beam="1">  1        2 0.17553244E+00 0.18345353E+04</pdfrwt>
<pdfrwt beam="2">  1       -1 0.11345093E+00 0.18345353E+04</pdfrwt>
<totfact> 0.15655457E+01</totfact>
</mgrwt>
</event>
<event>
12    7  0.2833719E-007  0.2521240E+04  0.7818608E-02  0.8395458E-01
         -1   -1    0    0    0  501 -0.00000000000E+00  0.00000000000E+00  0.61621559193E+03  0.61621559193E+03  0.00000000000E+00 0.  1.
          2   -1    0    0  501    0  0.00000000000E+00 -0.00000000000E+00 -0.25789070877E+04  0.25789070877E+04  0.00000000000E+00 0. -1.
         24    2    1    2    0    0  0.99271878542E+03 -0.31495854024E+03 -0.12996808369E+04  0.16673777685E+04  0.79302432847E+02 0.  0.
        254    2    1    2    0    0 -0.99271878542E+03  0.31495854024E+03 -0.66301065885E+03  0.15277449112E+04  0.89985104928E+03 0.  0.
         23    2    4    4    0    0  0.64241391474E+02 -0.16418043660E+03 -0.24782927986E+02  0.20019027455E+03  0.91541140284E+02 0.  0.
         23    2    4    4    0    0 -0.10569601769E+04  0.47913897684E+03 -0.63822773086E+03  0.13275546366E+04  0.91256244250E+02 0.  0.
          4    1    3    3  502    0  0.34256697829E+03 -0.10717740212E+03 -0.50922663015E+03  0.62301756877E+03  0.00000000000E+00 0. -1.
         -3    1    3    3    0  502  0.65015180713E+03 -0.20778113812E+03 -0.79045420680E+03  0.10443601997E+04  0.00000000000E+00 0.  1.
         13    1    5    5    0    0  0.77291742027E+02 -0.78388652761E+02 -0.53182630575E+00  0.11008667997E+03  0.00000000000E+00 0.  1.
        -13    1    5    5    0    0 -0.13050350553E+02 -0.85791783843E+02 -0.24251101680E+02  0.90103594585E+02  0.00000000000E+00 0. -1.
          3    1    6    6  503    0 -0.66869067692E+03  0.25774759421E+03 -0.37458660097E+03  0.80863846393E+03  0.00000000000E+00 0.  1.
         -3    1    6    6    0  503 -0.38826949998E+03  0.22139138263E+03 -0.26364112989E+03  0.51891617270E+03  0.00000000000E+00 0. -1.
<mgrwt>
<rscale>  0 0.25212400E+04</rscale>
<asrwt>0</asrwt>
<pdfrwt beam="1">  1        2 0.39675494E+00 0.25212400E+04</pdfrwt>
<pdfrwt beam="2">  1       -1 0.94802398E-01 0.25212400E+04</pdfrwt>
<totfact> 0.34101986E+00</totfact>
</mgrwt>
</event>
<event>
12    7  0.2492439E-007  0.1269550E+04  0.7818608E-02  0.9054067E-01
          2   -1    0    0  501    0  0.00000000000E+00  0.00000000000E+00  0.14370229601E+04  0.14370229601E+04  0.00000000000E+00 0. -1.
         -1   -1    0    0    0  501 -0.00000000000E+00 -0.00000000000E+00 -0.28039883525E+03  0.28039883525E+03  0.00000000000E+00 0.  1.
         24    2    1    2    0    0 -0.58376283882E+02 -0.14282932930E+03 -0.70295887704E+02  0.18793228736E+03  0.81049521746E+02 0.  0.
        254    2    1    2    0    0  0.58376283882E+02  0.14282932930E+03  0.12269200125E+04  0.15294895080E+04  0.90010967666E+03 0.  0.
         23    2    4    4    0    0 -0.35305529888E+03 -0.12472815157E+03  0.35880052037E+03  0.52823451590E+03  0.10044269266E+03 0.  0.
         23    2    4    4    0    0  0.41143158276E+03  0.26755748087E+03  0.86811949216E+03  0.10012549921E+04  0.89538559339E+02 0.  0.
          4    1    3    3  502    0 -0.66903672683E+01 -0.24640945707E+02  0.18324678685E+02  0.31428189074E+02  0.00000000000E+00 0. -1.
         -3    1    3    3    0  502 -0.51685916614E+02 -0.11818838360E+03 -0.88620566389E+02  0.15650409829E+03  0.00000000000E+00 0.  1.
         13    1    5    5    0    0 -0.23754580671E+03 -0.13145201612E+03  0.23935776731E+03  0.36193892247E+03  0.00000000000E+00 0. -1.
        -13    1    5    5    0    0 -0.11550949217E+03  0.67238645471E+01  0.11944275305E+03  0.16629559342E+03  0.00000000000E+00 0.  1.
          3    1    6    6  503    0  0.25816528481E+03  0.21681783519E+03  0.57063260006E+03  0.66278265833E+03  0.00000000000E+00 0. -1.
         -3    1    6    6    0  503  0.15326629796E+03  0.50739645683E+02  0.29748689211E+03  0.33847233374E+03  0.00000000000E+00 0.  1.
<mgrwt>
<rscale>  0 0.12695504E+04</rscale>
<asrwt>0</asrwt>
<pdfrwt beam="1">  1        2 0.22108045E+00 0.12695504E+04</pdfrwt>
<pdfrwt beam="2">  1       -1 0.43138283E-01 0.12695504E+04</pdfrwt>
<totfact> 0.81708994E+01</totfact>
</mgrwt>
</event>
<event>
12    7  0.2492439E-007  0.2773321E+04  0.7818608E-02  0.8311599E-01
          2   -1    0    0  501    0  0.00000000000E+00  0.00000000000E+00  0.86262932108E+03  0.86262932108E+03  0.00000000000E+00 0. -1.
         -1   -1    0    0    0  501 -0.00000000000E+00 -0.00000000000E+00 -0.22290307023E+04  0.22290307023E+04  0.00000000000E+00 0.  1.
         24    2    1    2    0    0  0.26497488197E+02 -0.97846099931E+03  0.23500528481E+03  0.10104935872E+04  0.88214295397E+02 0.  0.
        254    2    1    2    0    0 -0.26497488197E+02  0.97846099931E+03 -0.16014066661E+04  0.20811664362E+04  0.89925657122E+03 0.  0.
         23    2    4    4    0    0  0.17273432215E+03  0.57781532740E+02 -0.84503272186E+03  0.86961132229E+03  0.94697936980E+02 0.  0.
         23    2    4    4    0    0 -0.19923181035E+03  0.92067946657E+03 -0.75637394421E+03  0.12115551139E+04  0.91761953366E+02 0.  0.
          2    1    3    3  502    0  0.47566928346E+02 -0.51087260863E+03  0.15203625257E+03  0.53513405518E+03  0.00000000000E+00 0. -1.
         -1    1    3    3    0  502 -0.21069440149E+02 -0.46758839068E+03  0.82969032244E+02  0.47535953206E+03  0.00000000000E+00 0.  1.
         13    1    5    5    0    0  0.90408857301E+02  0.38520113868E+01 -0.23743223691E+03  0.25409184677E+03  0.00000000000E+00 0. -1.
        -13    1    5    5    0    0  0.82325464850E+02  0.53929521354E+02 -0.60760048495E+03  0.61551947552E+03  0.00000000000E+00 0.  1.
          1    1    6    6  503    0 -0.85544020108E+02  0.24144667171E+03 -0.23710324670E+03  0.34904473102E+03  0.00000000000E+00 0. -1.
         -1    1    6    6    0  503 -0.11368779024E+03  0.67923279485E+03 -0.51927069751E+03  0.86251038287E+03  0.00000000000E+00 0.  1.
<mgrwt>
<rscale>  0 0.27733209E+04</rscale>
<asrwt>0</asrwt>
<pdfrwt beam="1">  1        2 0.13271220E+00 0.27733209E+04</pdfrwt>
<pdfrwt beam="2">  1       -1 0.34292780E+00 0.27733209E+04</pdfrwt>
<totfact> 0.53512356E-01</totfact>
</mgrwt>
</event>
<event>
12    7  0.2492439E-007  0.1837907E+04  0.7818608E-02  0.8686397E-01
         -1   -1    0    0    0  501 -0.00000000000E+00  0.00000000000E+00  0.47226669933E+03  0.47226669933E+03  0.00000000000E+00 0.  1.
          2   -1    0    0  501    0  0.00000000000E+00 -0.00000000000E+00 -0.17881321840E+04  0.17881321840E+04  0.00000000000E+00 0. -1.
         24    2    1    2    0    0 -0.45353155491E+03 -0.38050392594E+03 -0.94544842713E+03  0.11184854900E+04  0.81626920363E+02 0.  0.
        254    2    1    2    0    0  0.45353155491E+03  0.38050392594E+03 -0.37041705750E+03  0.11419133932E+04  0.90348397452E+03 0.  0.
         23    2    4    4    0    0 -0.14618483667E+03  0.42975884414E+03 -0.87997987500E+02  0.47125099322E+03  0.90946040158E+02 0.  0.
         23    2    4    4    0    0  0.59971639157E+03 -0.49254918196E+02 -0.28241907000E+03  0.67066240002E+03  0.89116364447E+02 0.  0.
          2    1    3    3  502    0 -0.34121508300E+03 -0.23918094508E+03 -0.67808861898E+03  0.79588908306E+03  0.00000000000E+00 0. -1.
         -1    1    3    3    0  502 -0.11231647191E+03 -0.14132298086E+03 -0.26735980815E+03  0.32259640698E+03  0.00000000000E+00 0.  1.
         13    1    5    5    0    0 -0.13937178869E+03  0.36311727342E+03 -0.44742817091E+02  0.39151062492E+03  0.00000000000E+00 0.  1.
        -13    1    5    5    0    0 -0.68130479762E+01  0.66641570711E+02 -0.43255170408E+02  0.79740368300E+02  0.00000000000E+00 0. -1.
          3    1    6    6  503    0  0.25757908504E+02 -0.16547373036E+02 -0.11064018628E+01  0.30635102905E+02  0.00000000000E+00 0. -1.
         -3    1    6    6    0  503  0.57395848307E+03 -0.32707545159E+02 -0.28131266814E+03  0.64002729712E+03  0.00000000000E+00 0.  1.
<mgrwt>
<rscale>  0 0.18379067E+04</rscale>
<asrwt>0</asrwt>
<pdfrwt beam="1">  1        2 0.27509726E+00 0.18379067E+04</pdfrwt>
<pdfrwt beam="2">  1       -1 0.72656416E-01 0.18379067E+04</pdfrwt>
<totfact> 0.17939731E+01</totfact>
</mgrwt>
</event>
<event>
12    7  0.2492439E-007  0.2828533E+04  0.7818608E-02  0.8294464E-01
          2   -1    0    0  501    0  0.00000000000E+00  0.00000000000E+00  0.13102561664E+04  0.13102561664E+04  0.00000000000E+00 0. -1.
         -1   -1    0    0    0  501 -0.00000000000E+00 -0.00000000000E+00 -0.15265335747E+04  0.15265335747E+04  0.00000000000E+00 0.  1.
         24    2    1    2    0    0  0.22985390085E+03 -0.80494480846E+03 -0.10545785060E+04  0.13488479508E+04  0.80535759877E+02 0.  0.
        254    2    1    2    0    0 -0.22985390085E+03  0.80494480846E+03  0.83830109767E+03  0.14879417904E+04  0.90025167639E+03 0.  0.
         23    2    4    4    0    0 -0.55745387856E+03  0.62016355974E+03  0.62634975102E+03  0.10468280505E+04  0.90428364447E+02 0.  0.
         23    2    4    4    0    0  0.32759997771E+03  0.18478124871E+03  0.21195134665E+03  0.44111373992E+03  0.90510236598E+02 0.  0.
          4    1    3    3  502    0  0.74193552742E+02 -0.40644909531E+03 -0.51745967217E+03  0.66217072018E+03  0.00000000000E+00 0. -1.
         -3    1    3    3    0  502  0.15566034811E+03 -0.39849571315E+03 -0.53711883381E+03  0.68667723058E+03  0.00000000000E+00 0.  1.
         13    1    5    5    0    0 -0.31484791589E+03  0.38182690618E+03  0.41952132146E+03  0.64878281080E+03  0.00000000000E+00 0. -1.
        -13    1    5    5    0    0 -0.24260596267E+03  0.23833665356E+03  0.20682842955E+03  0.39804523967E+03  0.00000000000E+00 0.  1.
          1    1    6    6  503    0  0.22117562314E+03  0.10156385359E+03  0.91165458097E+02  0.25989423498E+03  0.00000000000E+00 0. -1.
         -1    1    6    6    0  503  0.10642435457E+03  0.83217395121E+02  0.12078588856E+03  0.18121950494E+03  0.00000000000E+00 0.  1.
<mgrwt>
<rscale>  0 0.28285332E+04</rscale>
<asrwt>0</asrwt>
<pdfrwt beam="1">  1        2 0.20157787E+00 0.28285332E+04</pdfrwt>
<pdfrwt beam="2">  1       -1 0.23485132E+00 0.28285332E+04</pdfrwt>
<totfact> 0.14135331E+00</totfact>
</mgrwt>
</event>
<event>
12    7  0.2492439E-007  0.2316669E+04  0.7818608E-02  0.8471378E-01
          2   -1    0    0  501    0  0.00000000000E+00  0.00000000000E+00  0.21837177209E+04  0.21837177209E+04  0.00000000000E+00 0. -1.
         -1   -1    0    0    0  501 -0.00000000000E+00 -0.00000000000E+00 -0.61442853825E+03  0.61442853825E+03  0.00000000000E+00 0.  1.
         24    2    1    2    0    0  0.97941568081E+03 -0.25761208485E+02  0.59364747471E+03  0.11483671172E+04  0.80068695848E+02 0.  0.
        254    2    1    2    0    0 -0.97941568081E+03  0.25761208485E+02  0.97564170796E+03  0.16497791419E+04  0.89998653277E+03 0.  0.
         23    2    4    4    0    0  0.90175426410E+02 -0.13135675873E+03  0.35847436723E+03  0.40150372580E+03  0.85528733613E+02 0.  0.
         23    2    4    4    0    0 -0.10695911072E+04  0.15711796721E+03  0.61716734072E+03  0.12482754161E+04  0.92654173211E+02 0.  0.
          2    1    3    3  502    0  0.52735453740E+03 -0.99303556968E+01  0.27302467091E+03  0.59392246212E+03  0.00000000000E+00 0. -1.
         -1    1    3    3    0  502  0.45206114341E+03 -0.15830852788E+02  0.32062280380E+03  0.55444465512E+03  0.00000000000E+00 0.  1.
         13    1    5    5    0    0  0.89038807523E+02 -0.10578614562E+03  0.21402727328E+03  0.25480638053E+03  0.00000000000E+00 0.  1.
        -13    1    5    5    0    0  0.11366188874E+01 -0.25570613106E+02  0.14444709395E+03  0.14669734526E+03  0.00000000000E+00 0. -1.
          3    1    6    6  503    0 -0.12607528968E+03 -0.11116137670E+02  0.67431290442E+02  0.14340685519E+03  0.00000000000E+00 0. -1.
         -3    1    6    6    0  503 -0.94351581753E+03  0.16823410488E+03  0.54973605028E+03  0.11048685609E+04  0.00000000000E+00 0.  1.
<mgrwt>
<rscale>  0 0.23166687E+04</rscale>
<asrwt>0</asrwt>
<pdfrwt beam="1">  1        2 0.33595657E+00 0.23166687E+04</pdfrwt>
<pdfrwt beam="2">  1       -1 0.94527469E-01 0.23166687E+04</pdfrwt>
<totfact> 0.58826698E+00</totfact>
</mgrwt>
</event>
<event>
12    7  0.2492439E-007  0.1547200E+04  0.7818608E-02  0.8853658E-01
          2   -1    0    0  501    0  0.00000000000E+00  0.00000000000E+00  0.31429185536E+03  0.31429185536E+03  0.00000000000E+00 0. -1.
         -1   -1    0    0    0  501 -0.00000000000E+00 -0.00000000000E+00 -0.19041434071E+04  0.19041434071E+04  0.00000000000E+00 0.  1.
         24    2    1    2    0    0  0.26096888097E+03  0.43257132413E+03 -0.53946236275E+03  0.74360518964E+03  0.81892184883E+02 0.  0.
        254    2    1    2    0    0 -0.26096888097E+03 -0.43257132413E+03 -0.10503891890E+04  0.14748300728E+04  0.90365014694E+03 0.  0.
         23    2    4    4    0    0 -0.14167596974E+02 -0.14976898273E+03  0.13861049911E+03  0.22458920336E+03  0.92714458458E+02 0.  0.
         23    2    4    4    0    0 -0.24680128399E+03 -0.28280234140E+03 -0.11889996881E+04  0.12502408695E+04  0.92162548198E+02 0.  0.
          2    1    3    3  502    0  0.12890737497E+03  0.18182015810E+03 -0.18415775049E+03  0.28911893449E+03  0.00000000000E+00 0. -1.
         -1    1    3    3    0  502  0.13206150600E+03  0.25075116603E+03 -0.35530461226E+03  0.45448625515E+03  0.00000000000E+00 0.  1.
         13    1    5    5    0    0 -0.20556666527E+02 -0.83768403206E+02  0.13236312701E+03  0.15798645292E+03  0.00000000000E+00 0.  1.
        -13    1    5    5    0    0  0.63890695530E+01 -0.66000579528E+02  0.62473721043E+01  0.66602750438E+02  0.00000000000E+00 0. -1.
          1    1    6    6  503    0 -0.10773586209E+02 -0.58917810743E+02 -0.22460445845E+03  0.23245331002E+03  0.00000000000E+00 0. -1.
         -1    1    6    6    0  503 -0.23602769778E+03 -0.22388453065E+03 -0.96439522966E+03  0.10177875595E+04  0.00000000000E+00 0.  1.
<mgrwt>
<rscale>  0 0.15471997E+04</rscale>
<asrwt>0</asrwt>
<pdfrwt beam="1">  1        2 0.48352594E-01 0.15471997E+04</pdfrwt>
<pdfrwt beam="2">  1       -1 0.29294513E+00 0.15471997E+04</pdfrwt>
<totfact> 0.42235121E+00</totfact>
</mgrwt>
</event>
<event>
12    7  0.2492439E-007  0.2812033E+04  0.7818608E-02  0.8299542E-01
          2   -1    0    0  501    0  0.00000000000E+00  0.00000000000E+00  0.31178571134E+04  0.31178571134E+04  0.00000000000E+00 0. -1.
         -1   -1    0    0    0  501 -0.00000000000E+00 -0.00000000000E+00 -0.63405164831E+03  0.63405164831E+03  0.00000000000E+00 0.  1.
         24    2    1    2    0    0 -0.11700596965E+04  0.46945018949E+03  0.11307085304E+04  0.16955551811E+04  0.83560860237E+02 0.  0.
        254    2    1    2    0    0  0.11700596965E+04 -0.46945018949E+03  0.13530969347E+04  0.20563535807E+04  0.89905259043E+03 0.  0.
         23    2    4    4    0    0  0.13003618301E+04 -0.36728536619E+03  0.12256331413E+04  0.18266998061E+04  0.93894382928E+02 0.  0.
         23    2    4    4    0    0 -0.13030213362E+03 -0.10216482331E+03  0.12746379338E+03  0.22965377457E+03  0.95276127143E+02 0.  0.
          2    1    3    3  502    0 -0.23071629107E+03  0.11835075844E+03  0.26498759864E+03  0.37074969510E+03  0.00000000000E+00 0. -1.
         -3    1    3    3    0  502 -0.93934340544E+03  0.35109943106E+03  0.86572093180E+03  0.13248054859E+04  0.00000000000E+00 0.  1.
         13    1    5    5    0    0  0.72047632313E+03 -0.20838399941E+03  0.74256350910E+03  0.10554196267E+04  0.00000000000E+00 0.  1.
        -13    1    5    5    0    0  0.57988550701E+03 -0.15890136678E+03  0.48306963222E+03  0.77128017942E+03  0.00000000000E+00 0. -1.
          1    1    6    6  503    0 -0.76976882110E+02 -0.38356987444E+02  0.11791976811E+03  0.14595126096E+03  0.00000000000E+00 0. -1.
         -1    1    6    6    0  503 -0.53325251512E+02 -0.63807835864E+02  0.95440252746E+01  0.83702513611E+02  0.00000000000E+00 0.  1.
<mgrwt>
<rscale>  0 0.28120330E+04</rscale>
<asrwt>0</asrwt>
<pdfrwt beam="1">  1        2 0.47967032E+00 0.28120330E+04</pdfrwt>
<pdfrwt beam="2">  1       -1 0.97546409E-01 0.28120330E+04</pdfrwt>
<totfact> 0.14599828E+00</totfact>
</mgrwt>
</event>
<event>
12    7  0.2492439E-007  0.2637881E+04  0.7818608E-02  0.8355447E-01
          2   -1    0    0  501    0  0.00000000000E+00  0.00000000000E+00  0.11982063440E+04  0.11982063440E+04  0.00000000000E+00 0. -1.
         -1   -1    0    0    0  501 -0.00000000000E+00 -0.00000000000E+00 -0.14518400665E+04  0.14518400665E+04  0.00000000000E+00 0.  1.
         24    2    1    2    0    0 -0.60934843312E+03  0.99043359760E+03 -0.71034494397E+02  0.11673614036E+04  0.73637782188E+02 0.  0.
        254    2    1    2    0    0  0.60934843312E+03 -0.99043359760E+03 -0.18259922803E+03  0.14826850069E+04  0.90152544467E+03 0.  0.
         23    2    4    4    0    0  0.32354078717E+03 -0.10588449161E+04  0.25488788950E+02  0.11113749881E+04  0.93131564937E+02 0.  0.
         23    2    4    4    0    0  0.28580764595E+03  0.68411318531E+02 -0.20808801698E+03  0.37131001881E+03  0.90578078310E+02 0.  0.
          4    1    3    3  502    0 -0.12911551422E+03  0.26479343651E+03 -0.31981043064E+02  0.29632611621E+03  0.00000000000E+00 0. -1.
         -3    1    3    3    0  502 -0.48023291890E+03  0.72564016109E+03 -0.39053451333E+02  0.87103528737E+03  0.00000000000E+00 0.  1.
         13    1    5    5    0    0  0.20482405509E+03 -0.57706796692E+03 -0.23379306341E+02  0.61278619758E+03  0.00000000000E+00 0. -1.
        -13    1    5    5    0    0  0.11871673208E+03 -0.48177694922E+03  0.48868095291E+02  0.49858879050E+03  0.00000000000E+00 0.  1.
          3    1    6    6  503    0  0.16070174635E+03  0.81638051631E+02 -0.14022542716E+03  0.22837029837E+03  0.00000000000E+00 0. -1.
         -3    1    6    6    0  503  0.12510589960E+03 -0.13226733100E+02 -0.67862589824E+02  0.14293972044E+03  0.00000000000E+00 0.  1.
<mgrwt>
<rscale>  0 0.26378810E+04</rscale>
<asrwt>0</asrwt>
<pdfrwt beam="1">  1        2 0.18433944E+00 0.26378810E+04</pdfrwt>
<pdfrwt beam="2">  1       -1 0.22336001E+00 0.26378810E+04</pdfrwt>
<totfact> 0.19938104E+00</totfact>
</mgrwt>
</event>
<event>
12    7  0.2492439E-007  0.1491718E+04  0.7818608E-02  0.8889979E-01
         -1   -1    0    0    0  501 -0.00000000000E+00  0.00000000000E+00  0.16180687342E+04  0.16180687342E+04  0.00000000000E+00 0.  1.
          2   -1    0    0  501    0  0.00000000000E+00 -0.00000000000E+00 -0.34380857936E+03  0.34380857936E+03  0.00000000000E+00 0. -1.
         24    2    1    2    0    0  0.47709364312E+02 -0.45632434630E+03  0.26201669204E+03  0.53381459481E+03  0.76139229420E+02 0.  0.
        254    2    1    2    0    0 -0.47709364312E+02  0.45632434630E+03  0.10122434628E+04  0.14280627188E+04  0.89678214091E+03 0.  0.
         23    2    4    4    0    0 -0.27279990323E+03  0.71425814886E+02 -0.21208980977E+02  0.29872488854E+03  0.96256448768E+02 0.  0.
         23    2    4    4    0    0  0.22509053891E+03  0.38489853141E+03  0.10334524438E+04  0.11293378302E+04  0.92559985962E+02 0.  0.
          4    1    3    3  502    0  0.51167624637E+02 -0.17316448612E+03  0.12192921560E+03  0.21787794445E+03  0.00000000000E+00 0. -1.
         -3    1    3    3    0  502 -0.34582603251E+01 -0.28315986018E+03  0.14008747645E+03  0.31593665036E+03  0.00000000000E+00 0.  1.
         13    1    5    5    0    0 -0.14055978557E+03  0.51715820172E+02  0.34808027786E+02  0.15376338373E+03  0.00000000000E+00 0. -1.
        -13    1    5    5    0    0 -0.13224011765E+03  0.19709994713E+02 -0.56017008763E+02  0.14496150482E+03  0.00000000000E+00 0.  1.
          1    1    6    6  503    0  0.18689148957E+03  0.24011354828E+03  0.65028311918E+03  0.71794921828E+03  0.00000000000E+00 0. -1.
         -1    1    6    6    0  503  0.38199049345E+02  0.14478498313E+03  0.38316932460E+03  0.41138861193E+03  0.00000000000E+00 0.  1.
<mgrwt>
<rscale>  0 0.14917184E+04</rscale>
<asrwt>0</asrwt>
<pdfrwt beam="1">  1        2 0.52893628E-01 0.14917184E+04</pdfrwt>
<pdfrwt beam="2">  1       -1 0.24893365E+00 0.14917184E+04</pdfrwt>
<totfact> 0.73958697E+00</totfact>
</mgrwt>
</event>
<event>
12    7  0.2492439E-007  0.3110169E+04  0.7818608E-02  0.8212953E-01
          2   -1    0    0  501    0  0.00000000000E+00  0.00000000000E+00  0.19464064847E+04  0.19464064847E+04  0.00000000000E+00 0. -1.
         -1   -1    0    0    0  501 -0.00000000000E+00 -0.00000000000E+00 -0.12424371217E+04  0.12424371217E+04  0.00000000000E+00 0.  1.
         24    2    1    2    0    0 -0.96709993587E+03 -0.87738335895E+03 -0.25992082056E+03  0.13337011419E+04  0.78205233306E+02 0.  0.
        254    2    1    2    0    0  0.96709993587E+03  0.87738335895E+03  0.96389018353E+03  0.18551424645E+04  0.89854628880E+03 0.  0.
         23    2    4    4    0    0  0.10952646412E+04  0.56708312847E+03  0.76515348654E+03  0.14544235775E+04  0.93274733231E+02 0.  0.
         23    2    4    4    0    0 -0.12816470532E+03  0.31030023048E+03  0.19873669699E+03  0.40071888703E+03  0.91470907750E+02 0.  0.
          4    1    3    3  502    0 -0.43064194003E+03 -0.43687518763E+03 -0.10278451548E+03  0.62199442658E+03  0.00000000000E+00 0. -1.
         -1    1    3    3    0  502 -0.53645799585E+03 -0.44050817132E+03 -0.15713630508E+03  0.71170671536E+03  0.00000000000E+00 0.  1.
         13    1    5    5    0    0  0.68932441195E+03  0.35409241946E+03  0.42727049588E+03  0.88493483550E+03  0.00000000000E+00 0.  1.
        -13    1    5    5    0    0  0.40594022924E+03  0.21299070902E+03  0.33788299065E+03  0.56948874196E+03  0.00000000000E+00 0. -1.
          2    1    6    6  503    0 -0.10635986969E+03  0.14997389556E+03  0.12858827848E+03  0.22436474008E+03  0.00000000000E+00 0. -1.
         -2    1    6    6    0  503 -0.21804835632E+02  0.16032633492E+03  0.70148418518E+02  0.17635414695E+03  0.00000000000E+00 0.  1.
<mgrwt>
<rscale>  0 0.31101689E+04</rscale>
<asrwt>0</asrwt>
<pdfrwt beam="1">  1        2 0.29944715E+00 0.31101689E+04</pdfrwt>
<pdfrwt beam="2">  1       -1 0.19114417E+00 0.31101689E+04</pdfrwt>
<totfact> 0.11979030E+00</totfact>
</mgrwt>
</event>
<event>
12    7  0.2492439E-007  0.2404703E+04  0.7818608E-02  0.8437745E-01
          2   -1    0    0  501    0  0.00000000000E+00  0.00000000000E+00  0.85347953336E+03  0.85347953336E+03  0.00000000000E+00 0. -1.
         -1   -1    0    0    0  501 -0.00000000000E+00 -0.00000000000E+00 -0.16938299382E+04  0.16938299382E+04  0.00000000000E+00 0.  1.
         24    2    1    2    0    0  0.50652232122E+02 -0.87006270562E+03 -0.94683235840E+03  0.12895685275E+04  0.83190815821E+02 0.  0.
        254    2    1    2    0    0 -0.50652232122E+02  0.87006270562E+03  0.10648195359E+03  0.12577409441E+04  0.90055489316E+03 0.  0.
         23    2    4    4    0    0  0.19723988032E+03  0.11218614214E+03  0.34259466994E+03  0.42120762324E+03  0.92495692495E+02 0.  0.
         23    2    4    4    0    0 -0.24789211244E+03  0.75787656348E+03 -0.23611271635E+03  0.83653332081E+03  0.90616759643E+02 0.  0.
          2    1    3    3  502    0  0.44233225451E+02 -0.17903199581E+03 -0.20313337840E+03  0.27435780138E+03  0.00000000000E+00 0. -1.
         -1    1    3    3    0  502  0.64190066716E+01 -0.69103070981E+03 -0.74369897999E+03  0.10152107261E+04  0.00000000000E+00 0.  1.
         13    1    5    5    0    0  0.99449363669E+01  0.15339779824E+02 -0.74020211958E+00  0.18296406849E+02  0.00000000000E+00 0.  1.
        -13    1    5    5    0    0  0.18729494395E+03  0.96846362316E+02  0.34333487206E+03  0.40291121640E+03  0.00000000000E+00 0. -1.
          1    1    6    6  503    0 -0.19500622474E+03  0.49558310328E+03 -0.12654681617E+03  0.54739760378E+03  0.00000000000E+00 0. -1.
         -1    1    6    6    0  503 -0.52885887703E+02  0.26229346020E+03 -0.10956590018E+03  0.28913571703E+03  0.00000000000E+00 0.  1.
<mgrwt>
<rscale>  0 0.24047030E+04</rscale>
<asrwt>0</asrwt>
<pdfrwt beam="1">  1        2 0.13130455E+00 0.24047030E+04</pdfrwt>
<pdfrwt beam="2">  1       -1 0.26058922E+00 0.24047030E+04</pdfrwt>
<totfact> 0.19244323E+00</totfact>
</mgrwt>
</event>
<event>
12    7  0.2492439E-007  0.1702923E+04  0.7818608E-02  0.8759699E-01
          2   -1    0    0  501    0  0.00000000000E+00  0.00000000000E+00  0.74356689054E+03  0.74356689054E+03  0.00000000000E+00 0. -1.
         -1   -1    0    0    0  501 -0.00000000000E+00 -0.00000000000E+00 -0.97501206530E+03  0.97501206530E+03  0.00000000000E+00 0.  1.
         24    2    1    2    0    0  0.44606872094E+03 -0.37221297864E+03 -0.27423978716E+03  0.64783015126E+03  0.83406467111E+02 0.  0.
        254    2    1    2    0    0 -0.44606872094E+03  0.37221297864E+03  0.42794612408E+02  0.10707488046E+04  0.89841628346E+03 0.  0.
         23    2    4    4    0    0  0.13637145665E+03  0.58597957962E+02  0.30664789488E+03  0.35299477978E+03  0.92420172329E+02 0.  0.
         23    2    4    4    0    0 -0.58244017758E+03  0.31361502068E+03 -0.26385328247E+03  0.71775402480E+03  0.89226362604E+02 0.  0.
          2    1    3    3  502    0  0.22548797288E+03 -0.18649448925E+03 -0.18411456090E+03  0.34572126341E+03  0.00000000000E+00 0. -1.
         -1    1    3    3    0  502  0.22058074806E+03 -0.18571848939E+03 -0.90125226263E+02  0.30210888786E+03  0.00000000000E+00 0.  1.
         13    1    5    5    0    0  0.30841037954E+02  0.49622357103E+02  0.56176562661E+02  0.81051552354E+02  0.00000000000E+00 0. -1.
        -13    1    5    5    0    0  0.10553041869E+03  0.89756008591E+01  0.25047133222E+03  0.27194322743E+03  0.00000000000E+00 0.  1.
          1    1    6    6  503    0 -0.43759233115E+03  0.22572745349E+03 -0.23613184706E+03  0.54607525190E+03  0.00000000000E+00 0. -1.
         -1    1    6    6    0  503 -0.14484784643E+03  0.87887567187E+02 -0.27721435410E+02  0.17167877290E+03  0.00000000000E+00 0.  1.
<mgrwt>
<rscale>  0 0.17029230E+04</rscale>
<asrwt>0</asrwt>
<pdfrwt beam="1">  1        2 0.11439491E+00 0.17029230E+04</pdfrwt>
<pdfrwt beam="2">  1       -1 0.15000186E+00 0.17029230E+04</pdfrwt>
<totfact> 0.14372270E+01</totfact>
</mgrwt>
</event>
<event>
12    7  0.2492439E-007  0.2118974E+04  0.7818608E-02  0.8552931E-01
          2   -1    0    0  501    0  0.00000000000E+00  0.00000000000E+00  0.26527849239E+04  0.26527849239E+04  0.00000000000E+00 0. -1.
         -1   -1    0    0    0  501 -0.00000000000E+00 -0.00000000000E+00 -0.42314513615E+03  0.42314513615E+03  0.00000000000E+00 0.  1.
         24    2    1    2    0    0 -0.21037010310E+03  0.84082892606E+03  0.86797738991E+03  0.12292700784E+04  0.80444472540E+02 0.  0.
        254    2    1    2    0    0  0.21037010310E+03 -0.84082892606E+03  0.13616623979E+04  0.18466599817E+04  0.89709516711E+03 0.  0.
         23    2    4    4    0    0  0.16612591117E+03 -0.16329210415E+03  0.10758633049E+04  0.11047580540E+04  0.93522069424E+02 0.  0.
         23    2    4    4    0    0  0.44244191928E+02 -0.67753682191E+03  0.28579909302E+03  0.74190192766E+03  0.87884328087E+02 0.  0.
          4    1    3    3  502    0 -0.11514583436E+03  0.57037492606E+03  0.61862342079E+03  0.84928267155E+03  0.00000000000E+00 0. -1.
         -3    1    3    3    0  502 -0.95224268739E+02  0.27045400001E+03  0.24935396911E+03  0.37998740688E+03  0.00000000000E+00 0.  1.
         13    1    5    5    0    0 -0.89694862096E+01 -0.72250115640E+01  0.11942568545E+03  0.11997977671E+03  0.00000000000E+00 0.  1.
        -13    1    5    5    0    0  0.17509539738E+03 -0.15606709258E+03  0.95643761943E+03  0.98477827729E+03  0.00000000000E+00 0. -1.
          4    1    6    6  503    0  0.42853742167E+02 -0.65298785727E+03  0.25459395829E+03  0.70217353165E+03  0.00000000000E+00 0. -1.
         -4    1    6    6    0  503  0.13904497603E+01 -0.24548964649E+02  0.31205134728E+02  0.39728396007E+02  0.00000000000E+00 0.  1.
<mgrwt>
<rscale>  0 0.21189743E+04</rscale>
<asrwt>0</asrwt>
<pdfrwt beam="1">  1        2 0.40812075E+00 0.21189743E+04</pdfrwt>
<pdfrwt beam="2">  1       -1 0.65099253E-01 0.21189743E+04</pdfrwt>
<totfact> 0.71004294E+00</totfact>
</mgrwt>
</event>
<event>
12    7  0.2492439E-007  0.1808975E+04  0.7818608E-02  0.8701541E-01
          2   -1    0    0  501    0  0.00000000000E+00  0.00000000000E+00  0.15440007310E+04  0.15440007310E+04  0.00000000000E+00 0. -1.
         -1   -1    0    0    0  501 -0.00000000000E+00 -0.00000000000E+00 -0.52985601504E+03  0.52985601504E+03  0.00000000000E+00 0.  1.
         24    2    1    2    0    0 -0.67447163317E+03  0.34600984193E+02  0.32500857618E+03  0.75363609136E+03  0.78914964008E+02 0.  0.
        254    2    1    2    0    0  0.67447163317E+03 -0.34600984193E+02  0.68913613977E+03  0.13202206547E+04  0.90109086434E+03 0.  0.
         23    2    4    4    0    0  0.88549298830E+03  0.20660330599E+01  0.50304467887E+03  0.10223479889E+04  0.89662482051E+02 0.  0.
         23    2    4    4    0    0 -0.21102135513E+03 -0.36667017253E+02  0.18609146089E+03  0.29787266574E+03  0.90684125965E+02 0.  0.
          4    1    3    3  502    0 -0.54566438612E+03  0.25587659446E+01  0.28117275748E+03  0.61385200913E+03  0.00000000000E+00 0. -1.
         -3    1    3    3    0  502 -0.12880724705E+03  0.32042218248E+02  0.43835818704E+02  0.13978408223E+03  0.00000000000E+00 0.  1.
         13    1    5    5    0    0  0.11342346991E+03  0.13247808637E+01  0.31721606576E+02  0.11778327086E+03  0.00000000000E+00 0.  1.
        -13    1    5    5    0    0  0.77206951840E+03  0.74125219621E+00  0.47132307230E+03  0.90456471807E+03  0.00000000000E+00 0. -1.
          4    1    6    6  503    0 -0.94297700474E+02 -0.21428404126E+02  0.27817291006E+02  0.10062323040E+03  0.00000000000E+00 0. -1.
         -4    1    6    6    0  503 -0.11672365466E+03 -0.15238613127E+02  0.15827416989E+03  0.19724943533E+03  0.00000000000E+00 0.  1.
<mgrwt>
<rscale>  0 0.18089755E+04</rscale>
<asrwt>0</asrwt>
<pdfrwt beam="1">  1        2 0.23753857E+00 0.18089755E+04</pdfrwt>
<pdfrwt beam="2">  1       -1 0.81516311E-01 0.18089755E+04</pdfrwt>
<totfact> 0.19310164E+01</totfact>
</mgrwt>
</event>
<event>
12    7  0.2492439E-007  0.2176040E+04  0.7818608E-02  0.8528467E-01
         -1   -1    0    0    0  501 -0.00000000000E+00  0.00000000000E+00  0.19418357703E+04  0.19418357703E+04  0.00000000000E+00 0.  1.
          2   -1    0    0  501    0  0.00000000000E+00 -0.00000000000E+00 -0.60962314799E+03  0.60962314799E+03  0.00000000000E+00 0. -1.
         24    2    1    2    0    0 -0.40333707884E+03  0.36596913984E+03 -0.28812873985E+03  0.61940509645E+03  0.63484583070E+02 0.  0.
        254    2    1    2    0    0  0.40333707884E+03 -0.36596913984E+03  0.16203413621E+04  0.19320538218E+04  0.90039526325E+03 0.  0.
         23    2    4    4    0    0  0.10214283914E+03 -0.35801614485E+03  0.15688311734E+04  0.16149350983E+04  0.90417926479E+02 0.  0.
         23    2    4    4    0    0  0.30119423970E+03 -0.79529949909E+01  0.51510188696E+02  0.31711872351E+03  0.84437936419E+02 0.  0.
          2    1    3    3  502    0 -0.29266436197E+03  0.22694632721E+03 -0.20371487708E+03  0.42267814629E+03  0.00000000000E+00 0. -1.
         -1    1    3    3    0  502 -0.11067271687E+03  0.13902281263E+03 -0.84413862775E+02  0.19672695016E+03  0.00000000000E+00 0.  1.
         13    1    5    5    0    0  0.91662190425E+02 -0.18059167189E+03  0.93319791918E+03  0.95492076398E+03  0.00000000000E+00 0. -1.
        -13    1    5    5    0    0  0.10480648719E+02 -0.17742447297E+03  0.63563325423E+03  0.66001433431E+03  0.00000000000E+00 0.  1.
          3    1    6    6  503    0  0.23934220630E+02 -0.22462642278E+02  0.18079625084E+02  0.37473858334E+02  0.00000000000E+00 0. -1.
         -3    1    6    6    0  503  0.27726001907E+03  0.14509647287E+02  0.33430563612E+02  0.27964486518E+03  0.00000000000E+00 0.  1.
<mgrwt>
<rscale>  0 0.21760405E+04</rscale>
<asrwt>0</asrwt>
<pdfrwt beam="1">  1        2 0.93788178E-01 0.21760405E+04</pdfrwt>
<pdfrwt beam="2">  1       -1 0.29874396E+00 0.21760405E+04</pdfrwt>
<totfact> 0.17121326E+00</totfact>
</mgrwt>
</event>
<event>
12    7  0.2492439E-007  0.1655454E+04  0.7818608E-02  0.8787187E-01
         -1   -1    0    0    0  501 -0.00000000000E+00  0.00000000000E+00  0.22919543163E+03  0.22919543163E+03  0.00000000000E+00 0.  1.
          2   -1    0    0  501    0  0.00000000000E+00 -0.00000000000E+00 -0.29892902522E+04  0.29892902522E+04  0.00000000000E+00 0. -1.
         24    2    1    2    0    0  0.98422904899E+02 -0.47389519506E+03 -0.15982861768E+04  0.16718450724E+04  0.79268651400E+02 0.  0.
        254    2    1    2    0    0 -0.98422904899E+02  0.47389519506E+03 -0.11618086438E+04  0.15466406115E+04  0.89890718768E+03 0.  0.
         23    2    4    4    0    0 -0.40508587857E+02  0.45523083460E+03 -0.12937698381E+04  0.13750014435E+04  0.88952330638E+02 0.  0.
         23    2    4    4    0    0 -0.57914317043E+02  0.18664360466E+02  0.13196119432E+03  0.17163916795E+03  0.91344516530E+02 0.  0.
          4    1    3    3  502    0  0.29499753410E+02 -0.11756608297E+03 -0.29403704165E+03  0.31804056530E+03  0.00000000000E+00 0. -1.
         -3    1    3    3    0  502  0.68923151489E+02 -0.35632911209E+03 -0.13042491351E+04  0.13538045071E+04  0.00000000000E+00 0.  1.
         13    1    5    5    0    0 -0.50361895796E+02  0.23912395751E+03 -0.58608630193E+03  0.63499113452E+03  0.00000000000E+00 0.  1.
        -13    1    5    5    0    0  0.98533079396E+01  0.21610687709E+03 -0.70768353619E+03  0.74001030898E+03  0.00000000000E+00 0. -1.
          3    1    6    6  503    0 -0.73426964086E+02  0.33838716592E+02  0.73441635111E+02  0.10922569095E+03  0.00000000000E+00 0. -1.
         -3    1    6    6    0  503  0.15512647044E+02 -0.15174356126E+02  0.58519559206E+02  0.62413477005E+02  0.00000000000E+00 0.  1.
<mgrwt>
<rscale>  0 0.16554536E+04</rscale>
<asrwt>0</asrwt>
<pdfrwt beam="1">  1        2 0.45989078E+00 0.16554536E+04</pdfrwt>
<pdfrwt beam="2">  1       -1 0.35260838E-01 0.16554536E+04</pdfrwt>
<totfact> 0.14797949E+01</totfact>
</mgrwt>
</event>
<event>
12    7  0.2492439E-007  0.1468553E+04  0.7818608E-02  0.8905638E-01
          2   -1    0    0  501    0  0.00000000000E+00  0.00000000000E+00  0.17560814421E+04  0.17560814421E+04  0.00000000000E+00 0. -1.
         -1   -1    0    0    0  501 -0.00000000000E+00 -0.00000000000E+00 -0.30702564286E+03  0.30702564286E+03  0.00000000000E+00 0.  1.
         24    2    1    2    0    0 -0.21322325083E+03  0.30248311590E+03  0.82109393204E+02  0.38509558489E+03  0.67797248864E+02 0.  0.
        254    2    1    2    0    0  0.21322325083E+03 -0.30248311590E+03  0.13669464060E+04  0.16780115001E+04  0.90012217352E+03 0.  0.
         23    2    4    4    0    0  0.14137987298E+03  0.25613275241E+03  0.86761843252E+03  0.92017522615E+03  0.91479216413E+02 0.  0.
         23    2    4    4    0    0  0.71843377846E+02 -0.55861586831E+03  0.49932797351E+03  0.75783627390E+03  0.88171614745E+02 0.  0.
          4    1    3    3  502    0 -0.93936387309E+02  0.12194497921E+03  0.67904304451E+02  0.16824273351E+03  0.00000000000E+00 0. -1.
         -3    1    3    3    0  502 -0.11928686352E+03  0.18053813669E+03  0.14205088754E+02  0.21685285138E+03  0.00000000000E+00 0.  1.
         13    1    5    5    0    0  0.23953112212E+02  0.12737886941E+03  0.43098771618E+03  0.45005504047E+03  0.00000000000E+00 0.  1.
        -13    1    5    5    0    0  0.11742676077E+03  0.12875388300E+03  0.43663071634E+03  0.47012018568E+03  0.00000000000E+00 0. -1.
          2    1    6    6  503    0  0.33062172808E+02 -0.19636054564E+03  0.23329171401E+03  0.30671745138E+03  0.00000000000E+00 0. -1.
         -2    1    6    6    0  503  0.38781205038E+02 -0.36225532267E+03  0.26603625950E+03  0.45111882253E+03  0.00000000000E+00 0.  1.
<mgrwt>
<rscale>  0 0.14685531E+04</rscale>
<asrwt>0</asrwt>
<pdfrwt beam="1">  1        2 0.27016637E+00 0.14685531E+04</pdfrwt>
<pdfrwt beam="2">  1       -1 0.47234715E-01 0.14685531E+04</pdfrwt>
<totfact> 0.45025402E+01</totfact>
</mgrwt>
</event>
<event>
12    7  0.2492439E-007  0.2705174E+04  0.7818608E-02  0.8333328E-01
         -1   -1    0    0    0  501 -0.00000000000E+00  0.00000000000E+00  0.39339975739E+03  0.39339975739E+03  0.00000000000E+00 0.  1.
          2   -1    0    0  501    0  0.00000000000E+00 -0.00000000000E+00 -0.46504646122E+04  0.46504646122E+04  0.00000000000E+00 0. -1.
         24    2    1    2    0    0  0.10988926286E+04  0.45501692222E+03 -0.22153743338E+04  0.25157412371E+04  0.80405996337E+02 0.  0.
        254    2    1    2    0    0 -0.10988926286E+04 -0.45501692222E+03 -0.20416905210E+04  0.25281231325E+04  0.89905560499E+03 0.  0.
         23    2    4    4    0    0 -0.37054545701E+03 -0.53242116898E+03 -0.51665439611E+03  0.83387456224E+03  0.87400135307E+02 0.  0.
         23    2    4    4    0    0 -0.72834717162E+03  0.77404246755E+02 -0.15250361249E+04  0.16942485703E+04  0.90895631528E+02 0.  0.
          4    1    3    3  502    0  0.20271436812E+03  0.88766010468E+02 -0.48073207417E+03  0.52922192584E+03  0.00000000000E+00 0. -1.
         -3    1    3    3    0  502  0.89617826050E+03  0.36625091175E+03 -0.17346422597E+04  0.19865193113E+04  0.00000000000E+00 0.  1.
         13    1    5    5    0    0 -0.28139622382E+03 -0.43383450269E+03 -0.36933602148E+03  0.63545677058E+03  0.00000000000E+00 0. -1.
        -13    1    5    5    0    0 -0.89149233185E+02 -0.98586666286E+02 -0.14731837463E+03  0.19841779167E+03  0.00000000000E+00 0.  1.
          1    1    6    6  503    0 -0.57092521426E+03  0.74869067995E+02 -0.11123748451E+04  0.12525728616E+04  0.00000000000E+00 0. -1.
         -1    1    6    6    0  503 -0.15742195736E+03  0.25351787602E+01 -0.41266127974E+03  0.44167570862E+03  0.00000000000E+00 0.  1.
<mgrwt>
<rscale>  0 0.27051740E+04</rscale>
<asrwt>0</asrwt>
<pdfrwt beam="1">  1        2 0.71545614E+00 0.27051740E+04</pdfrwt>
<pdfrwt beam="2">  1       -1 0.60523036E-01 0.27051740E+04</pdfrwt>
<totfact> 0.23986767E-01</totfact>
</mgrwt>
</event>
<event>
12    7  0.2492439E-007  0.1826365E+04  0.7818608E-02  0.8692403E-01
          2   -1    0    0  501    0  0.00000000000E+00  0.00000000000E+00  0.67460459539E+03  0.67460459539E+03  0.00000000000E+00 0. -1.
         -1   -1    0    0    0  501 -0.00000000000E+00 -0.00000000000E+00 -0.12361347487E+04  0.12361347487E+04  0.00000000000E+00 0.  1.
         24    2    1    2    0    0 -0.12107224114E+02 -0.59034078282E+03 -0.58367134289E+03  0.83407518828E+03  0.79751855514E+02 0.  0.
        254    2    1    2    0    0  0.12107224114E+02  0.59034078282E+03  0.22141189544E+02  0.10766641558E+04  0.90003702560E+03 0.  0.
         23    2    4    4    0    0 -0.31005029301E+03 -0.19066206067E+02  0.17017387437E+03  0.36580963704E+03  0.91448557256E+02 0.  0.
         23    2    4    4    0    0  0.32215751712E+03  0.60940698889E+03 -0.14803268483E+03  0.71085451880E+03  0.90764129317E+02 0.  0.
          2    1    3    3  502    0 -0.22547094877E+02 -0.22778783198E+03 -0.17846962772E+03  0.29025346838E+03  0.00000000000E+00 0. -1.
         -1    1    3    3    0  502  0.10439870762E+02 -0.36255295084E+03 -0.40520171516E+03  0.54382171990E+03  0.00000000000E+00 0.  1.
         13    1    5    5    0    0 -0.15198978107E+03  0.28712696979E+02  0.11107452711E+03  0.19042810478E+03  0.00000000000E+00 0.  1.
        -13    1    5    5    0    0 -0.15806051194E+03 -0.47778903046E+02  0.59099347255E+02  0.17538153226E+03  0.00000000000E+00 0. -1.
          3    1    6    6  503    0  0.28908737385E+03  0.56252231680E+03 -0.15969329530E+03  0.65230730119E+03  0.00000000000E+00 0.  1.
         -3    1    6    6    0  503  0.33070143277E+02  0.46884672090E+02  0.11660610477E+02  0.58547217612E+02  0.00000000000E+00 0. -1.
<mgrwt>
<rscale>  0 0.18263649E+04</rscale>
<asrwt>0</asrwt>
<pdfrwt beam="1">  1        2 0.10378532E+00 0.18263649E+04</pdfrwt>
<pdfrwt beam="2">  1       -1 0.19017458E+00 0.18263649E+04</pdfrwt>
<totfact> 0.81358978E+00</totfact>
</mgrwt>
</event>
<event>
12    7  0.2492439E-007  0.1844807E+04  0.7818608E-02  0.8682828E-01
         -1   -1    0    0    0  501 -0.00000000000E+00  0.00000000000E+00  0.17404724603E+04  0.17404724603E+04  0.00000000000E+00 0.  1.
          2   -1    0    0  501    0  0.00000000000E+00 -0.00000000000E+00 -0.48884902485E+03  0.48884902485E+03  0.00000000000E+00 0. -1.
         24    2    1    2    0    0 -0.44311956254E+03 -0.52758558924E+03  0.34781160155E+03  0.77602224264E+03  0.80846213437E+02 0.  0.
        254    2    1    2    0    0  0.44311956254E+03  0.52758558924E+03  0.90381183395E+03  0.14532992426E+04  0.90581529936E+03 0.  0.
         23    2    4    4    0    0 -0.77723703475E+02 -0.10904806688E+03 -0.68928899220E+02  0.17626373267E+03  0.91571039822E+02 0.  0.
         23    2    4    4    0    0  0.52084326602E+03  0.63663365611E+03  0.97274073317E+03  0.12770355099E+04  0.89526754132E+02 0.  0.
          2    1    3    3  502    0 -0.11743991796E+03 -0.14932264484E+03  0.13680872839E+03  0.23410684475E+03  0.00000000000E+00 0. -1.
         -1    1    3    3    0  502 -0.32567964458E+03 -0.37826294440E+03  0.21100287316E+03  0.54191539790E+03  0.00000000000E+00 0.  1.
         13    1    5    5    0    0 -0.63045398885E+02 -0.12436477308E+03 -0.50929706475E+02  0.14844242691E+03  0.00000000000E+00 0.  1.
        -13    1    5    5    0    0 -0.14678304590E+02  0.15316706206E+02 -0.17999192745E+02  0.27821305759E+02  0.00000000000E+00 0. -1.
          1    1    6    6  503    0  0.59034527195E+02  0.38565851451E+02  0.10412637266E+03  0.12575651785E+03  0.00000000000E+00 0. -1.
         -1    1    6    6    0  503  0.46180873882E+03  0.59806780466E+03  0.86861436051E+03  0.11512789920E+04  0.00000000000E+00 0.  1.
<mgrwt>
<rscale>  0 0.18448071E+04</rscale>
<asrwt>0</asrwt>
<pdfrwt beam="1">  1        2 0.75207544E-01 0.18448071E+04</pdfrwt>
<pdfrwt beam="2">  1       -1 0.26776499E+00 0.18448071E+04</pdfrwt>
<totfact> 0.36316170E+00</totfact>
</mgrwt>
</event>
<event>
12    7  0.2492439E-007  0.1883909E+04  0.7818608E-02  0.8662908E-01
          2   -1    0    0  501    0  0.00000000000E+00  0.00000000000E+00  0.11416798807E+04  0.11416798807E+04  0.00000000000E+00 0. -1.
         -1   -1    0    0    0  501 -0.00000000000E+00 -0.00000000000E+00 -0.77716891005E+03  0.77716891005E+03  0.00000000000E+00 0.  1.
         24    2    1    2    0    0  0.28315112250E+03 -0.24607236455E+03  0.77059344256E+03  0.86062116594E+03  0.78283911374E+02 0.  0.
        254    2    1    2    0    0 -0.28315112250E+03  0.24607236455E+03 -0.40608247192E+03  0.10582276248E+04  0.90233949549E+03 0.  0.
         23    2    4    4    0    0 -0.59724330301E+03  0.95134266700E+02 -0.20882647760E+03  0.64752601525E+03  0.99656163825E+02 0.  0.
         23    2    4    4    0    0  0.31409218051E+03  0.15093809785E+03 -0.19725599432E+03  0.41070160955E+03  0.91267067204E+02 0.  0.
          2    1    3    3  502    0  0.19248629951E+03 -0.12209281289E+03  0.42023544306E+03  0.47807474108E+03  0.00000000000E+00 0. -1.
         -1    1    3    3    0  502  0.90664822997E+02 -0.12397955166E+03  0.35035799950E+03  0.38254642486E+03  0.00000000000E+00 0.  1.
         13    1    5    5    0    0 -0.43190056247E+03  0.55966075440E+02 -0.10360207765E+03  0.44766470483E+03  0.00000000000E+00 0. -1.
        -13    1    5    5    0    0 -0.16534274054E+03  0.39168191260E+02 -0.10522439995E+03  0.19986131042E+03  0.00000000000E+00 0.  1.
          4    1    6    6  503    0  0.90894231109E+02  0.48735989273E+02 -0.10841608610E+03  0.14963624436E+03  0.00000000000E+00 0. -1.
         -4    1    6    6    0  503  0.22319794940E+03  0.10220210858E+03 -0.88839908218E+02  0.26106536520E+03  0.00000000000E+00 0.  1.
<mgrwt>
<rscale>  0 0.18839088E+04</rscale>
<asrwt>0</asrwt>
<pdfrwt beam="1">  1        2 0.17564306E+00 0.18839088E+04</pdfrwt>
<pdfrwt beam="2">  1       -1 0.11956445E+00 0.18839088E+04</pdfrwt>
<totfact> 0.13722304E+01</totfact>
</mgrwt>
</event>
<event>
12    7  0.2492439E-007  0.1766860E+04  0.7818608E-02  0.8724124E-01
          2   -1    0    0  501    0  0.00000000000E+00  0.00000000000E+00  0.12216493219E+04  0.12216493219E+04  0.00000000000E+00 0. -1.
         -1   -1    0    0    0  501 -0.00000000000E+00 -0.00000000000E+00 -0.63884852030E+03  0.63884852030E+03  0.00000000000E+00 0.  1.
         24    2    1    2    0    0 -0.32142534654E+03 -0.54895599071E+03  0.71127749539E+02  0.64500066495E+03  0.79371077183E+02 0.  0.
        254    2    1    2    0    0  0.32142534654E+03  0.54895599071E+03  0.51167305202E+03  0.12154971772E+04  0.90053158886E+03 0.  0.
         23    2    4    4    0    0  0.30466466282E+03  0.36576716051E+03 -0.16319917910E+03  0.51100139984E+03  0.88782239791E+02 0.  0.
         23    2    4    4    0    0  0.16760683720E+02  0.18318883020E+03  0.67487223112E+03  0.70449577738E+03  0.83801575045E+02 0.  0.
          2    1    3    3  502    0 -0.27648456768E+03 -0.40669160012E+03  0.59351569410E+02  0.49534269205E+03  0.00000000000E+00 0. -1.
         -1    1    3    3    0  502 -0.44940778863E+02 -0.14226439059E+03  0.11776180129E+02  0.14965797290E+03  0.00000000000E+00 0.  1.
         13    1    5    5    0    0  0.20396861642E+03  0.21222107397E+03 -0.13992086007E+03  0.32591230079E+03  0.00000000000E+00 0. -1.
        -13    1    5    5    0    0  0.10069604640E+03  0.15354608654E+03 -0.23278319029E+02  0.18508909905E+03  0.00000000000E+00 0.  1.
          1    1    6    6  503    0  0.18992874390E+02  0.17174770624E+03  0.49586882875E+03  0.52511322512E+03  0.00000000000E+00 0. -1.
         -1    1    6    6    0  503 -0.22321906701E+01  0.11441123958E+02  0.17900340237E+03  0.17938255226E+03  0.00000000000E+00 0.  1.
<mgrwt>
<rscale>  0 0.17668603E+04</rscale>
<asrwt>0</asrwt>
<pdfrwt beam="1">  1        2 0.18794605E+00 0.17668603E+04</pdfrwt>
<pdfrwt beam="2">  1       -1 0.98284388E-01 0.17668603E+04</pdfrwt>
<totfact> 0.19676785E+01</totfact>
</mgrwt>
</event>
<event>
12    7  0.2492439E-007  0.1625910E+04  0.7818608E-02  0.8804787E-01
          4   -1    0    0  501    0  0.00000000000E+00  0.00000000000E+00  0.58717430615E+03  0.58717430615E+03  0.00000000000E+00 0. -1.
         -3   -1    0    0    0  501 -0.00000000000E+00 -0.00000000000E+00 -0.11255525085E+04  0.11255525085E+04  0.00000000000E+00 0.  1.
         24    2    1    2    0    0  0.22030565867E+03 -0.23862912141E+03 -0.66805558496E+03  0.74682477453E+03  0.77269259240E+02 0.  0.
        254    2    1    2    0    0 -0.22030565867E+03  0.23862912141E+03  0.12967738258E+03  0.96590204015E+03  0.90037330413E+03 0.  0.
         23    2    4    4    0    0  0.24184914071E+03 -0.16099281520E+03 -0.79949087375E+02  0.31344206882E+03  0.86280823638E+02 0.  0.
         23    2    4    4    0    0 -0.46215479938E+03  0.39962193661E+03  0.20962646996E+03  0.65245997133E+03  0.92065229437E+02 0.  0.
          2    1    3    3  502    0  0.26738130963E+02 -0.72212140415E+02 -0.18704050735E+03  0.20227128383E+03  0.00000000000E+00 0. -1.
         -1    1    3    3    0  502  0.19356752771E+03 -0.16641698099E+03 -0.48101507761E+03  0.54455349070E+03  0.00000000000E+00 0.  1.
         13    1    5    5    0    0  0.10533628758E+03 -0.21695890997E+02 -0.19924119671E+02  0.10937740037E+03  0.00000000000E+00 0.  1.
        -13    1    5    5    0    0  0.13651285313E+03 -0.13929692420E+03 -0.60024967704E+02  0.20406466845E+03  0.00000000000E+00 0. -1.
          4    1    6    6  503    0 -0.21385251696E+03  0.21206312387E+03  0.59632340970E+02  0.30701739952E+03  0.00000000000E+00 0. -1.
         -4    1    6    6    0  503 -0.24830228242E+03  0.18755881274E+03  0.14999412899E+03  0.34544257181E+03  0.00000000000E+00 0.  1.
<mgrwt>
<rscale>  0 0.16259096E+04</rscale>
<asrwt>0</asrwt>
<pdfrwt beam="1">  1        4 0.90334508E-01 0.16259096E+04</pdfrwt>
<pdfrwt beam="2">  1       -3 0.17316193E+00 0.16259096E+04</pdfrwt>
<totfact> 0.50560235E-01</totfact>
</mgrwt>
</event>
<event>
12    7  0.2492439E-007  0.2079561E+04  0.7818608E-02  0.8570301E-01
         -1   -1    0    0    0  501 -0.00000000000E+00  0.00000000000E+00  0.47312475996E+03  0.47312475996E+03  0.00000000000E+00 0.  1.
          2   -1    0    0  501    0  0.00000000000E+00 -0.00000000000E+00 -0.22851120977E+04  0.22851120977E+04  0.00000000000E+00 0. -1.
         24    2    1    2    0    0  0.72022643567E+02  0.83703257273E+03 -0.63639448183E+03  0.10562032705E+04  0.68968276467E+02 0.  0.
        254    2    1    2    0    0 -0.72022643567E+02 -0.83703257273E+03 -0.11755928559E+04  0.17020335871E+04  0.89949373530E+03 0.  0.
         23    2    4    4    0    0 -0.30594639384E+03  0.36682127911E+02 -0.30050075101E+03  0.43986892070E+03  0.90747956582E+02 0.  0.
         23    2    4    4    0    0  0.23392375028E+03 -0.87371470065E+03 -0.87509210488E+03  0.12621646664E+04  0.95790156394E+02 0.  0.
          4    1    3    3  502    0  0.78961085029E+02  0.62146199803E+03 -0.45288114253E+03  0.77301435770E+03  0.00000000000E+00 0. -1.
         -3    1    3    3    0  502 -0.69384414625E+01  0.21557057470E+03 -0.18351333930E+03  0.28318891282E+03  0.00000000000E+00 0.  1.
         13    1    5    5    0    0 -0.12937446907E+03 -0.25436848607E+02 -0.14980820181E+03  0.19956774250E+03  0.00000000000E+00 0.  1.
        -13    1    5    5    0    0 -0.17657192477E+03  0.62118976518E+02 -0.15069254920E+03  0.24030117820E+03  0.00000000000E+00 0. -1.
          4    1    6    6  503    0  0.23055653777E+03 -0.87565252844E+03 -0.87277800197E+03  0.12576426791E+04  0.00000000000E+00 0. -1.
         -4    1    6    6    0  503  0.33672125084E+01  0.19378277969E+01 -0.23141029105E+01  0.45219872764E+01  0.00000000000E+00 0.  1.
<mgrwt>
<rscale>  0 0.20795606E+04</rscale>
<asrwt>0</asrwt>
<pdfrwt beam="1">  1        2 0.35155572E+00 0.20795606E+04</pdfrwt>
<pdfrwt beam="2">  1       -1 0.72788423E-01 0.20795606E+04</pdfrwt>
<totfact> 0.92441024E+00</totfact>
</mgrwt>
</event>
<event>
12    7  0.2492439E-007  0.1439350E+04  0.7818608E-02  0.8925818E-01
         -1   -1    0    0    0  501 -0.00000000000E+00  0.00000000000E+00  0.73680059402E+03  0.73680059402E+03  0.00000000000E+00 0.  1.
          2   -1    0    0  501    0  0.00000000000E+00 -0.00000000000E+00 -0.70294708373E+03  0.70294708373E+03  0.00000000000E+00 0. -1.
         24    2    1    2    0    0 -0.12778608935E+03  0.40322792984E+03 -0.87780837919E+02  0.43937555914E+03  0.80145857191E+02 0.  0.
        254    2    1    2    0    0  0.12778608935E+03 -0.40322792984E+03  0.12163434821E+03  0.10003721186E+04  0.89834704485E+03 0.  0.
         23    2    4    4    0    0  0.42906722535E+03  0.20670102419E+02  0.16740963523E+03  0.47022590799E+03  0.92522870527E+02 0.  0.
         23    2    4    4    0    0 -0.30128113600E+03 -0.42389803226E+03 -0.45775287018E+02  0.53014621062E+03  0.92194159606E+02 0.  0.
          4    1    3    3  502    0 -0.11994317872E+03  0.38607516227E+03 -0.10055579260E+03  0.41659556463E+03  0.00000000000E+00 0. -1.
         -3    1    3    3    0  502 -0.78429106329E+01  0.17152767569E+02  0.12774954684E+02  0.22779994505E+02  0.00000000000E+00 0.  1.
         13    1    5    5    0    0  0.36080389561E+03  0.50374891618E+02  0.12911028213E+03  0.38650555720E+03  0.00000000000E+00 0.  1.
        -13    1    5    5    0    0  0.68263329743E+02 -0.29704789198E+02  0.38299353096E+02  0.83720350791E+02  0.00000000000E+00 0. -1.
          3    1    6    6  503    0 -0.94080519175E+01 -0.64470376888E+02 -0.50391426394E+01  0.65347791818E+02  0.00000000000E+00 0. -1.
         -3    1    6    6    0  503 -0.29187308408E+03 -0.35942765537E+03 -0.40736144379E+02  0.46479841880E+03  0.00000000000E+00 0.  1.
<mgrwt>
<rscale>  0 0.14393496E+04</rscale>
<asrwt>0</asrwt>
<pdfrwt beam="1">  1        2 0.10814571E+00 0.14393496E+04</pdfrwt>
<pdfrwt beam="2">  1       -1 0.11335394E+00 0.14393496E+04</pdfrwt>
<totfact> 0.32112927E+01</totfact>
</mgrwt>
</event>
<event>
12    7  0.2492439E-007  0.2605570E+04  0.7818608E-02  0.8366312E-01
         -1   -1    0    0    0  501 -0.00000000000E+00  0.00000000000E+00  0.69210731731E+03  0.69210731731E+03  0.00000000000E+00 0.  1.
          2   -1    0    0  501    0  0.00000000000E+00 -0.00000000000E+00 -0.24522907645E+04  0.24522907645E+04  0.00000000000E+00 0. -1.
         24    2    1    2    0    0 -0.13630255442E+03 -0.10329480252E+04 -0.13490574549E+04  0.17063747309E+04  0.78731800084E+02 0.  0.
        254    2    1    2    0    0  0.13630255442E+03  0.10329480252E+04 -0.41112599230E+03  0.14380233510E+04  0.90184619937E+03 0.  0.
         23    2    4    4    0    0 -0.45551453594E+02  0.17348739709E+03  0.26052725868E+03  0.32890016534E+03  0.90155722912E+02 0.  0.
         23    2    4    4    0    0  0.18185400801E+03  0.85946062811E+03 -0.67165325098E+03  0.11091231856E+04  0.85397306039E+02 0.  0.
          2    1    3    3  502    0 -0.69463966004E+02 -0.42061903474E+03 -0.61144224278E+03  0.74539065678E+03  0.00000000000E+00 0. -1.
         -1    1    3    3    0  502 -0.66838588411E+02 -0.61232899046E+03 -0.73761521213E+03  0.96098407408E+03  0.00000000000E+00 0.  1.
         13    1    5    5    0    0 -0.61887120682E+02  0.16820452953E+03  0.21303694092E+03  0.27840171992E+03  0.00000000000E+00 0. -1.
        -13    1    5    5    0    0  0.16335667088E+02  0.52828675641E+01  0.47490317760E+02  0.50498445420E+02  0.00000000000E+00 0.  1.
          3    1    6    6  503    0  0.16105112519E+03  0.71046434168E+03 -0.51651434399E+03  0.89301966007E+03  0.00000000000E+00 0. -1.
         -3    1    6    6    0  503  0.20802882822E+02  0.14899628643E+03 -0.15513890699E+03  0.21610352557E+03  0.00000000000E+00 0.  1.
<mgrwt>
<rscale>  0 0.26055697E+04</rscale>
<asrwt>0</asrwt>
<pdfrwt beam="1">  1        2 0.37727551E+00 0.26055697E+04</pdfrwt>
<pdfrwt beam="2">  1       -1 0.10647805E+00 0.26055697E+04</pdfrwt>
<totfact> 0.30725997E+00</totfact>
</mgrwt>
</event>
<event>
12    7  0.2492439E-007  0.1446676E+04  0.7818608E-02  0.8920708E-01
         -1   -1    0    0    0  501 -0.00000000000E+00  0.00000000000E+00  0.22657374019E+03  0.22657374019E+03  0.00000000000E+00 0.  1.
          2   -1    0    0  501    0  0.00000000000E+00 -0.00000000000E+00 -0.23092611482E+04  0.23092611482E+04  0.00000000000E+00 0. -1.
         24    2    1    2    0    0 -0.30094506109E+03  0.23198075561E+03 -0.10214071809E+04  0.10926522602E+04  0.78951451282E+02 0.  0.
        254    2    1    2    0    0  0.30094506109E+03 -0.23198075561E+03 -0.10612802271E+04  0.14431826282E+04  0.90115335943E+03 0.  0.
         23    2    4    4    0    0  0.86779521919E+02  0.32945800582E+03 -0.52182911440E+03  0.63070903299E+03  0.97030905559E+02 0.  0.
         23    2    4    4    0    0  0.21416553917E+03 -0.56143876143E+03 -0.53945111270E+03  0.81247359524E+03  0.89585037595E+02 0.  0.
          2    1    3    3  502    0 -0.73913693288E+02  0.18485798341E+02 -0.21685959495E+03  0.22985439460E+03  0.00000000000E+00 0. -1.
         -1    1    3    3    0  502 -0.22703136780E+03  0.21349495727E+03 -0.80454758599E+03  0.86279786559E+03  0.00000000000E+00 0.  1.
         13    1    5    5    0    0  0.12361296395E+02  0.21973041728E+03 -0.29621782520E+03  0.36902473886E+03  0.00000000000E+00 0. -1.
        -13    1    5    5    0    0  0.74418225524E+02  0.10972758854E+03 -0.22561128921E+03  0.26168429413E+03  0.00000000000E+00 0.  1.
          4    1    6    6  503    0  0.16200808145E+03 -0.35516152586E+03 -0.39469710079E+03  0.55513253307E+03  0.00000000000E+00 0. -1.
         -4    1    6    6    0  503  0.52157457713E+02 -0.20627723558E+03 -0.14475401191E+03  0.25734106216E+03  0.00000000000E+00 0.  1.
<mgrwt>
<rscale>  0 0.14466761E+04</rscale>
<asrwt>0</asrwt>
<pdfrwt beam="1">  1        2 0.35527093E+00 0.14466761E+04</pdfrwt>
<pdfrwt beam="2">  1       -1 0.34857500E-01 0.14466761E+04</pdfrwt>
<totfact> 0.38755463E+01</totfact>
</mgrwt>
</event>
<event>
12    7  0.2492439E-007  0.1482733E+04  0.7818608E-02  0.8896017E-01
          2   -1    0    0  501    0  0.00000000000E+00  0.00000000000E+00  0.12437383676E+04  0.12437383676E+04  0.00000000000E+00 0. -1.
         -1   -1    0    0    0  501 -0.00000000000E+00 -0.00000000000E+00 -0.44191284101E+03  0.44191284101E+03  0.00000000000E+00 0.  1.
         24    2    1    2    0    0 -0.44377597440E+03 -0.12304513175E+03  0.20046248135E+03  0.50866945882E+03  0.80512061203E+02 0.  0.
        254    2    1    2    0    0  0.44377597440E+03  0.12304513175E+03  0.60136304520E+03  0.11769817497E+04  0.90087252550E+03 0.  0.
         23    2    4    4    0    0  0.66146481844E+03 -0.11175762237E+03  0.36918539436E+03  0.77087019931E+03  0.88980540498E+02 0.  0.
         23    2    4    4    0    0 -0.21768884404E+03  0.23480275412E+03  0.23217765084E+03  0.40611155043E+03  0.92191993582E+02 0.  0.
          4    1    3    3  502    0 -0.20992211898E+02 -0.22508181243E+02  0.26342086767E+02  0.40511686197E+02  0.00000000000E+00 0. -1.
         -3    1    3    3    0  502 -0.42278376250E+03 -0.10053695051E+03  0.17412039458E+03  0.46815777262E+03  0.00000000000E+00 0.  1.
         13    1    5    5    0    0  0.56821925107E+02  0.15294707355E+02  0.30316792945E+02  0.66194918086E+02  0.00000000000E+00 0. -1.
        -13    1    5    5    0    0  0.60464289334E+03 -0.12705232972E+03  0.33886860141E+03  0.70467528123E+03  0.00000000000E+00 0.  1.
          1    1    6    6  503    0 -0.36600598716E+02 -0.56790003576E-01  0.27204684529E+02  0.45603748879E+02  0.00000000000E+00 0. -1.
         -1    1    6    6    0  503 -0.18108824532E+03  0.23485954412E+03  0.20497296631E+03  0.36050780155E+03  0.00000000000E+00 0.  1.
<mgrwt>
<rscale>  0 0.14827326E+04</rscale>
<asrwt>0</asrwt>
<pdfrwt beam="1">  1        2 0.19134436E+00 0.14827326E+04</pdfrwt>
<pdfrwt beam="2">  1       -1 0.67986592E-01 0.14827326E+04</pdfrwt>
<totfact> 0.43101483E+01</totfact>
</mgrwt>
</event>
<event>
12    7  0.2492439E-007  0.3914455E+04  0.7818608E-02  0.8022030E-01
          2   -1    0    0  501    0  0.00000000000E+00  0.00000000000E+00  0.34983868507E+04  0.34983868507E+04  0.00000000000E+00 0. -1.
         -1   -1    0    0    0  501 -0.00000000000E+00 -0.00000000000E+00 -0.10950015241E+04  0.10950015241E+04  0.00000000000E+00 0.  1.
         24    2    1    2    0    0  0.14250589033E+03 -0.51691274876E+03 -0.94266828554E+03  0.10874443090E+04  0.80030682070E+02 0.  0.
        254    2    1    2    0    0 -0.14250589033E+03  0.51691274876E+03  0.33460536121E+04  0.35059440657E+04  0.89892285442E+03 0.  0.
         23    2    4    4    0    0 -0.24753059223E+03  0.70459119690E+03  0.29485289835E+04  0.30430129998E+04  0.91568563754E+02 0.  0.
         23    2    4    4    0    0  0.10502470190E+03 -0.18767844814E+03  0.39752462866E+03  0.46293106592E+03  0.10012968337E+03 0.  0.
          2    1    3    3  502    0  0.56455600537E+02 -0.97865200802E+02 -0.16695450599E+03  0.20159027613E+03  0.00000000000E+00 0. -1.
         -1    1    3    3    0  502  0.86050289791E+02 -0.41904754796E+03 -0.77571377955E+03  0.88585403290E+03  0.00000000000E+00 0.  1.
         13    1    5    5    0    0 -0.21347447996E+02  0.17369412155E+02  0.77949785566E+02  0.82665464883E+02  0.00000000000E+00 0. -1.
        -13    1    5    5    0    0 -0.22618314423E+03  0.68722178475E+03  0.28705791979E+04  0.29603475349E+04  0.00000000000E+00 0.  1.
          4    1    6    6  503    0  0.49751353250E+02 -0.77041804927E+02  0.27058609384E+03  0.28570521702E+03  0.00000000000E+00 0. -1.
         -4    1    6    6    0  503  0.55273348648E+02 -0.11063664321E+03  0.12693853483E+03  0.17722584889E+03  0.00000000000E+00 0.  1.
<mgrwt>
<rscale>  0 0.39144547E+04</rscale>
<asrwt>0</asrwt>
<pdfrwt beam="1">  1        2 0.53821336E+00 0.39144547E+04</pdfrwt>
<pdfrwt beam="2">  1       -1 0.16846177E+00 0.39144547E+04</pdfrwt>
<totfact> 0.18525721E-01</totfact>
</mgrwt>
</event>
<event>
12    7  0.2492439E-007  0.2588230E+04  0.7818608E-02  0.8372210E-01
          2   -1    0    0  501    0  0.00000000000E+00  0.00000000000E+00  0.15652433996E+04  0.15652433996E+04  0.00000000000E+00 0. -1.
         -1   -1    0    0    0  501 -0.00000000000E+00 -0.00000000000E+00 -0.10699509434E+04  0.10699509434E+04  0.00000000000E+00 0.  1.
         24    2    1    2    0    0 -0.77036633424E+03 -0.37360607213E+03 -0.54164904428E+03  0.10162262452E+04  0.79286242464E+02 0.  0.
        254    2    1    2    0    0  0.77036633424E+03  0.37360607213E+03  0.10369415005E+04  0.16189680978E+04  0.90153438114E+03 0.  0.
         23    2    4    4    0    0  0.92426131668E+03  0.46324430236E+03  0.80599606769E+03  0.13139604729E+04  0.89488536139E+02 0.  0.
         23    2    4    4    0    0 -0.15389498245E+03 -0.89638230235E+02  0.23094543278E+03  0.30500762491E+03  0.89303865493E+02 0.  0.
          4    1    3    3  502    0 -0.14421346821E+03 -0.38988344417E+02 -0.81252691639E+02  0.17005768231E+03  0.00000000000E+00 0. -1.
         -3    1    3    3    0  502 -0.62615286603E+03 -0.33461772771E+03 -0.46039635264E+03  0.84616856291E+03  0.00000000000E+00 0.  1.
         13    1    5    5    0    0  0.83025575570E+03  0.43762660702E+03  0.75145267231E+03  0.12022989586E+04  0.00000000000E+00 0.  1.
        -13    1    5    5    0    0  0.94005560978E+02  0.25617695339E+02  0.54543395374E+02  0.11166151436E+03  0.00000000000E+00 0. -1.
          2    1    6    6  503    0 -0.12900901877E+03 -0.32505743097E+02  0.18364766439E+03  0.22677392905E+03  0.00000000000E+00 0. -1.
         -2    1    6    6    0  503 -0.24885963672E+02 -0.57132487138E+02  0.47297768391E+02  0.78233695868E+02  0.00000000000E+00 0.  1.
<mgrwt>
<rscale>  0 0.25882300E+04</rscale>
<asrwt>0</asrwt>
<pdfrwt beam="1">  1        2 0.24080668E+00 0.25882300E+04</pdfrwt>
<pdfrwt beam="2">  1       -1 0.16460784E+00 0.25882300E+04</pdfrwt>
<totfact> 0.31731126E+00</totfact>
</mgrwt>
</event>
<event>
12    7  0.2492439E-007  0.2580688E+04  0.7818608E-02  0.8374791E-01
          2   -1    0    0  501    0  0.00000000000E+00  0.00000000000E+00  0.11547349790E+04  0.11547349790E+04  0.00000000000E+00 0. -1.
         -1   -1    0    0    0  501 -0.00000000000E+00 -0.00000000000E+00 -0.14418786294E+04  0.14418786294E+04  0.00000000000E+00 0.  1.
         24    2    1    2    0    0 -0.10871715001E+04 -0.31127656323E+03 -0.17145188787E+03  0.11465499113E+04  0.79661658233E+02 0.  0.
        254    2    1    2    0    0  0.10871715001E+04  0.31127656323E+03 -0.11569176252E+03  0.14500636971E+04  0.90025839206E+03 0.  0.
         23    2    4    4    0    0  0.29820733930E+03  0.15986913929E+03 -0.45396610769E+03  0.57358496320E+03  0.91808083318E+02 0.  0.
         23    2    4    4    0    0  0.78896416078E+03  0.15140742394E+03  0.33827434516E+03  0.87647873395E+03  0.91633964561E+02 0.  0.
          2    1    3    3  502    0 -0.86643659289E+03 -0.21737978016E+03 -0.12130632865E+03  0.90148852666E+03  0.00000000000E+00 0. -1.
         -1    1    3    3    0  502 -0.22073490718E+03 -0.93896783067E+02 -0.50145559219E+02  0.24506138461E+03  0.00000000000E+00 0.  1.
         13    1    5    5    0    0  0.25255896433E+03  0.10796658767E+03 -0.31193371329E+03  0.41562658241E+03  0.00000000000E+00 0. -1.
        -13    1    5    5    0    0  0.45648374968E+02  0.51902551626E+02 -0.14203239439E+03  0.15795838078E+03  0.00000000000E+00 0.  1.
          3    1    6    6  503    0  0.66104815950E+03  0.11663838337E+03  0.31654581765E+03  0.74215256944E+03  0.00000000000E+00 0. -1.
         -3    1    6    6    0  503  0.12791600128E+03  0.34769040571E+02  0.21728527512E+02  0.13432616452E+03  0.00000000000E+00 0.  1.
<mgrwt>
<rscale>  0 0.25806880E+04</rscale>
<asrwt>0</asrwt>
<pdfrwt beam="1">  1        2 0.17765154E+00 0.25806880E+04</pdfrwt>
<pdfrwt beam="2">  1       -1 0.22182748E+00 0.25806880E+04</pdfrwt>
<totfact> 0.21788571E+00</totfact>
</mgrwt>
</event>
<event>
12    7  0.2492439E-007  0.1825827E+04  0.7818608E-02  0.8692684E-01
         -1   -1    0    0    0  501 -0.00000000000E+00  0.00000000000E+00  0.40496088515E+03  0.40496088515E+03  0.00000000000E+00 0.  1.
          2   -1    0    0  501    0  0.00000000000E+00 -0.00000000000E+00 -0.20580033323E+04  0.20580033323E+04  0.00000000000E+00 0. -1.
         24    2    1    2    0    0  0.57943899680E+03  0.28766697625E+03 -0.94891218527E+03  0.11510655097E+04  0.77560505832E+02 0.  0.
        254    2    1    2    0    0 -0.57943899680E+03 -0.28766697625E+03 -0.70413026193E+03  0.13118987078E+04  0.89820763385E+03 0.  0.
         23    2    4    4    0    0 -0.41589975057E+03  0.23953385184E+03 -0.11931420783E+03  0.50252701382E+03  0.89154084203E+02 0.  0.
         23    2    4    4    0    0 -0.16353924623E+03 -0.52720082809E+03 -0.58481605410E+03  0.80937169397E+03  0.91580148926E+02 0.  0.
          4    1    3    3  502    0  0.38394377312E+03  0.15080495267E+03 -0.62066410848E+03  0.74523747237E+03  0.00000000000E+00 0. -1.
         -3    1    3    3    0  502  0.19549522368E+03  0.13686202358E+03 -0.32824807679E+03  0.40582803735E+03  0.00000000000E+00 0.  1.
         13    1    5    5    0    0 -0.13903296307E+03  0.11557344572E+03 -0.75915166579E+02  0.19608798712E+03  0.00000000000E+00 0.  1.
        -13    1    5    5    0    0 -0.27686678749E+03  0.12396040612E+03 -0.43399041252E+02  0.30643902670E+03  0.00000000000E+00 0. -1.
          1    1    6    6  503    0 -0.49100374150E+02 -0.20794804951E+03 -0.28855513711E+03  0.35905056077E+03  0.00000000000E+00 0. -1.
         -1    1    6    6    0  503 -0.11443887208E+03 -0.31925277858E+03 -0.29626091699E+03  0.45032113320E+03  0.00000000000E+00 0.  1.
<mgrwt>
<rscale>  0 0.18258268E+04</rscale>
<asrwt>0</asrwt>
<pdfrwt beam="1">  1        2 0.31661590E+00 0.18258268E+04</pdfrwt>
<pdfrwt beam="2">  1       -1 0.62301674E-01 0.18258268E+04</pdfrwt>
<totfact> 0.17388270E+01</totfact>
</mgrwt>
</event>
<event>
12    7  0.2492439E-007  0.1908106E+04  0.7818608E-02  0.8650832E-01
          2   -1    0    0  501    0  0.00000000000E+00  0.00000000000E+00  0.11922593176E+04  0.11922593176E+04  0.00000000000E+00 0. -1.
         -1   -1    0    0    0  501 -0.00000000000E+00 -0.00000000000E+00 -0.76343890064E+03  0.76343890064E+03  0.00000000000E+00 0.  1.
         24    2    1    2    0    0 -0.34569734447E+03 -0.63901430767E+03  0.30663561909E+02  0.73153934524E+03  0.79772302382E+02 0.  0.
        254    2    1    2    0    0  0.34569734447E+03  0.63901430767E+03  0.39815685502E+03  0.12241588730E+04  0.90121591513E+03 0.  0.
         23    2    4    4    0    0  0.13272544144E+03  0.30161691746E+03  0.65663640048E+03  0.74020408289E+03  0.90232556138E+02 0.  0.
         23    2    4    4    0    0  0.21297190303E+03  0.33739739021E+03 -0.25847954547E+03  0.48395479007E+03  0.90589916682E+02 0.  0.
          4    1    3    3  502    0 -0.12633662856E+03 -0.15859573836E+03  0.92337430347E+01  0.20297490966E+03  0.00000000000E+00 0. -1.
         -3    1    3    3    0  502 -0.21936071591E+03 -0.48041856932E+03  0.21429818874E+02  0.52856443559E+03  0.00000000000E+00 0.  1.
         13    1    5    5    0    0  0.73071445421E+02  0.17248678809E+03  0.46683463603E+03  0.50301660569E+03  0.00000000000E+00 0.  1.
        -13    1    5    5    0    0  0.59653996014E+02  0.12913012938E+03  0.18980176446E+03  0.23718747721E+03  0.00000000000E+00 0. -1.
          4    1    6    6  503    0  0.80045355048E+01  0.75411051159E+02 -0.59053497628E+02  0.96115632484E+02  0.00000000000E+00 0. -1.
         -4    1    6    6    0  503  0.20496736753E+03  0.26198633905E+03 -0.19942604784E+03  0.38783915759E+03  0.00000000000E+00 0.  1.
<mgrwt>
<rscale>  0 0.19081060E+04</rscale>
<asrwt>0</asrwt>
<pdfrwt beam="1">  1        2 0.18342451E+00 0.19081060E+04</pdfrwt>
<pdfrwt beam="2">  1       -1 0.11745214E+00 0.19081060E+04</pdfrwt>
<totfact> 0.13329438E+01</totfact>
</mgrwt>
</event>
<event>
12    7  0.2492439E-007  0.3925352E+04  0.7818608E-02  0.8019777E-01
         -1   -1    0    0    0  501 -0.00000000000E+00  0.00000000000E+00  0.22720086021E+04  0.22720086021E+04  0.00000000000E+00 0.  1.
          2   -1    0    0  501    0  0.00000000000E+00 -0.00000000000E+00 -0.16954590940E+04  0.16954590940E+04  0.00000000000E+00 0. -1.
         24    2    1    2    0    0  0.16230313794E+04  0.19583303754E+03  0.11668192851E+04  0.20100744809E+04  0.79691515000E+02 0.  0.
        254    2    1    2    0    0 -0.16230313794E+04 -0.19583303754E+03 -0.59026977704E+03  0.19573932151E+04  0.90021572526E+03 0.  0.
         23    2    4    4    0    0 -0.79544493445E+03 -0.39111656516E+03 -0.64561686457E+03  0.11005978147E+04  0.93752880805E+02 0.  0.
         23    2    4    4    0    0 -0.82758644491E+03  0.19528352763E+03  0.55347087521E+02  0.85679540043E+03  0.89443155875E+02 0.  0.
          2    1    3    3  502    0  0.91916863846E+03  0.74442182027E+02  0.67698498848E+03  0.11439935747E+04  0.00000000000E+00 0. -1.
         -1    1    3    3    0  502  0.70386274090E+03  0.12139085551E+03  0.48983429666E+03  0.86608090616E+03  0.00000000000E+00 0.  1.
         13    1    5    5    0    0 -0.50529628948E+03 -0.29424344692E+03 -0.40261922481E+03  0.70993364930E+03  0.00000000000E+00 0.  1.
        -13    1    5    5    0    0 -0.29014864497E+03 -0.96873118245E+02 -0.24299763975E+03  0.39066416542E+03  0.00000000000E+00 0. -1.
          4    1    6    6  503    0 -0.55491986618E+03  0.15549990473E+03  0.29420201959E+01  0.57630281427E+03  0.00000000000E+00 0.  1.
         -4    1    6    6    0  503 -0.27266657873E+03  0.39783622893E+02  0.52405067325E+02  0.28049258615E+03  0.00000000000E+00 0. -1.
<mgrwt>
<rscale>  0 0.39253523E+04</rscale>
<asrwt>0</asrwt>
<pdfrwt beam="1">  1        2 0.26083986E+00 0.39253523E+04</pdfrwt>
<pdfrwt beam="2">  1       -1 0.34953979E+00 0.39253523E+04</pdfrwt>
<totfact> 0.13939905E-01</totfact>
</mgrwt>
</event>
<event>
12    7  0.2492439E-007  0.2937780E+04  0.7818608E-02  0.8261725E-01
          2   -1    0    0  501    0  0.00000000000E+00  0.00000000000E+00  0.14158319767E+04  0.14158319767E+04  0.00000000000E+00 0. -1.
         -1   -1    0    0    0  501 -0.00000000000E+00 -0.00000000000E+00 -0.15239366324E+04  0.15239366324E+04  0.00000000000E+00 0.  1.
         24    2    1    2    0    0  0.12650860807E+04 -0.33609829722E+03  0.18672848115E+03  0.13246585602E+04  0.80298931323E+02 0.  0.
        254    2    1    2    0    0 -0.12650860807E+04  0.33609829722E+03 -0.29483313688E+03  0.16151100490E+04  0.89902671517E+03 0.  0.
         23    2    4    4    0    0 -0.13663665260E+04  0.38934979189E+03 -0.19722880598E+03  0.14367499238E+04  0.82464524265E+02 0.  0.
         23    2    4    4    0    0  0.10128044532E+03 -0.53251494668E+02 -0.97604330899E+02  0.17836012513E+03  0.95876371117E+02 0.  0.
          4    1    3    3  502    0  0.53105106335E+03 -0.10880326028E+03  0.52718556813E+02  0.54463990632E+03  0.00000000000E+00 0. -1.
         -3    1    3    3    0  502  0.73403501737E+03 -0.22729503694E+03  0.13400992434E+03  0.78001865386E+03  0.00000000000E+00 0.  1.
         13    1    5    5    0    0 -0.29226237555E+03  0.48658320531E+02 -0.44322534961E+02  0.29958206793E+03  0.00000000000E+00 0. -1.
        -13    1    5    5    0    0 -0.10741041505E+04  0.34069147136E+03 -0.15290627102E+03  0.11371678559E+04  0.00000000000E+00 0.  1.
          1    1    6    6  503    0  0.81630506513E+02  0.10741608690E+02 -0.54740588930E+02  0.98870894743E+02  0.00000000000E+00 0. -1.
         -1    1    6    6    0  503  0.19649938807E+02 -0.63993103358E+02 -0.42863741969E+02  0.79489230390E+02  0.00000000000E+00 0.  1.
<mgrwt>
<rscale>  0 0.29377803E+04</rscale>
<asrwt>0</asrwt>
<pdfrwt beam="1">  1        2 0.21782030E+00 0.29377803E+04</pdfrwt>
<pdfrwt beam="2">  1       -1 0.23445179E+00 0.29377803E+04</pdfrwt>
<totfact> 0.12247533E+00</totfact>
</mgrwt>
</event>
<event>
12    7  0.2492439E-007  0.2107607E+04  0.7818608E-02  0.8557900E-01
          2   -1    0    0  501    0  0.00000000000E+00  0.00000000000E+00  0.12039675797E+04  0.12039675797E+04  0.00000000000E+00 0. -1.
         -1   -1    0    0    0  501 -0.00000000000E+00 -0.00000000000E+00 -0.92236855440E+03  0.92236855440E+03  0.00000000000E+00 0.  1.
         24    2    1    2    0    0 -0.44653283287E+03  0.18540181040E+03  0.83177759705E+03  0.96539367318E+03  0.79784529302E+02 0.  0.
        254    2    1    2    0    0  0.44653283287E+03 -0.18540181040E+03 -0.55017857176E+03  0.11609424609E+04  0.90073610710E+03 0.  0.
         23    2    4    4    0    0  0.64065322569E+03 -0.25986240523E+03 -0.60988032745E+03  0.92645141532E+03  0.91614332429E+02 0.  0.
         23    2    4    4    0    0 -0.19412039282E+03  0.74460594832E+02  0.59701755688E+02  0.23449104560E+03  0.90524271589E+02 0.  0.
          2    1    3    3  502    0 -0.39867600349E+03  0.16968753661E+03  0.78506901723E+03  0.89669937976E+03  0.00000000000E+00 0. -1.
         -1    1    3    3    0  502 -0.47856829385E+02  0.15714273788E+02  0.46708579821E+02  0.68694293419E+02  0.00000000000E+00 0.  1.
         13    1    5    5    0    0  0.17798739105E+03 -0.92819169237E+02 -0.22759459397E+03  0.30347027656E+03  0.00000000000E+00 0.  1.
        -13    1    5    5    0    0  0.46266583464E+03 -0.16704323599E+03 -0.38228573348E+03  0.62298113876E+03  0.00000000000E+00 0. -1.
          1    1    6    6  503    0 -0.15555091888E+03  0.28174175403E+02  0.70825892611E+02  0.17322291877E+03  0.00000000000E+00 0. -1.
         -1    1    6    6    0  503 -0.38569473940E+02  0.46286419429E+02 -0.11124136923E+02  0.61268126835E+02  0.00000000000E+00 0.  1.
<mgrwt>
<rscale>  0 0.21076070E+04</rscale>
<asrwt>0</asrwt>
<pdfrwt beam="1">  1        2 0.18522578E+00 0.21076070E+04</pdfrwt>
<pdfrwt beam="2">  1       -1 0.14190285E+00 0.21076070E+04</pdfrwt>
<totfact> 0.80022445E+00</totfact>
</mgrwt>
</event>
<event>
12    7  0.2492439E-007  0.2149815E+04  0.7818608E-02  0.8539611E-01
         -1   -1    0    0    0  501 -0.00000000000E+00  0.00000000000E+00  0.14463886103E+04  0.14463886103E+04  0.00000000000E+00 0.  1.
          2   -1    0    0  501    0  0.00000000000E+00 -0.00000000000E+00 -0.79883555424E+03  0.79883555424E+03  0.00000000000E+00 0. -1.
         24    2    1    2    0    0  0.51994608512E+03  0.67229161483E+03  0.51812302459E+03  0.99873847043E+03  0.81896989615E+02 0.  0.
        254    2    1    2    0    0 -0.51994608512E+03 -0.67229161483E+03  0.12943003150E+03  0.12464856941E+04  0.90258213247E+03 0.  0.
         23    2    4    4    0    0 -0.60802358161E+03 -0.71423597467E+03  0.33892841903E+03  0.10014865154E+04  0.90978370795E+02 0.  0.
         23    2    4    4    0    0  0.88077496492E+02  0.41944359844E+02 -0.20949838753E+03  0.24499917877E+03  0.81351389088E+02 0.  0.
          4    1    3    3  502    0  0.42822684717E+03  0.54600683161E+03  0.38471837852E+03  0.79341661412E+03  0.00000000000E+00 0. -1.
         -3    1    3    3    0  502  0.91719237953E+02  0.12628478322E+03  0.13340464608E+03  0.20532185631E+03  0.00000000000E+00 0.  1.
         13    1    5    5    0    0 -0.47974236124E+03 -0.50235454897E+03  0.25526589354E+03  0.74004966215E+03  0.00000000000E+00 0.  1.
        -13    1    5    5    0    0 -0.12828122037E+03 -0.21188142570E+03  0.83662525486E+02  0.26143685323E+03  0.00000000000E+00 0. -1.
          3    1    6    6  503    0  0.24453826188E+02  0.55188088512E+02 -0.12078959060E+03  0.13503273650E+03  0.00000000000E+00 0. -1.
         -3    1    6    6    0  503  0.63623670304E+02 -0.13243728668E+02 -0.88708796930E+02  0.10996644227E+03  0.00000000000E+00 0.  1.
<mgrwt>
<rscale>  0 0.21498155E+04</rscale>
<asrwt>0</asrwt>
<pdfrwt beam="1">  1        2 0.12289778E+00 0.21498155E+04</pdfrwt>
<pdfrwt beam="2">  1       -1 0.22252132E+00 0.21498155E+04</pdfrwt>
<totfact> 0.38256996E+00</totfact>
</mgrwt>
</event>
<event>
12    7  0.2492439E-007  0.2190649E+04  0.7818608E-02  0.8522330E-01
          2   -1    0    0  501    0  0.00000000000E+00  0.00000000000E+00  0.22001739613E+04  0.22001739613E+04  0.00000000000E+00 0. -1.
         -1   -1    0    0    0  501 -0.00000000000E+00 -0.00000000000E+00 -0.54529111485E+03  0.54529111485E+03  0.00000000000E+00 0.  1.
         24    2    1    2    0    0 -0.40538679762E+03  0.72884372003E+03  0.11384548195E+04  0.14136704275E+04  0.82662431990E+02 0.  0.
        254    2    1    2    0    0  0.40538679762E+03 -0.72884372003E+03  0.51642802699E+03  0.13317946487E+04  0.90079268162E+03 0.  0.
         23    2    4    4    0    0  0.56444980689E+03 -0.81680198152E+03  0.52886346957E+03  0.11286292773E+04  0.91314920211E+02 0.  0.
         23    2    4    4    0    0 -0.15906300927E+03  0.87958261488E+02 -0.12435442588E+02  0.20316537136E+03  0.89910128488E+02 0.  0.
          2    1    3    3  502    0 -0.18734142601E+03  0.28802128936E+03  0.52462608372E+03  0.62712486854E+03  0.00000000000E+00 0. -1.
         -1    1    3    3    0  502 -0.21804537161E+03  0.44082243067E+03  0.61382873575E+03  0.78654555894E+03  0.00000000000E+00 0.  1.
         13    1    5    5    0    0  0.25386441859E+03 -0.44743949537E+03  0.27644224849E+03  0.58401161100E+03  0.00000000000E+00 0. -1.
        -13    1    5    5    0    0  0.31058538831E+03 -0.36936248615E+03  0.25242122109E+03  0.54461766631E+03  0.00000000000E+00 0.  1.
          2    1    6    6  503    0 -0.15415688462E+03  0.58298252236E+02  0.10806056112E+02  0.16516598360E+03  0.00000000000E+00 0.  1.
         -2    1    6    6    0  503 -0.49061246434E+01  0.29660009252E+02 -0.23241498699E+02  0.37999387753E+02  0.00000000000E+00 0. -1.
<mgrwt>
<rscale>  0 0.21906486E+04</rscale>
<asrwt>0</asrwt>
<pdfrwt beam="1">  1        2 0.33848830E+00 0.21906486E+04</pdfrwt>
<pdfrwt beam="2">  1       -1 0.83890942E-01 0.21906486E+04</pdfrwt>
<totfact> 0.75702415E+00</totfact>
</mgrwt>
</event>
<event>
12    7  0.2492439E-007  0.1741944E+04  0.7818608E-02  0.8737797E-01
         -1   -1    0    0    0  501 -0.00000000000E+00  0.00000000000E+00  0.21441787801E+03  0.21441787801E+03  0.00000000000E+00 0.  1.
          2   -1    0    0  501    0  0.00000000000E+00 -0.00000000000E+00 -0.35379130864E+04  0.35379130864E+04  0.00000000000E+00 0. -1.
         24    2    1    2    0    0 -0.56950203708E+03  0.20727432441E+03 -0.80576011846E+03  0.10114885743E+04  0.81021920156E+02 0.  0.
        254    2    1    2    0    0  0.56950203708E+03 -0.20727432441E+03 -0.25177350900E+04  0.27408423902E+04  0.89773704881E+03 0.  0.
         23    2    4    4    0    0  0.57693158166E+02 -0.45415238740E+03 -0.15083448190E+04  0.15790166851E+04  0.92772340561E+02 0.  0.
         23    2    4    4    0    0  0.51180887891E+03  0.24687806299E+03 -0.10093902709E+04  0.11618257051E+04  0.89850673188E+02 0.  0.
          2    1    3    3  502    0 -0.28604508251E+03  0.14705379745E+03 -0.41918217750E+03  0.52835623069E+03  0.00000000000E+00 0. -1.
         -1    1    3    3    0  502 -0.28345695457E+03  0.60220526953E+02 -0.38657794096E+03  0.48313234356E+03  0.00000000000E+00 0.  1.
         13    1    5    5    0    0  0.51966304003E+02 -0.10727644574E+03 -0.43199754875E+03  0.44814128875E+03  0.00000000000E+00 0.  1.
        -13    1    5    5    0    0  0.57268541630E+01 -0.34687594166E+03 -0.10763472703E+04  0.11308753963E+04  0.00000000000E+00 0. -1.
          2    1    6    6  503    0  0.44721662060E+03  0.20142481789E+03 -0.80436601799E+03  0.94211429981E+03  0.00000000000E+00 0. -1.
         -2    1    6    6    0  503  0.64592258310E+02  0.45453245104E+02 -0.20502425294E+03  0.21971140529E+03  0.00000000000E+00 0.  1.
<mgrwt>
<rscale>  0 0.17419435E+04</rscale>
<asrwt>0</asrwt>
<pdfrwt beam="1">  1        2 0.54429429E+00 0.17419435E+04</pdfrwt>
<pdfrwt beam="2">  1       -1 0.32987367E-01 0.17419435E+04</pdfrwt>
<totfact> 0.71903225E+00</totfact>
</mgrwt>
</event>
<event>
12    7  0.2492439E-007  0.1495525E+04  0.7818608E-02  0.8887434E-01
         -1   -1    0    0    0  501 -0.00000000000E+00  0.00000000000E+00  0.60536917163E+03  0.60536917163E+03  0.00000000000E+00 0.  1.
          2   -1    0    0  501    0  0.00000000000E+00 -0.00000000000E+00 -0.92364900891E+03  0.92364900891E+03  0.00000000000E+00 0. -1.
         24    2    1    2    0    0  0.24268977365E+03 -0.37591430940E+03  0.50088008152E+02  0.45845174452E+03  0.86367234798E+02 0.  0.
        254    2    1    2    0    0 -0.24268977365E+03  0.37591430940E+03 -0.36836784542E+03  0.10705664360E+04  0.90011539824E+03 0.  0.
         23    2    4    4    0    0 -0.26781274435E+03  0.98998165059E+02 -0.61679026752E+03  0.68584127817E+03  0.91780836875E+02 0.  0.
         23    2    4    4    0    0  0.25122970696E+02  0.27691614434E+03  0.24842242209E+03  0.38472515785E+03  0.94794686732E+02 0.  0.
          4    1    3    3  502    0  0.53627818075E+02 -0.15804428928E+03  0.26998296961E+02  0.16906462754E+03  0.00000000000E+00 0. -1.
         -3    1    3    3    0  502  0.18906195557E+03 -0.21787002012E+03  0.23089711190E+02  0.28938711698E+03  0.00000000000E+00 0.  1.
         13    1    5    5    0    0 -0.55724702452E+02  0.93113750074E+01 -0.55701762878E+02  0.79338707802E+02  0.00000000000E+00 0.  1.
        -13    1    5    5    0    0 -0.21208804189E+03  0.89686790052E+02 -0.56108850464E+03  0.60650257037E+03  0.00000000000E+00 0. -1.
          4    1    6    6  503    0 -0.42854609765E+01  0.10580572666E+03  0.39361556892E+02  0.11297145272E+03  0.00000000000E+00 0.  1.
         -4    1    6    6    0  503  0.29408431672E+02  0.17111041768E+03  0.20906086520E+03  0.27175370513E+03  0.00000000000E+00 0. -1.
<mgrwt>
<rscale>  0 0.14955248E+04</rscale>
<asrwt>0</asrwt>
<pdfrwt beam="1">  1        2 0.14209985E+00 0.14955248E+04</pdfrwt>
<pdfrwt beam="2">  1       -1 0.93133719E-01 0.14955248E+04</pdfrwt>
<totfact> 0.34912478E+01</totfact>
</mgrwt>
</event>
<event>
12    7  0.2492439E-007  0.2900668E+04  0.7818608E-02  0.8272679E-01
          2   -1    0    0  501    0  0.00000000000E+00  0.00000000000E+00  0.20450345160E+04  0.20450345160E+04  0.00000000000E+00 0. -1.
         -1   -1    0    0    0  501 -0.00000000000E+00 -0.00000000000E+00 -0.10285736610E+04  0.10285736610E+04  0.00000000000E+00 0.  1.
         24    2    1    2    0    0  0.63505459145E+03 -0.92324462251E+03  0.11776070582E+04  0.16275313464E+04  0.80155678442E+02 0.  0.
        254    2    1    2    0    0 -0.63505459145E+03  0.92324462251E+03 -0.16114620319E+03  0.14460768306E+04  0.89971947519E+03 0.  0.
         23    2    4    4    0    0 -0.35201439451E+03  0.55076213528E+03 -0.52714653516E+03  0.84501584021E+03  0.94420533019E+02 0.  0.
         23    2    4    4    0    0 -0.28304019693E+03  0.37248248722E+03  0.36600033198E+03  0.60106099038E+03  0.91995188869E+02 0.  0.
          2    1    3    3  502    0  0.40074041255E+03 -0.63236816099E+03  0.82158969849E+03  0.11115268786E+04  0.00000000000E+00 0. -1.
         -1    1    3    3    0  502  0.23431417889E+03 -0.29087646152E+03  0.35601735969E+03  0.51600446771E+03  0.00000000000E+00 0.  1.
         13    1    5    5    0    0 -0.16387749864E+03  0.23839182160E+03 -0.17507829492E+03  0.33814036216E+03  0.00000000000E+00 0. -1.
        -13    1    5    5    0    0 -0.18813689587E+03  0.31237031368E+03 -0.35206824024E+03  0.50687547804E+03  0.00000000000E+00 0.  1.
          1    1    6    6  503    0 -0.10934808464E+03  0.10849924115E+03  0.16906146251E+03  0.22871569043E+03  0.00000000000E+00 0. -1.
         -1    1    6    6    0  503 -0.17369211229E+03  0.26398324608E+03  0.19693886947E+03  0.37234529994E+03  0.00000000000E+00 0.  1.
<mgrwt>
<rscale>  0 0.29006679E+04</rscale>
<asrwt>0</asrwt>
<pdfrwt beam="1">  1        2 0.31462070E+00 0.29006679E+04</pdfrwt>
<pdfrwt beam="2">  1       -1 0.15824210E+00 0.29006679E+04</pdfrwt>
<totfact> 0.18656498E+00</totfact>
</mgrwt>
</event>
<event>
12    7  0.2492439E-007  0.3710106E+04  0.7818608E-02  0.8065726E-01
          2   -1    0    0  501    0  0.00000000000E+00  0.00000000000E+00  0.42348015114E+04  0.42348015114E+04  0.00000000000E+00 0. -1.
         -1   -1    0    0    0  501 -0.00000000000E+00 -0.00000000000E+00 -0.81260537747E+03  0.81260537747E+03  0.00000000000E+00 0.  1.
         24    2    1    2    0    0 -0.10207045524E+04  0.10810206002E+04  0.28616139580E+04  0.32258417489E+04  0.82323892330E+02 0.  0.
        254    2    1    2    0    0  0.10207045524E+04 -0.10810206002E+04  0.56058217598E+03  0.18215651400E+04  0.89073220548E+03 0.  0.
         23    2    4    4    0    0  0.17597434465E+03 -0.70138085208E+03  0.50772904357E+03  0.88944845602E+03  0.10211613286E+03 0.  0.
         23    2    4    4    0    0  0.84473020776E+03 -0.37963974809E+03  0.52853132410E+02  0.93211668397E+03  0.91392541763E+02 0.  0.
          2    1    3    3  502    0 -0.22868624488E+03  0.23619289736E+03  0.56164706832E+03  0.65079329492E+03  0.00000000000E+00 0. -1.
         -1    1    3    3    0  502 -0.79201830753E+03  0.84482770281E+03  0.22999668897E+04  0.25750484540E+04  0.00000000000E+00 0.  1.
         13    1    5    5    0    0  0.82717363604E+02 -0.49789488395E+03  0.32297366645E+03  0.59921070328E+03  0.00000000000E+00 0. -1.
        -13    1    5    5    0    0  0.93256981044E+02 -0.20348596812E+03  0.18475537712E+03  0.29023775273E+03  0.00000000000E+00 0.  1.
          4    1    6    6  503    0  0.33000194128E+03 -0.19579288074E+03  0.33982480988E+02  0.38521544934E+03  0.00000000000E+00 0. -1.
         -4    1    6    6    0  503  0.51472826648E+03 -0.18384686734E+03  0.18870651422E+02  0.54690123463E+03  0.00000000000E+00 0.  1.
<mgrwt>
<rscale>  0 0.37101065E+04</rscale>
<asrwt>0</asrwt>
<pdfrwt beam="1">  1        2 0.65150791E+00 0.37101065E+04</pdfrwt>
<pdfrwt beam="2">  1       -1 0.12501621E+00 0.37101065E+04</pdfrwt>
<totfact> 0.11067643E-01</totfact>
</mgrwt>
</event>
<event>
12    7  0.2492439E-007  0.1065950E+04  0.7818608E-02  0.9239030E-01
          2   -1    0    0  501    0  0.00000000000E+00  0.00000000000E+00  0.97167779908E+03  0.97167779908E+03  0.00000000000E+00 0. -1.
         -1   -1    0    0    0  501 -0.00000000000E+00 -0.00000000000E+00 -0.29234211078E+03  0.29234211078E+03  0.00000000000E+00 0.  1.
         24    2    1    2    0    0  0.10874756085E+03 -0.62625111825E+02  0.46357102498E+02  0.15586608235E+03  0.79983236082E+02 0.  0.
        254    2    1    2    0    0 -0.10874756085E+03  0.62625111825E+02  0.63297858581E+03  0.11081538275E+04  0.90088571901E+03 0.  0.
         23    2    4    4    0    0  0.21329569012E+02 -0.11815030331E+03 -0.19452004793E+03  0.24616708610E+03  0.91355024737E+02 0.  0.
         23    2    4    4    0    0 -0.13007712986E+03  0.18077541514E+03  0.82749863373E+03  0.86198674141E+03  0.93098566592E+02 0.  0.
          2    1    3    3  502    0  0.10057525970E+03 -0.71049242699E+02  0.60737457681E+02  0.13730410233E+03  0.00000000000E+00 0. -1.
         -1    1    3    3    0  502  0.81723011485E+01  0.84241308738E+01 -0.14380355183E+02  0.18561980019E+02  0.00000000000E+00 0.  1.
         13    1    5    5    0    0  0.26296194909E+02 -0.38331137611E+02 -0.14460994376E+03  0.15189733971E+03  0.00000000000E+00 0.  1.
        -13    1    5    5    0    0 -0.49666258976E+01 -0.79819165699E+02 -0.49910104173E+02  0.94269746390E+02  0.00000000000E+00 0. -1.
          4    1    6    6  503    0 -0.96913323036E+01  0.47770531919E+02  0.32049174494E+03  0.32417727282E+03  0.00000000000E+00 0.  1.
         -4    1    6    6    0  503 -0.12038579756E+03  0.13300488322E+03  0.50700688880E+03  0.53780946859E+03  0.00000000000E+00 0. -1.
<mgrwt>
<rscale>  0 0.10659500E+04</rscale>
<asrwt>0</asrwt>
<pdfrwt beam="1">  1        2 0.14948889E+00 0.10659500E+04</pdfrwt>
<pdfrwt beam="2">  1       -1 0.44975710E-01 0.10659500E+04</pdfrwt>
<totfact> 0.14606461E+02</totfact>
</mgrwt>
</event>
<event>
12    7  0.2492439E-007  0.1976187E+04  0.7818608E-02  0.8617836E-01
          2   -1    0    0  501    0  0.00000000000E+00  0.00000000000E+00  0.13540769201E+04  0.13540769201E+04  0.00000000000E+00 0. -1.
         -1   -1    0    0    0  501 -0.00000000000E+00 -0.00000000000E+00 -0.72102873956E+03  0.72102873956E+03  0.00000000000E+00 0.  1.
         24    2    1    2    0    0 -0.51743426824E+03  0.49393506179E+03  0.58211894146E+03  0.92596665931E+03  0.82714720243E+02 0.  0.
        254    2    1    2    0    0  0.51743426824E+03 -0.49393506179E+03  0.50929239122E+02  0.11491390004E+04  0.89789564404E+03 0.  0.
         23    2    4    4    0    0 -0.21573209630E+02  0.99696409699E+02  0.27909775839E+03  0.31088175268E+03  0.91362617787E+02 0.  0.
         23    2    4    4    0    0  0.53900747787E+03 -0.59363147149E+03 -0.22816851927E+03  0.83825724770E+03  0.87675281554E+02 0.  0.
          4    1    3    3  502    0 -0.23117665425E+03  0.19622071031E+03  0.29430296714E+03  0.42256295281E+03  0.00000000000E+00 0. -1.
         -3    1    3    3    0  502 -0.28625761399E+03  0.29771435148E+03  0.28781597431E+03  0.50340370650E+03  0.00000000000E+00 0.  1.
         13    1    5    5    0    0 -0.33362191549E+01  0.98228904021E+02  0.27513282653E+03  0.29216112023E+03  0.00000000000E+00 0.  1.
        -13    1    5    5    0    0 -0.18236990475E+02  0.14675056775E+01  0.39649318662E+01  0.18720632447E+02  0.00000000000E+00 0. -1.
          3    1    6    6  503    0 -0.11237327396E+00 -0.10131313868E+02  0.35257489891E+01  0.10727863458E+02  0.00000000000E+00 0. -1.
         -3    1    6    6    0  503  0.53911985114E+03 -0.58350015762E+03 -0.23169426826E+03  0.82752938424E+03  0.00000000000E+00 0.  1.
<mgrwt>
<rscale>  0 0.19761866E+04</rscale>
<asrwt>0</asrwt>
<pdfrwt beam="1">  1        2 0.20831953E+00 0.19761866E+04</pdfrwt>
<pdfrwt beam="2">  1       -1 0.11092750E+00 0.19761866E+04</pdfrwt>
<totfact> 0.12206842E+01</totfact>
</mgrwt>
</event>
<event>
12    7  0.2492439E-007  0.4600396E+04  0.7818608E-02  0.7893292E-01
         -1   -1    0    0    0  501 -0.00000000000E+00  0.00000000000E+00  0.17308283031E+04  0.17308283031E+04  0.00000000000E+00 0.  1.
          2   -1    0    0  501    0  0.00000000000E+00 -0.00000000000E+00 -0.30568667602E+04  0.30568667602E+04  0.00000000000E+00 0. -1.
         24    2    1    2    0    0 -0.15242511964E+04  0.16024049201E+04 -0.65206607350E+03  0.23068440068E+04  0.72772728368E+02 0.  0.
        254    2    1    2    0    0  0.15242511964E+04 -0.16024049201E+04 -0.67397238359E+03  0.24808510565E+04  0.89963323265E+03 0.  0.
         23    2    4    4    0    0  0.12318430102E+04 -0.73722900716E+03 -0.21287100635E+03  0.14543200844E+04  0.93749836314E+02 0.  0.
         23    2    4    4    0    0  0.29240818616E+03 -0.86517591295E+03 -0.46110137723E+03  0.10265309721E+04  0.84376827155E+02 0.  0.
          2    1    3    3  502    0 -0.78615500398E+03  0.87610281071E+03 -0.35958080564E+03  0.12308103757E+04  0.00000000000E+00 0. -1.
         -1    1    3    3    0  502 -0.73809619238E+03  0.72630210940E+03 -0.29248526786E+03  0.10760336311E+04  0.00000000000E+00 0.  1.
         13    1    5    5    0    0  0.98359028246E+03 -0.55952875512E+03 -0.19690356479E+03  0.11486049301E+04  0.00000000000E+00 0.  1.
        -13    1    5    5    0    0  0.24825272775E+03 -0.17770025204E+03 -0.15967441560E+02  0.30571515435E+03  0.00000000000E+00 0. -1.
          1    1    6    6  503    0  0.13217601432E+03 -0.27528444642E+03 -0.16975212153E+03  0.34938203727E+03  0.00000000000E+00 0. -1.
         -1    1    6    6    0  503  0.16023217184E+03 -0.58989146652E+03 -0.29134925571E+03  0.67714893485E+03  0.00000000000E+00 0.  1.
<mgrwt>
<rscale>  0 0.46003963E+04</rscale>
<asrwt>0</asrwt>
<pdfrwt beam="1">  1        2 0.47028719E+00 0.46003963E+04</pdfrwt>
<pdfrwt beam="2">  1       -1 0.26628128E+00 0.46003963E+04</pdfrwt>
<totfact> 0.74720767E-02</totfact>
</mgrwt>
</event>
<event>
12    7  0.2492439E-007  0.2447133E+04  0.7818608E-02  0.8422065E-01
         -1   -1    0    0    0  501 -0.00000000000E+00  0.00000000000E+00  0.42027623160E+03  0.42027623160E+03  0.00000000000E+00 0.  1.
          2   -1    0    0  501    0  0.00000000000E+00 -0.00000000000E+00 -0.35622176418E+04  0.35622176418E+04  0.00000000000E+00 0. -1.
         24    2    1    2    0    0 -0.37277055869E+03 -0.88235365907E+03 -0.20764834023E+04  0.22882862705E+04  0.83455778064E+02 0.  0.
        254    2    1    2    0    0  0.37277055869E+03  0.88235365907E+03 -0.10654580079E+04  0.16942076029E+04  0.90423048271E+03 0.  0.
         23    2    4    4    0    0  0.30114101264E+03  0.60137866226E+03 -0.11865775217E+04  0.13670632739E+04  0.92485539425E+02 0.  0.
         23    2    4    4    0    0  0.71629546045E+02  0.28097499681E+03  0.12111951372E+03  0.32714432898E+03  0.90971065053E+02 0.  0.
          2    1    3    3  502    0 -0.19973867323E+03 -0.38708339400E+03 -0.10011803108E+04  0.10918292478E+04  0.00000000000E+00 0. -1.
         -1    1    3    3    0  502 -0.17303188546E+03 -0.49527026507E+03 -0.10753030914E+04  0.11964570228E+04  0.00000000000E+00 0.  1.
         13    1    5    5    0    0  0.19602351312E+03  0.39915504721E+03 -0.69300870150E+03  0.82341425162E+03  0.00000000000E+00 0.  1.
        -13    1    5    5    0    0  0.10511749953E+03  0.20222361505E+03 -0.49356882016E+03  0.54364902228E+03  0.00000000000E+00 0. -1.
          3    1    6    6  503    0  0.25907473673E+02  0.23933588801E+03  0.83733611459E+02  0.25488072146E+03  0.00000000000E+00 0. -1.
         -3    1    6    6    0  503  0.45722072372E+02  0.41639108801E+02  0.37385902266E+02  0.72263607521E+02  0.00000000000E+00 0.  1.
<mgrwt>
<rscale>  0 0.24471333E+04</rscale>
<asrwt>0</asrwt>
<pdfrwt beam="1">  1        2 0.54803350E+00 0.24471333E+04</pdfrwt>
<pdfrwt beam="2">  1       -1 0.64657880E-01 0.24471333E+04</pdfrwt>
<totfact> 0.18189526E+00</totfact>
</mgrwt>
</event>
<event>
12    7  0.2492439E-007  0.2099652E+04  0.7818608E-02  0.8561397E-01
         -1   -1    0    0    0  501 -0.00000000000E+00  0.00000000000E+00  0.66775077968E+03  0.66775077968E+03  0.00000000000E+00 0.  1.
          2   -1    0    0  501    0  0.00000000000E+00 -0.00000000000E+00 -0.16505183848E+04  0.16505183848E+04  0.00000000000E+00 0. -1.
         24    2    1    2    0    0 -0.51654093743E+03 -0.38424877639E+03  0.21906815184E+03  0.68477814573E+03  0.80427554487E+02 0.  0.
        254    2    1    2    0    0  0.51654093743E+03  0.38424877639E+03 -0.12018357570E+04  0.16334910188E+04  0.89967886464E+03 0.  0.
         23    2    4    4    0    0  0.66943008267E+02 -0.16083640635E+03  0.41152286912E+02  0.20074947891E+03  0.90868732802E+02 0.  0.
         23    2    4    4    0    0  0.44959792916E+03  0.54508518273E+03 -0.12429880439E+04  0.14327415399E+04  0.92048294257E+02 0.  0.
          2    1    3    3  502    0 -0.15912442653E+02 -0.31149219123E+02  0.21623798411E+02  0.41122601339E+02  0.00000000000E+00 0. -1.
         -1    1    3    3    0  502 -0.50062849477E+03 -0.35309955726E+03  0.19744435343E+03  0.64365554439E+03  0.00000000000E+00 0.  1.
         13    1    5    5    0    0  0.37513641603E+01 -0.91879572748E+02  0.53530056284E+02  0.10640204672E+03  0.00000000000E+00 0.  1.
        -13    1    5    5    0    0  0.63191644106E+02 -0.68956833599E+02 -0.12377769372E+02  0.94347432183E+02  0.00000000000E+00 0. -1.
          3    1    6    6  503    0  0.70805016836E+02  0.12749571222E+03 -0.31089921083E+03  0.34340475585E+03  0.00000000000E+00 0. -1.
         -3    1    6    6    0  503  0.37879291232E+03  0.41758947051E+03 -0.93208883305E+03  0.10893367840E+04  0.00000000000E+00 0.  1.
<mgrwt>
<rscale>  0 0.20996523E+04</rscale>
<asrwt>0</asrwt>
<pdfrwt beam="1">  1        2 0.25392590E+00 0.20996523E+04</pdfrwt>
<pdfrwt beam="2">  1       -1 0.10273089E+00 0.20996523E+04</pdfrwt>
<totfact> 0.98245853E+00</totfact>
</mgrwt>
</event>
<event>
12    7  0.2492439E-007  0.2458796E+04  0.7818608E-02  0.8417813E-01
          2   -1    0    0  501    0  0.00000000000E+00  0.00000000000E+00  0.72800154431E+03  0.72800154431E+03  0.00000000000E+00 0. -1.
         -1   -1    0    0    0  501 -0.00000000000E+00 -0.00000000000E+00 -0.20761212479E+04  0.20761212479E+04  0.00000000000E+00 0.  1.
         24    2    1    2    0    0  0.93639042868E+03 -0.49850581632E+03 -0.50606139572E+03  0.11780381383E+04  0.79628105819E+02 0.  0.
        254    2    1    2    0    0 -0.93639042868E+03  0.49850581632E+03 -0.84205830788E+03  0.16260846539E+04  0.89986333629E+03 0.  0.
         23    2    4    4    0    0 -0.57839204064E+03  0.86169896228E+02 -0.89160205624E+03  0.10701514054E+04  0.91143842851E+02 0.  0.
         23    2    4    4    0    0 -0.35799838803E+03  0.41233592009E+03  0.49543748358E+02  0.55593324852E+03  0.91779284010E+02 0.  0.
          4    1    3    3  502    0  0.32456628597E+03 -0.20972325022E+03 -0.20633159971E+03  0.43806374503E+03  0.00000000000E+00 0. -1.
         -3    1    3    3    0  502  0.61182414271E+03 -0.28878256610E+03 -0.29972979601E+03  0.73997439327E+03  0.00000000000E+00 0.  1.
         13    1    5    5    0    0 -0.47480161336E+03  0.36638814508E+02 -0.73967354593E+03  0.87971354959E+03  0.00000000000E+00 0. -1.
        -13    1    5    5    0    0 -0.10359042728E+03  0.49531081721E+02 -0.15192851031E+03  0.19043785581E+03  0.00000000000E+00 0.  1.
          2    1    6    6  503    0 -0.34453932912E+03  0.41201397005E+03  0.38403123318E+02  0.53845859702E+03  0.00000000000E+00 0. -1.
         -2    1    6    6    0  503 -0.13459058911E+02  0.32195004438E+00  0.11140625040E+02  0.17474651496E+02  0.00000000000E+00 0.  1.
<mgrwt>
<rscale>  0 0.24587960E+04</rscale>
<asrwt>0</asrwt>
<pdfrwt beam="1">  1        2 0.11200024E+00 0.24587960E+04</pdfrwt>
<pdfrwt beam="2">  1       -1 0.31940327E+00 0.24587960E+04</pdfrwt>
<totfact> 0.98275911E-01</totfact>
</mgrwt>
</event>
<event>
12    7  0.2492439E-007  0.2213939E+04  0.7818608E-02  0.8512649E-01
          2   -1    0    0  501    0  0.00000000000E+00  0.00000000000E+00  0.24062244395E+04  0.24062244395E+04  0.00000000000E+00 0. -1.
         -1   -1    0    0    0  501 -0.00000000000E+00 -0.00000000000E+00 -0.50925486512E+03  0.50925486512E+03  0.00000000000E+00 0.  1.
         24    2    1    2    0    0  0.60958613499E+03  0.68348409490E+03  0.66083400634E+03  0.11321212763E+04  0.79064760207E+02 0.  0.
        254    2    1    2    0    0 -0.60958613499E+03 -0.68348409490E+03  0.12361355681E+04  0.17833580284E+04  0.90199165782E+03 0.  0.
         23    2    4    4    0    0 -0.72560142539E+03 -0.74568666211E+03  0.79063124256E+03  0.13101345761E+04  0.93855310577E+02 0.  0.
         23    2    4    4    0    0  0.11601529040E+03  0.62202567208E+02  0.44550432552E+03  0.47322345224E+03  0.90208784012E+02 0.  0.
          2    1    3    3  502    0  0.17371808581E+03  0.14419921405E+03  0.15655554753E+03  0.27473810463E+03  0.00000000000E+00 0. -1.
         -1    1    3    3    0  502  0.43586804917E+03  0.53928488085E+03  0.50427845880E+03  0.85738317164E+03  0.00000000000E+00 0.  1.
         13    1    5    5    0    0 -0.78158943681E+02 -0.92347029992E+02  0.57741074376E+02  0.13405530984E+03  0.00000000000E+00 0.  1.
        -13    1    5    5    0    0 -0.64744248171E+03 -0.65333963211E+03  0.73289016818E+03  0.11760792663E+04  0.00000000000E+00 0. -1.
          1    1    6    6  503    0  0.10652175473E+03  0.33335387510E+02  0.23072255360E+03  0.25630261222E+03  0.00000000000E+00 0. -1.
         -1    1    6    6    0  503  0.94935356731E+01  0.28867179699E+02  0.21478177192E+03  0.21692084001E+03  0.00000000000E+00 0.  1.
<mgrwt>
<rscale>  0 0.22139390E+04</rscale>
<asrwt>0</asrwt>
<pdfrwt beam="1">  1        2 0.37018837E+00 0.22139390E+04</pdfrwt>
<pdfrwt beam="2">  1       -1 0.78346904E-01 0.22139390E+04</pdfrwt>
<totfact> 0.66802802E+00</totfact>
</mgrwt>
</event>
<event>
12    7  0.2492439E-007  0.2708881E+04  0.7818608E-02  0.8332129E-01
         -1   -1    0    0    0  501 -0.00000000000E+00  0.00000000000E+00  0.47546720474E+03  0.47546720474E+03  0.00000000000E+00 0.  1.
          2   -1    0    0  501    0  0.00000000000E+00 -0.00000000000E+00 -0.38583292765E+04  0.38583292765E+04  0.00000000000E+00 0. -1.
         24    2    1    2    0    0  0.90126117432E+03 -0.61969726168E+03 -0.23106910944E+04  0.25577201958E+04  0.79642111466E+02 0.  0.
        254    2    1    2    0    0 -0.90126117432E+03  0.61969726168E+03 -0.10721709774E+04  0.17760762855E+04  0.89922186726E+03 0.  0.
         23    2    4    4    0    0 -0.99612654991E+03  0.34744274511E+03 -0.60539184085E+03  0.12196310697E+04  0.89532678661E+02 0.  0.
         23    2    4    4    0    0  0.94865375586E+02  0.27225451657E+03 -0.46677913656E+03  0.55644521582E+03  0.92879247417E+02 0.  0.
          2    1    3    3  502    0  0.65509283333E+03 -0.41988447707E+03 -0.17008306220E+04  0.18703674503E+04  0.00000000000E+00 0. -1.
         -1    1    3    3    0  502  0.24616834099E+03 -0.19981278461E+03 -0.60986047237E+03  0.68735274551E+03  0.00000000000E+00 0.  1.
         13    1    5    5    0    0 -0.13261868351E+03  0.69782378256E+02 -0.61314216119E+02  0.16191580723E+03  0.00000000000E+00 0. -1.
        -13    1    5    5    0    0 -0.86350786639E+03  0.27766036685E+03 -0.54407762473E+03  0.10577152624E+04  0.00000000000E+00 0.  1.
          2    1    6    6  503    0 -0.59827068344E+01  0.33420488351E+02 -0.11202156709E+03  0.11705363435E+03  0.00000000000E+00 0. -1.
         -2    1    6    6    0  503  0.10084808242E+03  0.23883402822E+03 -0.35475756947E+03  0.43939158146E+03  0.00000000000E+00 0.  1.
<mgrwt>
<rscale>  0 0.27088810E+04</rscale>
<asrwt>0</asrwt>
<pdfrwt beam="1">  1        2 0.59358912E+00 0.27088810E+04</pdfrwt>
<pdfrwt beam="2">  1       -1 0.73148800E-01 0.27088810E+04</pdfrwt>
<totfact> 0.83241441E-01</totfact>
</mgrwt>
</event>
<event>
12    7  0.2492439E-007  0.1852548E+04  0.7818608E-02  0.8678844E-01
         -1   -1    0    0    0  501 -0.00000000000E+00  0.00000000000E+00  0.10174940209E+04  0.10174940209E+04  0.00000000000E+00 0.  1.
          2   -1    0    0  501    0  0.00000000000E+00 -0.00000000000E+00 -0.84323164053E+03  0.84323164053E+03  0.00000000000E+00 0. -1.
         24    2    1    2    0    0 -0.11123072520E+03 -0.67680478589E+03 -0.96678284751E+02  0.69742949565E+03  0.81389300437E+02 0.  0.
        254    2    1    2    0    0  0.11123072520E+03  0.67680478589E+03  0.27094066509E+03  0.11632961658E+04  0.89967334785E+03 0.  0.
         23    2    4    4    0    0 -0.29548971655E+03  0.40461418281E+02  0.25394203490E+03  0.40243860100E+03  0.92298274768E+02 0.  0.
         23    2    4    4    0    0  0.40672044175E+03  0.63634336761E+03  0.16998630190E+02  0.76085756476E+03  0.90889389834E+02 0.  0.
          2    1    3    3  502    0 -0.35999621495E+02 -0.17997223046E+03 -0.62046469200E+02  0.19374142775E+03  0.00000000000E+00 0. -1.
         -1    1    3    3    0  502 -0.75231103705E+02 -0.49683255543E+03 -0.34631815552E+02  0.50368806790E+03  0.00000000000E+00 0.  1.
         13    1    5    5    0    0 -0.21351348503E+03  0.20136850912E+02  0.12479746634E+03  0.24812881465E+03  0.00000000000E+00 0.  1.
        -13    1    5    5    0    0 -0.81976231520E+02  0.20324567368E+02  0.12914456856E+03  0.15430978635E+03  0.00000000000E+00 0. -1.
          2    1    6    6  503    0  0.32461274012E+03  0.55782244717E+03 -0.35280198806E+01  0.64540821232E+03  0.00000000000E+00 0. -1.
         -2    1    6    6    0  503  0.82107701637E+02  0.78520920443E+02  0.20526650070E+02  0.11544935244E+03  0.00000000000E+00 0.  1.
<mgrwt>
<rscale>  0 0.18525476E+04</rscale>
<asrwt>0</asrwt>
<pdfrwt beam="1">  1        2 0.12972795E+00 0.18525476E+04</pdfrwt>
<pdfrwt beam="2">  1       -1 0.15653754E+00 0.18525476E+04</pdfrwt>
<totfact> 0.10692272E+01</totfact>
</mgrwt>
</event>
<event>
12    7  0.2492439E-007  0.4114098E+04  0.7818608E-02  0.7981917E-01
          2   -1    0    0  501    0  0.00000000000E+00  0.00000000000E+00  0.33479934792E+04  0.33479934792E+04  0.00000000000E+00 0. -1.
         -1   -1    0    0    0  501 -0.00000000000E+00 -0.00000000000E+00 -0.12638766784E+04  0.12638766784E+04  0.00000000000E+00 0.  1.
         24    2    1    2    0    0 -0.17570007350E+04 -0.85172380121E+03  0.81891712340E+03  0.21183457867E+04  0.65411013313E+02 0.  0.
        254    2    1    2    0    0  0.17570007350E+04  0.85172380121E+03  0.12651996774E+04  0.24935243708E+04  0.89691055723E+03 0.  0.
         23    2    4    4    0    0  0.77634469762E+02  0.19271673866E+03 -0.79457561785E+02  0.24159670514E+03  0.94279433370E+02 0.  0.
         23    2    4    4    0    0  0.16793662653E+04  0.65900706255E+03  0.13446572392E+04  0.22519276657E+04  0.92270033415E+02 0.  0.
          2    1    3    3  502    0 -0.14682466010E+04 -0.68877211271E+03  0.69418333114E+03  0.17640990907E+04  0.00000000000E+00 0. -1.
         -1    1    3    3    0  502 -0.28875413407E+03 -0.16295168850E+03  0.12473379226E+03  0.35424669605E+03  0.00000000000E+00 0.  1.
         13    1    5    5    0    0  0.73701385302E+02  0.61747066055E+02 -0.22633343521E+02  0.98776832308E+02  0.00000000000E+00 0. -1.
        -13    1    5    5    0    0  0.39330844604E+01  0.13096967261E+03 -0.56824218264E+02  0.14281987284E+03  0.00000000000E+00 0.  1.
          3    1    6    6  503    0  0.55877292109E+03  0.21480208913E+03  0.50070214826E+03  0.78042921275E+03  0.00000000000E+00 0. -1.
         -3    1    6    6    0  503  0.11205933442E+04  0.44420497342E+03  0.84395509093E+03  0.14714984529E+04  0.00000000000E+00 0.  1.
<mgrwt>
<rscale>  0 0.41140981E+04</rscale>
<asrwt>0</asrwt>
<pdfrwt beam="1">  1        2 0.51507592E+00 0.41140981E+04</pdfrwt>
<pdfrwt beam="2">  1       -1 0.19444257E+00 0.41140981E+04</pdfrwt>
<totfact> 0.15072772E-01</totfact>
</mgrwt>
</event>
<event>
12    7  0.2492439E-007  0.1941714E+04  0.7818608E-02  0.8634367E-01
         -1   -1    0    0    0  501 -0.00000000000E+00  0.00000000000E+00  0.29896043172E+03  0.29896043172E+03  0.00000000000E+00 0.  1.
          2   -1    0    0  501    0  0.00000000000E+00 -0.00000000000E+00 -0.31528014980E+04  0.31528014980E+04  0.00000000000E+00 0. -1.
         24    2    1    2    0    0 -0.61528245123E+03  0.36740130010E+03 -0.67690567965E+03  0.98907086176E+03  0.80645274703E+02 0.  0.
        254    2    1    2    0    0  0.61528245123E+03 -0.36740130010E+03 -0.21769353866E+04  0.24626910680E+04  0.90124547632E+03 0.  0.
         23    2    4    4    0    0  0.22738825896E+03 -0.31146369487E+03 -0.19707386336E+04  0.20103365335E+04  0.94483661567E+02 0.  0.
         23    2    4    4    0    0  0.38789419226E+03 -0.55937605231E+02 -0.20619675306E+03  0.45235453452E+03  0.92285447721E+02 0.  0.
          4    1    3    3  502    0 -0.15288102589E+03  0.13149544899E+03 -0.20429321636E+03  0.28705292097E+03  0.00000000000E+00 0. -1.
         -3    1    3    3    0  502 -0.46240142533E+03  0.23590585111E+03 -0.47261246329E+03  0.70201794079E+03  0.00000000000E+00 0.  1.
         13    1    5    5    0    0  0.12531475943E+03 -0.15134583110E+03 -0.76996829074E+03  0.79464490074E+03  0.00000000000E+00 0.  1.
        -13    1    5    5    0    0  0.10207349954E+03 -0.16011786377E+03 -0.12007703428E+04  0.12156916327E+04  0.00000000000E+00 0. -1.
          4    1    6    6  503    0  0.20679907867E+03 -0.86211523628E+01 -0.61963067608E+02  0.21605463419E+03  0.00000000000E+00 0.  1.
         -4    1    6    6    0  503  0.18109511359E+03 -0.47316452868E+02 -0.14423368545E+03  0.23629990033E+03  0.00000000000E+00 0. -1.
<mgrwt>
<rscale>  0 0.19417136E+04</rscale>
<asrwt>0</asrwt>
<pdfrwt beam="1">  1        2 0.48504636E+00 0.19417136E+04</pdfrwt>
<pdfrwt beam="2">  1       -1 0.45993915E-01 0.19417136E+04</pdfrwt>
<totfact> 0.69769181E+00</totfact>
</mgrwt>
</event>
<event>
12    7  0.2492439E-007  0.2270876E+04  0.7818608E-02  0.8489494E-01
         -1   -1    0    0    0  501 -0.00000000000E+00  0.00000000000E+00  0.21016053139E+04  0.21016053139E+04  0.00000000000E+00 0.  1.
          2   -1    0    0  501    0  0.00000000000E+00 -0.00000000000E+00 -0.61344491520E+03  0.61344491520E+03  0.00000000000E+00 0. -1.
         24    2    1    2    0    0 -0.76867868162E+03  0.49372712519E+03  0.96387133683E+03  0.13304794547E+04  0.80586820384E+02 0.  0.
        254    2    1    2    0    0  0.76867868162E+03 -0.49372712519E+03  0.52428906185E+03  0.13845707744E+04  0.89862329106E+03 0.  0.
         23    2    4    4    0    0  0.61499555404E+03 -0.74686597725E+03  0.41902096927E+03  0.10583070063E+04  0.91688752687E+02 0.  0.
         23    2    4    4    0    0  0.15368312758E+03  0.25313885206E+03  0.10526809258E+03  0.32626376814E+03  0.87572215681E+02 0.  0.
          2    1    3    3  502    0 -0.47854092690E+02  0.98648034035E+01  0.55969373244E+02  0.74296024622E+02  0.00000000000E+00 0. -1.
         -1    1    3    3    0  502 -0.72082458893E+03  0.48386232179E+03  0.90790196359E+03  0.12561834301E+04  0.00000000000E+00 0.  1.
         13    1    5    5    0    0  0.48027148889E+02 -0.82592674224E+02  0.17657630436E+02  0.97159398817E+02  0.00000000000E+00 0. -1.
        -13    1    5    5    0    0  0.56696840515E+03 -0.66427330303E+03  0.40136333883E+03  0.96114760745E+03  0.00000000000E+00 0.  1.
          3    1    6    6  503    0  0.52332182380E+02  0.61035815811E+02  0.69223296597E+02  0.10609379301E+03  0.00000000000E+00 0. -1.
         -3    1    6    6    0  503  0.10135094520E+03  0.19210303625E+03  0.36044795985E+02  0.22016997513E+03  0.00000000000E+00 0.  1.
<mgrwt>
<rscale>  0 0.22708757E+04</rscale>
<asrwt>0</asrwt>
<pdfrwt beam="1">  1        2 0.94376142E-01 0.22708757E+04</pdfrwt>
<pdfrwt beam="2">  1       -1 0.32332389E+00 0.22708757E+04</pdfrwt>
<totfact> 0.11664547E+00</totfact>
</mgrwt>
</event>
<event>
12    7  0.2492439E-007  0.2062487E+04  0.7818608E-02  0.8577951E-01
         -1   -1    0    0    0  501 -0.00000000000E+00  0.00000000000E+00  0.11045558414E+04  0.11045558414E+04  0.00000000000E+00 0.  1.
          2   -1    0    0  501    0  0.00000000000E+00 -0.00000000000E+00 -0.96279724316E+03  0.96279724316E+03  0.00000000000E+00 0. -1.
         24    2    1    2    0    0  0.14541624866E+03 -0.78355002995E+03 -0.18326741093E+03  0.82168160062E+03  0.80480892609E+02 0.  0.
        254    2    1    2    0    0 -0.14541624866E+03  0.78355002995E+03  0.32502600918E+03  0.12456714839E+04  0.90053262265E+03 0.  0.
         23    2    4    4    0    0 -0.37251606935E+03  0.73836825650E+03  0.47260390573E+03  0.95681393869E+03  0.90457489680E+02 0.  0.
         23    2    4    4    0    0  0.22709982069E+03  0.45181773455E+02 -0.14757789655E+03  0.28885754525E+03  0.89686814468E+02 0.  0.
          4    1    3    3  502    0  0.10413189754E+03 -0.35747176632E+03 -0.69674838406E+02  0.37879294992E+03  0.00000000000E+00 0. -1.
         -3    1    3    3    0  502  0.41284351122E+02 -0.42607826363E+03 -0.11359257252E+03  0.44288865070E+03  0.00000000000E+00 0.  1.
         13    1    5    5    0    0 -0.34476710927E+03  0.69884759297E+03  0.46627718295E+03  0.90811162814E+03  0.00000000000E+00 0. -1.
        -13    1    5    5    0    0 -0.27748960083E+02  0.39520663529E+02  0.63267227727E+01  0.48702310545E+02  0.00000000000E+00 0.  1.
          1    1    6    6  503    0  0.10859372980E+03  0.16405988254E+00 -0.11458022307E+03  0.15786466542E+03  0.00000000000E+00 0. -1.
         -1    1    6    6    0  503  0.11850609089E+03  0.45017713572E+02 -0.32997673477E+02  0.13099287983E+03  0.00000000000E+00 0.  1.
<mgrwt>
<rscale>  0 0.20624872E+04</rscale>
<asrwt>0</asrwt>
<pdfrwt beam="1">  1        2 0.14812265E+00 0.20624872E+04</pdfrwt>
<pdfrwt beam="2">  1       -1 0.16993167E+00 0.20624872E+04</pdfrwt>
<totfact> 0.69173095E+00</totfact>
</mgrwt>
</event>
<event>
12    7  0.2492439E-007  0.1851501E+04  0.7818608E-02  0.8679381E-01
          4   -1    0    0  501    0  0.00000000000E+00  0.00000000000E+00  0.24964291801E+04  0.24964291801E+04  0.00000000000E+00 0. -1.
         -3   -1    0    0    0  501 -0.00000000000E+00 -0.00000000000E+00 -0.34329595257E+03  0.34329595257E+03  0.00000000000E+00 0.  1.
         24    2    1    2    0    0 -0.59627517318E+03 -0.23270606750E+03  0.12730391789E+04  0.14270931870E+04  0.79183442781E+02 0.  0.
        254    2    1    2    0    0  0.59627517318E+03  0.23270606750E+03  0.88009404872E+03  0.14126319457E+04  0.90070377113E+03 0.  0.
         23    2    4    4    0    0  0.71307183365E+03 -0.11338831128E+03  0.54762750593E+03  0.91043467774E+03  0.87561795885E+02 0.  0.
         23    2    4    4    0    0 -0.11679666047E+03  0.34609437878E+03  0.33246654279E+03  0.50219726793E+03  0.90803716446E+02 0.  0.
          4    1    3    3  502    0 -0.46064344720E+03 -0.17842253779E+03  0.10509891324E+04  0.11612945982E+04  0.00000000000E+00 0. -1.
         -3    1    3    3    0  502 -0.13563172597E+03 -0.54283529712E+02  0.22205004647E+03  0.26579858883E+03  0.00000000000E+00 0.  1.
         13    1    5    5    0    0  0.19220404506E+03 -0.68707649677E+00  0.17714964423E+03  0.26139025128E+03  0.00000000000E+00 0.  1.
        -13    1    5    5    0    0  0.52086778859E+03 -0.11270123478E+03  0.37047786170E+03  0.64904442646E+03  0.00000000000E+00 0. -1.
          1    1    6    6  503    0 -0.86596442827E+01  0.51803090325E+02  0.96231325720E+02  0.10963128046E+03  0.00000000000E+00 0. -1.
         -1    1    6    6    0  503 -0.10813701619E+03  0.29429128845E+03  0.23623521707E+03  0.39256598746E+03  0.00000000000E+00 0.  1.
<mgrwt>
<rscale>  0 0.18515010E+04</rscale>
<asrwt>0</asrwt>
<pdfrwt beam="1">  1        4 0.38406602E+00 0.18515010E+04</pdfrwt>
<pdfrwt beam="2">  1       -3 0.52814763E-01 0.18515010E+04</pdfrwt>
<totfact> 0.67228074E-02</totfact>
</mgrwt>
</event>
<event>
12    7  0.2492439E-007  0.1041934E+04  0.7818608E-02  0.9263712E-01
          2   -1    0    0  501    0  0.00000000000E+00  0.00000000000E+00  0.12234189134E+04  0.12234189134E+04  0.00000000000E+00 0. -1.
         -1   -1    0    0    0  501 -0.00000000000E+00 -0.00000000000E+00 -0.22184255529E+03  0.22184255529E+03  0.00000000000E+00 0.  1.
         24    2    1    2    0    0 -0.42843127785E+02 -0.57960628190E+01 -0.82216291403E+01  0.91693557697E+02  0.80442435287E+02 0.  0.
        254    2    1    2    0    0  0.42843127785E+02  0.57960628190E+01  0.10097979872E+04  0.13535679110E+04  0.90032493394E+03 0.  0.
         23    2    4    4    0    0 -0.24041940047E+03 -0.28073335463E+03  0.80986725482E+03  0.89491595931E+03  0.91525402300E+02 0.  0.
         23    2    4    4    0    0  0.28326252826E+03  0.28652941745E+03  0.19993073240E+03  0.45865195167E+03  0.89735990718E+02 0.  0.
          4    1    3    3  502    0 -0.31509409407E+01  0.18260492338E+02  0.27475592656E+02  0.33140340992E+02  0.00000000000E+00 0. -1.
         -3    1    3    3    0  502 -0.39692186844E+02 -0.24056555157E+02 -0.35697221797E+02  0.58553216705E+02  0.00000000000E+00 0.  1.
         13    1    5    5    0    0 -0.69801446130E+02 -0.94574924224E+02  0.16688698065E+03  0.20412722132E+03  0.00000000000E+00 0.  1.
        -13    1    5    5    0    0 -0.17061795434E+03 -0.18615843040E+03  0.64298027417E+03  0.69078873799E+03  0.00000000000E+00 0. -1.
          4    1    6    6  503    0  0.96745860170E+02  0.47868428153E+02  0.33382423718E+02  0.11298466306E+03  0.00000000000E+00 0.  1.
         -4    1    6    6    0  503  0.18651666809E+03  0.23866098929E+03  0.16654830868E+03  0.34566728860E+03  0.00000000000E+00 0. -1.
<mgrwt>
<rscale>  0 0.10419335E+04</rscale>
<asrwt>0</asrwt>
<pdfrwt beam="1">  1        2 0.18821829E+00 0.10419335E+04</pdfrwt>
<pdfrwt beam="2">  1       -1 0.34129625E-01 0.10419335E+04</pdfrwt>
<totfact> 0.16884585E+02</totfact>
</mgrwt>
</event>
<event>
12    7  0.2492439E-007  0.2049620E+04  0.7818608E-02  0.8583767E-01
          2   -1    0    0  501    0  0.00000000000E+00  0.00000000000E+00  0.14369430734E+04  0.14369430734E+04  0.00000000000E+00 0. -1.
         -1   -1    0    0    0  501 -0.00000000000E+00 -0.00000000000E+00 -0.73088150882E+03  0.73088150882E+03  0.00000000000E+00 0.  1.
         24    2    1    2    0    0 -0.67841471177E+03 -0.33836739208E+03 -0.57132750054E+02  0.76446579565E+03  0.80029921981E+02 0.  0.
        254    2    1    2    0    0  0.67841471177E+03  0.33836739208E+03  0.76319431463E+03  0.14033587866E+04  0.90122766756E+03 0.  0.
         23    2    4    4    0    0  0.77370967720E+03 -0.27952249066E+02  0.58608433584E+03  0.97577380276E+03  0.96081593525E+02 0.  0.
         23    2    4    4    0    0 -0.95294965430E+02  0.36631964114E+03  0.17710997879E+03  0.42758498380E+03  0.90497314121E+02 0.  0.
          2    1    3    3  502    0 -0.17189048608E+03 -0.59543595871E+02  0.11149417710E+02  0.18225281488E+03  0.00000000000E+00 0. -1.
         -1    1    3    3    0  502 -0.50652422569E+03 -0.27882379621E+03 -0.68282167765E+02  0.58221298077E+03  0.00000000000E+00 0.  1.
         13    1    5    5    0    0  0.30272450395E+03  0.27431646830E+02  0.19553187152E+03  0.36142403534E+03  0.00000000000E+00 0.  1.
        -13    1    5    5    0    0  0.47098517326E+03 -0.55383895895E+02  0.39055246432E+03  0.61434976743E+03  0.00000000000E+00 0. -1.
          4    1    6    6  503    0  0.15851538713E+02  0.31076260798E+02  0.25602774118E+02  0.43272477480E+02  0.00000000000E+00 0. -1.
         -4    1    6    6    0  503 -0.11114650414E+03  0.33524338034E+03  0.15150720467E+03  0.38431250632E+03  0.00000000000E+00 0.  1.
<mgrwt>
<rscale>  0 0.20496196E+04</rscale>
<asrwt>0</asrwt>
<pdfrwt beam="1">  1        2 0.22106816E+00 0.20496196E+04</pdfrwt>
<pdfrwt beam="2">  1       -1 0.11244331E+00 0.20496196E+04</pdfrwt>
<totfact> 0.10528299E+01</totfact>
</mgrwt>
</event>
<event>
12    7  0.2492439E-007  0.1229128E+04  0.7818608E-02  0.9087736E-01
         -1   -1    0    0    0  501 -0.00000000000E+00  0.00000000000E+00  0.90816701811E+02  0.90816701811E+02  0.00000000000E+00 0.  1.
          2   -1    0    0  501    0  0.00000000000E+00 -0.00000000000E+00 -0.41588019255E+04  0.41588019255E+04  0.00000000000E+00 0. -1.
         24    2    1    2    0    0  0.16828465635E+03 -0.15147707699E+03 -0.15202643311E+04  0.15390762069E+04  0.79289997676E+02 0.  0.
        254    2    1    2    0    0 -0.16828465635E+03  0.15147707699E+03 -0.25477208925E+04  0.27105424204E+04  0.89715853450E+03 0.  0.
         23    2    4    4    0    0 -0.13039243564E+03  0.29703003393E+03 -0.25086743298E+04  0.25310278348E+04  0.86174123813E+02 0.  0.
         23    2    4    4    0    0 -0.37892220708E+02 -0.14555295694E+03 -0.39046562765E+02  0.17951458553E+03  0.89885308543E+02 0.  0.
          2    1    3    3  502    0  0.15996292112E+03 -0.14304823856E+03 -0.15023581185E+04  0.15176069488E+04  0.00000000000E+00 0. -1.
         -1    1    3    3    0  502  0.83217352224E+01 -0.84288384386E+01 -0.17906212615E+02  0.21469258132E+02  0.00000000000E+00 0.  1.
         13    1    5    5    0    0 -0.10989358533E+03  0.14349060177E+03 -0.13548001868E+04  0.13668027286E+04  0.00000000000E+00 0. -1.
        -13    1    5    5    0    0 -0.20498850304E+02  0.15353943216E+03 -0.11538741430E+04  0.11642251062E+04  0.00000000000E+00 0.  1.
          1    1    6    6  503    0 -0.23595827583E+02 -0.11870619515E+03  0.10386575840E+02  0.12147347366E+03  0.00000000000E+00 0. -1.
         -1    1    6    6    0  503 -0.14296393125E+02 -0.26846761791E+02 -0.49433138605E+02  0.58041111873E+02  0.00000000000E+00 0.  1.
<mgrwt>
<rscale>  0 0.12291276E+04</rscale>
<asrwt>0</asrwt>
<pdfrwt beam="1">  1        2 0.63981573E+00 0.12291276E+04</pdfrwt>
<pdfrwt beam="2">  1       -1 0.13971799E-01 0.12291276E+04</pdfrwt>
<totfact> 0.10913182E+01</totfact>
</mgrwt>
</event>
<event>
12    7  0.2492439E-007  0.2086430E+04  0.7818608E-02  0.8567245E-01
          2   -1    0    0  501    0  0.00000000000E+00  0.00000000000E+00  0.42617674882E+03  0.42617674882E+03  0.00000000000E+00 0. -1.
         -1   -1    0    0    0  501 -0.00000000000E+00 -0.00000000000E+00 -0.25536293783E+04  0.25536293783E+04  0.00000000000E+00 0.  1.
         24    2    1    2    0    0  0.33830770103E+03 -0.26419673070E+03  0.17606855875E+03  0.47073109602E+03  0.79596572121E+02 0.  0.
        254    2    1    2    0    0 -0.33830770103E+03  0.26419673070E+03 -0.23035211883E+04  0.25090750311E+04  0.89721548917E+03 0.  0.
         23    2    4    4    0    0  0.49062595375E+02  0.49982042464E+03 -0.94466842819E+03  0.10737634953E+04  0.91334601788E+02 0.  0.
         23    2    4    4    0    0 -0.38737029640E+03 -0.23562369394E+03 -0.13588527601E+04  0.14353115358E+04  0.89800387765E+02 0.  0.
          4    1    3    3  502    0  0.32253524705E+03 -0.23762290627E+03  0.14275359504E+03  0.42529074769E+03  0.00000000000E+00 0. -1.
         -3    1    3    3    0  502  0.15772453973E+02 -0.26573824428E+02  0.33314963708E+02  0.45440348325E+02  0.00000000000E+00 0.  1.
         13    1    5    5    0    0  0.48964265676E+02  0.14753698166E+03 -0.24004110589E+03  0.28597970695E+03  0.00000000000E+00 0.  1.
        -13    1    5    5    0    0  0.98329699025E-01  0.35228344298E+03 -0.70462732230E+03  0.78778378836E+03  0.00000000000E+00 0. -1.
          2    1    6    6  503    0 -0.13403385981E+03 -0.78364439870E+02 -0.34100336541E+03  0.37468567658E+03  0.00000000000E+00 0. -1.
         -2    1    6    6    0  503 -0.25333643660E+03 -0.15725925407E+03 -0.10178493947E+04  0.10606258593E+04  0.00000000000E+00 0.  1.
<mgrwt>
<rscale>  0 0.20864299E+04</rscale>
<asrwt>0</asrwt>
<pdfrwt beam="1">  1        2 0.65565652E-01 0.20864299E+04</pdfrwt>
<pdfrwt beam="2">  1       -1 0.39286607E+00 0.20864299E+04</pdfrwt>
<totfact> 0.62514915E-01</totfact>
</mgrwt>
</event>
<event>
12    7  0.2492439E-007  0.1545776E+04  0.7818608E-02  0.8854570E-01
         -1   -1    0    0    0  501 -0.00000000000E+00  0.00000000000E+00  0.29083247322E+03  0.29083247322E+03  0.00000000000E+00 0.  1.
          2   -1    0    0  501    0  0.00000000000E+00 -0.00000000000E+00 -0.20539516543E+04  0.20539516543E+04  0.00000000000E+00 0. -1.
         24    2    1    2    0    0  0.30023855058E+03 -0.38906424547E+03 -0.39617688556E+03  0.63630068321E+03  0.80051611121E+02 0.  0.
        254    2    1    2    0    0 -0.30023855058E+03  0.38906424547E+03 -0.13669422955E+04  0.17084834443E+04  0.89937215092E+03 0.  0.
         23    2    4    4    0    0 -0.53716413320E+03  0.24351542554E+02 -0.52722012588E+03  0.75853362614E+03  0.90960965375E+02 0.  0.
         23    2    4    4    0    0  0.23692558262E+03  0.36471270291E+03 -0.83972216962E+03  0.94994981816E+03  0.90123512471E+02 0.  0.
          4    1    3    3  502    0  0.66433812478E+02 -0.14324078715E+03 -0.14248420511E+03  0.21268080132E+03  0.00000000000E+00 0. -1.
         -3    1    3    3    0  502  0.23380473810E+03 -0.24582345832E+03 -0.25369268045E+03  0.42361988189E+03  0.00000000000E+00 0.  1.
         13    1    5    5    0    0 -0.12541094313E+03 -0.24298265781E+02 -0.15946056900E+03  0.20431833848E+03  0.00000000000E+00 0.  1.
        -13    1    5    5    0    0 -0.41175319008E+03  0.48649808335E+02 -0.36775955689E+03  0.55421528766E+03  0.00000000000E+00 0. -1.
          2    1    6    6  503    0  0.13751106608E+03  0.16543196414E+03 -0.33290661295E+03  0.39636326898E+03  0.00000000000E+00 0.  1.
         -2    1    6    6    0  503  0.99414516548E+02  0.19928073878E+03 -0.50681555667E+03  0.55358654918E+03  0.00000000000E+00 0. -1.
<mgrwt>
<rscale>  0 0.15457760E+04</rscale>
<asrwt>0</asrwt>
<pdfrwt beam="1">  1        2 0.31599254E+00 0.15457760E+04</pdfrwt>
<pdfrwt beam="2">  1       -1 0.44743460E-01 0.15457760E+04</pdfrwt>
<totfact> 0.33860915E+01</totfact>
</mgrwt>
</event>
<event>
12    7  0.2492439E-007  0.1522371E+04  0.7818608E-02  0.8869711E-01
          2   -1    0    0  501    0  0.00000000000E+00  0.00000000000E+00  0.78351607293E+03  0.78351607293E+03  0.00000000000E+00 0. -1.
         -1   -1    0    0    0  501 -0.00000000000E+00 -0.00000000000E+00 -0.73949138393E+03  0.73949138393E+03  0.00000000000E+00 0.  1.
         24    2    1    2    0    0 -0.37240421178E+03  0.21840369366E+03  0.24873698834E+03  0.50351630265E+03  0.72618918414E+02 0.  0.
        254    2    1    2    0    0  0.37240421178E+03 -0.21840369366E+03 -0.20471229933E+03  0.10194911542E+04  0.90059425807E+03 0.  0.
         23    2    4    4    0    0  0.41914143623E+03 -0.44676280084E+03 -0.36840372362E+03  0.72030688092E+03  0.88567236256E+02 0.  0.
         23    2    4    4    0    0 -0.46737224449E+02  0.22835910719E+03  0.16369142429E+03  0.29918427330E+03  0.91564714909E+02 0.  0.
          4    1    3    3  502    0 -0.12877014384E+03  0.11365253690E+03  0.11308202072E+03  0.20563606809E+03  0.00000000000E+00 0. -1.
         -3    1    3    3    0  502 -0.24363406794E+03  0.10475115676E+03  0.13565496762E+03  0.29788023456E+03  0.00000000000E+00 0.  1.
         13    1    5    5    0    0  0.19188989039E+03 -0.21113504167E+03 -0.12066916804E+03  0.30977537664E+03  0.00000000000E+00 0.  1.
        -13    1    5    5    0    0  0.22725154584E+03 -0.23562775917E+03 -0.24773455558E+03  0.41053150428E+03  0.00000000000E+00 0. -1.
          2    1    6    6  503    0 -0.68006457359E+02  0.18442771739E+03  0.15330840245E+03  0.24928282621E+03  0.00000000000E+00 0. -1.
         -2    1    6    6    0  503  0.21269232910E+02  0.43931389799E+02  0.10383021842E+02  0.49901447081E+02  0.00000000000E+00 0.  1.
<mgrwt>
<rscale>  0 0.15223710E+04</rscale>
<asrwt>0</asrwt>
<pdfrwt beam="1">  1        2 0.12054093E+00 0.15223710E+04</pdfrwt>
<pdfrwt beam="2">  1       -1 0.11376790E+00 0.15223710E+04</pdfrwt>
<totfact> 0.27478695E+01</totfact>
</mgrwt>
</event>
<event>
12    7  0.2492439E-007  0.1734630E+04  0.7818608E-02  0.8741857E-01
          2   -1    0    0  501    0  0.00000000000E+00  0.00000000000E+00  0.12206571905E+04  0.12206571905E+04  0.00000000000E+00 0. -1.
         -1   -1    0    0    0  501 -0.00000000000E+00 -0.00000000000E+00 -0.61625417193E+03  0.61625417193E+03  0.00000000000E+00 0.  1.
         24    2    1    2    0    0 -0.11329593630E+02  0.62649972456E+03  0.14665828740E+03  0.64862442002E+03  0.81084649703E+02 0.  0.
        254    2    1    2    0    0  0.11329593630E+02 -0.62649972456E+03  0.45774473118E+03  0.11882869424E+04  0.89992519360E+03 0.  0.
         23    2    4    4    0    0  0.15931351744E+03 -0.39858987310E+03  0.69052177786E+03  0.81804107233E+03  0.90089880340E+02 0.  0.
         23    2    4    4    0    0 -0.14798392381E+03 -0.22790985146E+03 -0.23277704668E+03  0.37024587010E+03  0.95156233477E+02 0.  0.
          2    1    3    3  502    0  0.23128488172E+02  0.38172603937E+03  0.11546385287E+03  0.39947665441E+03  0.00000000000E+00 0. -1.
         -1    1    3    3    0  502 -0.34458081802E+02  0.24477368519E+03  0.31194434528E+02  0.24914776561E+03  0.00000000000E+00 0.  1.
         13    1    5    5    0    0  0.46406537990E+02 -0.83350640988E+02  0.93795387845E+02  0.13378516697E+03  0.00000000000E+00 0.  1.
        -13    1    5    5    0    0  0.11290697945E+03 -0.31523923212E+03  0.59672639002E+03  0.68425590536E+03  0.00000000000E+00 0. -1.
          3    1    6    6  503    0 -0.61173229564E+02 -0.13564171669E+03 -0.17859620749E+03  0.23245955488E+03  0.00000000000E+00 0. -1.
         -3    1    6    6    0  503 -0.86810694246E+02 -0.92268134767E+02 -0.54180839187E+02  0.13778631523E+03  0.00000000000E+00 0.  1.
<mgrwt>
<rscale>  0 0.17346297E+04</rscale>
<asrwt>0</asrwt>
<pdfrwt beam="1">  1        2 0.18779341E+00 0.17346297E+04</pdfrwt>
<pdfrwt beam="2">  1       -1 0.94808334E-01 0.17346297E+04</pdfrwt>
<totfact> 0.21429782E+01</totfact>
</mgrwt>
</event>
<event>
12    7  0.2492439E-007  0.2753704E+04  0.7818608E-02  0.8317787E-01
          2   -1    0    0  501    0  0.00000000000E+00  0.00000000000E+00  0.15625584841E+04  0.15625584841E+04  0.00000000000E+00 0. -1.
         -1   -1    0    0    0  501 -0.00000000000E+00 -0.00000000000E+00 -0.12132162032E+04  0.12132162032E+04  0.00000000000E+00 0.  1.
         24    2    1    2    0    0 -0.10029679857E+04 -0.58074758524E+03 -0.25400019560E+03  0.11891463097E+04  0.79626054600E+02 0.  0.
        254    2    1    2    0    0  0.10029679857E+04  0.58074758524E+03  0.60334247655E+03  0.15866283775E+04  0.90008606611E+03 0.  0.
         23    2    4    4    0    0  0.42855650196E+03  0.74211601923E+03  0.39592314206E+03  0.94836910789E+03  0.90840349048E+02 0.  0.
         23    2    4    4    0    0  0.57441148369E+03 -0.16136843399E+03  0.20741933448E+03  0.63825926965E+03  0.91453763669E+02 0.  0.
          2    1    3    3  502    0 -0.55748896548E+03 -0.28063618692E+03 -0.12049845462E+03  0.63566539438E+03  0.00000000000E+00 0. -1.
         -1    1    3    3    0  502 -0.44547902017E+03 -0.30011139832E+03 -0.13350174098E+03  0.55348091535E+03  0.00000000000E+00 0.  1.
         13    1    5    5    0    0  0.41383434222E+03  0.67362088600E+03  0.34996281277E+03  0.86457962686E+03  0.00000000000E+00 0. -1.
        -13    1    5    5    0    0  0.14722159742E+02  0.68495133227E+02  0.45960329290E+02  0.83789481032E+02  0.00000000000E+00 0.  1.
          1    1    6    6  503    0  0.40923493574E+03 -0.11315234159E+03  0.19047406464E+03  0.46535691070E+03  0.00000000000E+00 0. -1.
         -1    1    6    6    0  503  0.16517654795E+03 -0.48216092401E+02  0.16945269847E+02  0.17290235895E+03  0.00000000000E+00 0.  1.
<mgrwt>
<rscale>  0 0.27537039E+04</rscale>
<asrwt>0</asrwt>
<pdfrwt beam="1">  1        2 0.24039361E+00 0.27537039E+04</pdfrwt>
<pdfrwt beam="2">  1       -1 0.18664865E+00 0.27537039E+04</pdfrwt>
<totfact> 0.21720378E+00</totfact>
</mgrwt>
</event>
<event>
12    7  0.2492439E-007  0.1246429E+04  0.7818608E-02  0.9073161E-01
         -1   -1    0    0    0  501 -0.00000000000E+00  0.00000000000E+00  0.10559280494E+04  0.10559280494E+04  0.00000000000E+00 0.  1.
          2   -1    0    0  501    0  0.00000000000E+00 -0.00000000000E+00 -0.36782452192E+03  0.36782452192E+03  0.00000000000E+00 0. -1.
         24    2    1    2    0    0 -0.70982768308E+02 -0.20289535963E+03  0.38675542040E+03  0.45031517907E+03  0.83659577677E+02 0.  0.
        254    2    1    2    0    0  0.70982768308E+02  0.20289535963E+03  0.30134810703E+03  0.97343739221E+03  0.90031360902E+03 0.  0.
         23    2    4    4    0    0 -0.14991378746E+03  0.12795689528E+03 -0.27193676749E+03  0.34795487909E+03  0.90971872841E+02 0.  0.
         23    2    4    4    0    0  0.22089655577E+03  0.74938464346E+02  0.57328487453E+03  0.62548251312E+03  0.90342487575E+02 0.  0.
          2    1    3    3  502    0 -0.26716491637E+02 -0.13270886406E+03  0.16428518585E+03  0.21287328582E+03  0.00000000000E+00 0. -1.
         -1    1    3    3    0  502 -0.44266276671E+02 -0.70186495568E+02  0.22247023455E+03  0.23744189325E+03  0.00000000000E+00 0.  1.
         13    1    5    5    0    0 -0.45149366866E+02  0.85257996128E+02 -0.17101343803E+03  0.19634914621E+03  0.00000000000E+00 0.  1.
        -13    1    5    5    0    0 -0.10476442060E+03  0.42698899153E+02 -0.10092332947E+03  0.15160573288E+03  0.00000000000E+00 0. -1.
          4    1    6    6  503    0  0.81338032749E+01  0.10395387887E+02  0.11876508955E+03  0.11949631517E+03  0.00000000000E+00 0.  1.
         -4    1    6    6    0  503  0.21276275250E+03  0.64543076459E+02  0.45451978498E+03  0.50598619794E+03  0.00000000000E+00 0. -1.
<mgrwt>
<rscale>  0 0.12464289E+04</rscale>
<asrwt>0</asrwt>
<pdfrwt beam="1">  1        2 0.56588389E-01 0.12464289E+04</pdfrwt>
<pdfrwt beam="2">  1       -1 0.16245047E+00 0.12464289E+04</pdfrwt>
<totfact> 0.27563893E+01</totfact>
</mgrwt>
</event>
<event>
12    7  0.2492439E-007  0.2808512E+04  0.7818608E-02  0.8300631E-01
         -1   -1    0    0    0  501 -0.00000000000E+00  0.00000000000E+00  0.18747529285E+04  0.18747529285E+04  0.00000000000E+00 0.  1.
          2   -1    0    0  501    0  0.00000000000E+00 -0.00000000000E+00 -0.10518373045E+04  0.10518373045E+04  0.00000000000E+00 0. -1.
         24    2    1    2    0    0 -0.22286490777E+03 -0.12376522951E+04  0.30554196719E+03  0.12965807342E+04  0.79459020366E+02 0.  0.
        254    2    1    2    0    0  0.22286490777E+03  0.12376522951E+04  0.51737365679E+03  0.16300094989E+04  0.89877889114E+03 0.  0.
         23    2    4    4    0    0 -0.16918529662E+03  0.96700696340E+03  0.10167995147E+03  0.99122062348E+03  0.91942264676E+02 0.  0.
         23    2    4    4    0    0  0.39205020439E+03  0.27064533166E+03  0.41569370533E+03  0.63878887541E+03  0.91091780013E+02 0.  0.
          4    1    3    3  502    0 -0.61906621931E+02 -0.53620263187E+03  0.15111656849E+03  0.56051932129E+03  0.00000000000E+00 0. -1.
         -3    1    3    3    0  502 -0.16095828584E+03 -0.70144966319E+03  0.15442539871E+03  0.73606141288E+03  0.00000000000E+00 0.  1.
         13    1    5    5    0    0 -0.15101300891E+03  0.67984587119E+03  0.99415427163E+02  0.70347620045E+03  0.00000000000E+00 0.  1.
        -13    1    5    5    0    0 -0.18172287707E+02  0.28716109221E+03  0.22645243049E+01  0.28774442304E+03  0.00000000000E+00 0. -1.
          2    1    6    6  503    0  0.36850436771E+02  0.36864743283E+02  0.86643097968E+02  0.10111374987E+03  0.00000000000E+00 0. -1.
         -2    1    6    6    0  503  0.35519976762E+03  0.23378058838E+03  0.32905060736E+03  0.53767512554E+03  0.00000000000E+00 0.  1.
<mgrwt>
<rscale>  0 0.28085121E+04</rscale>
<asrwt>0</asrwt>
<pdfrwt beam="1">  1        2 0.16182112E+00 0.28085121E+04</pdfrwt>
<pdfrwt beam="2">  1       -1 0.28842353E+00 0.28085121E+04</pdfrwt>
<totfact> 0.90811977E-01</totfact>
</mgrwt>
</event>
<event>
12    7  0.2492439E-007  0.2219919E+04  0.7818608E-02  0.8510183E-01
          2   -1    0    0  501    0  0.00000000000E+00  0.00000000000E+00  0.26231405291E+04  0.26231405291E+04  0.00000000000E+00 0. -1.
         -1   -1    0    0    0  501 -0.00000000000E+00 -0.00000000000E+00 -0.46966974524E+03  0.46966974524E+03  0.00000000000E+00 0.  1.
         24    2    1    2    0    0  0.51597029695E+03  0.76538538990E+03  0.83107901036E+03  0.12447384435E+04  0.81494348340E+02 0.  0.
        254    2    1    2    0    0 -0.51597029695E+03 -0.76538538990E+03  0.13223917735E+04  0.18480718309E+04  0.90255711567E+03 0.  0.
         23    2    4    4    0    0 -0.64469119815E+03 -0.35164320444E+03  0.43824076957E+03  0.85937890253E+03  0.84837738104E+02 0.  0.
         23    2    4    4    0    0  0.12872090120E+03 -0.41374218546E+03  0.88415100393E+03  0.98869292834E+03  0.89660706962E+02 0.  0.
          2    1    3    3  502    0  0.43657838136E+03  0.58894637601E+03  0.66312101666E+03  0.98852819870E+03  0.00000000000E+00 0. -1.
         -1    1    3    3    0  502  0.79391915582E+02  0.17643901388E+03  0.16795799370E+03  0.25621024478E+03  0.00000000000E+00 0.  1.
         13    1    5    5    0    0 -0.51279371365E+03 -0.29075086516E+03  0.31223601771E+03  0.66707180206E+03  0.00000000000E+00 0. -1.
        -13    1    5    5    0    0 -0.13189748450E+03 -0.60892339277E+02  0.12600475186E+03  0.19230710047E+03  0.00000000000E+00 0.  1.
          4    1    6    6  503    0 -0.59935461356E+01 -0.73184386541E+02  0.19317100373E+03  0.20665651142E+03  0.00000000000E+00 0. -1.
         -4    1    6    6    0  503  0.13471444734E+03 -0.34055779892E+03  0.69098000020E+03  0.78203641692E+03  0.00000000000E+00 0.  1.
<mgrwt>
<rscale>  0 0.22199187E+04</rscale>
<asrwt>0</asrwt>
<pdfrwt beam="1">  1        2 0.40356007E+00 0.22199187E+04</pdfrwt>
<pdfrwt beam="2">  1       -1 0.72256885E-01 0.22199187E+04</pdfrwt>
<totfact> 0.59190277E+00</totfact>
</mgrwt>
</event>
<event>
12    7  0.2492439E-007  0.2475145E+04  0.7818608E-02  0.8411894E-01
          2   -1    0    0  501    0  0.00000000000E+00  0.00000000000E+00  0.29768332123E+04  0.29768332123E+04  0.00000000000E+00 0. -1.
         -1   -1    0    0    0  501 -0.00000000000E+00 -0.00000000000E+00 -0.51450148381E+03  0.51450148381E+03  0.00000000000E+00 0.  1.
         24    2    1    2    0    0  0.49209399861E+03  0.48043798056E+03 -0.90530496459E+02  0.69833479746E+03  0.80613658365E+02 0.  0.
        254    2    1    2    0    0 -0.49209399861E+03 -0.48043798056E+03  0.25528622249E+04  0.27929998986E+04  0.90042530932E+03 0.  0.
         23    2    4    4    0    0  0.14081408341E+03 -0.59928230756E+02  0.13859953964E+04  0.13974641948E+04  0.92211376357E+02 0.  0.
         23    2    4    4    0    0 -0.63290808203E+03 -0.42050974980E+03  0.11668668285E+04  0.13955357038E+04  0.92415448977E+02 0.  0.
          4    1    3    3  502    0  0.21153438766E+03  0.19792901883E+03  0.14436301781E+01  0.28969773511E+03  0.00000000000E+00 0. -1.
         -3    1    3    3    0  502  0.28055961095E+03  0.28250896172E+03 -0.91974126637E+02  0.40863706234E+03  0.00000000000E+00 0.  1.
         13    1    5    5    0    0  0.12335470618E+03 -0.46906310161E+02  0.78061378779E+03  0.79169089369E+03  0.00000000000E+00 0.  1.
        -13    1    5    5    0    0  0.17459377235E+02 -0.13021920595E+02  0.60538160865E+03  0.60577330113E+03  0.00000000000E+00 0. -1.
          3    1    6    6  503    0 -0.48353905266E+03 -0.33879378780E+03  0.83650807150E+03  0.10238832940E+04  0.00000000000E+00 0. -1.
         -3    1    6    6    0  503 -0.14936902937E+03 -0.81715962001E+02  0.33035875699E+03  0.37165240979E+03  0.00000000000E+00 0.  1.
<mgrwt>
<rscale>  0 0.24751445E+04</rscale>
<asrwt>0</asrwt>
<pdfrwt beam="1">  1        2 0.45797433E+00 0.24751445E+04</pdfrwt>
<pdfrwt beam="2">  1       -1 0.79154076E-01 0.24751445E+04</pdfrwt>
<totfact> 0.29202548E+00</totfact>
</mgrwt>
</event>
<event>
12    7  0.2492439E-007  0.3992904E+04  0.7818608E-02  0.8005980E-01
         -1   -1    0    0    0  501 -0.00000000000E+00  0.00000000000E+00  0.17351585845E+04  0.17351585845E+04  0.00000000000E+00 0.  1.
          2   -1    0    0  501    0  0.00000000000E+00 -0.00000000000E+00 -0.22970929792E+04  0.22970929792E+04  0.00000000000E+00 0. -1.
         24    2    1    2    0    0  0.18028467172E+04 -0.36005505931E+03 -0.72876634749E+03  0.19791696183E+04  0.78205226057E+02 0.  0.
        254    2    1    2    0    0 -0.18028467172E+04  0.36005505931E+03  0.16683195288E+03  0.20530819454E+04  0.89856365527E+03 0.  0.
         23    2    4    4    0    0 -0.60423445527E+03  0.72693654901E+02 -0.35545677038E+03  0.71120671158E+03  0.95298617962E+02 0.  0.
         23    2    4    4    0    0 -0.11986122619E+04  0.28736140441E+03  0.52228872325E+03  0.13418752338E+04  0.92713006229E+02 0.  0.
          4    1    3    3  502    0  0.33777910877E+03 -0.76914768565E+02 -0.16904575169E+03  0.38546993931E+03  0.00000000000E+00 0. -1.
         -3    1    3    3    0  502  0.14650676084E+04 -0.28314029075E+03 -0.55972059579E+03  0.15936996790E+04  0.00000000000E+00 0.  1.
         13    1    5    5    0    0 -0.58828973077E+03  0.64147235679E+02 -0.35983989909E+03  0.69259254122E+03  0.00000000000E+00 0.  1.
        -13    1    5    5    0    0 -0.15944724502E+02  0.85464192223E+01  0.43831287083E+01  0.18614170361E+02  0.00000000000E+00 0. -1.
          1    1    6    6  503    0 -0.53381187010E+03  0.85393927281E+02  0.20685918246E+03  0.57882463393E+03  0.00000000000E+00 0. -1.
         -1    1    6    6    0  503 -0.66480039181E+03  0.20196747713E+03  0.31542954080E+03  0.76305059988E+03  0.00000000000E+00 0.  1.
<mgrwt>
<rscale>  0 0.39929040E+04</rscale>
<asrwt>0</asrwt>
<pdfrwt beam="1">  1        2 0.35339892E+00 0.39929040E+04</pdfrwt>
<pdfrwt beam="2">  1       -1 0.26694747E+00 0.39929040E+04</pdfrwt>
<totfact> 0.22089929E-01</totfact>
</mgrwt>
</event>
<event>
12    7  0.2492439E-007  0.1723869E+04  0.7818608E-02  0.8747867E-01
         -1   -1    0    0    0  501 -0.00000000000E+00  0.00000000000E+00  0.34671359739E+03  0.34671359739E+03  0.00000000000E+00 0.  1.
          2   -1    0    0  501    0  0.00000000000E+00 -0.00000000000E+00 -0.21427791376E+04  0.21427791376E+04  0.00000000000E+00 0. -1.
         24    2    1    2    0    0 -0.31828319981E+03  0.29331805110E+03 -0.54945313984E+01  0.44000316084E+03  0.78948827032E+02 0.  0.
        254    2    1    2    0    0  0.31828319981E+03 -0.29331805110E+03 -0.17905710089E+04  0.20494895742E+04  0.89828909743E+03 0.  0.
         23    2    4    4    0    0  0.51593034498E+03 -0.46191831163E+03 -0.10677806315E+04  0.12759779355E+04  0.91714597831E+02 0.  0.
         23    2    4    4    0    0 -0.19764714517E+03  0.16860026053E+03 -0.72279037741E+03  0.77351163870E+03  0.91672698735E+02 0.  0.
          2    1    3    3  502    0 -0.13474417785E+03  0.11057503887E+03 -0.39650426339E+02  0.17875958434E+03  0.00000000000E+00 0. -1.
         -1    1    3    3    0  502 -0.18353902196E+03  0.18274301223E+03  0.34155894940E+02  0.26124357650E+03  0.00000000000E+00 0.  1.
         13    1    5    5    0    0  0.10610157281E+03 -0.53587409483E+02 -0.15558826014E+03  0.19579801046E+03  0.00000000000E+00 0. -1.
        -13    1    5    5    0    0  0.40982877218E+03 -0.40833090215E+03 -0.91219237131E+03  0.10801799250E+04  0.00000000000E+00 0.  1.
          3    1    6    6  503    0 -0.27656744273E+02 -0.92964313007E+01 -0.66890074793E+02  0.72976717140E+02  0.00000000000E+00 0. -1.
         -3    1    6    6    0  503 -0.16999040090E+03  0.17789669183E+03 -0.65590030261E+03  0.70053492156E+03  0.00000000000E+00 0.  1.
<mgrwt>
<rscale>  0 0.17238685E+04</rscale>
<asrwt>0</asrwt>
<pdfrwt beam="1">  1        2 0.32965833E+00 0.17238685E+04</pdfrwt>
<pdfrwt beam="2">  1       -1 0.53340554E-01 0.17238685E+04</pdfrwt>
<totfact> 0.21330851E+01</totfact>
</mgrwt>
</event>
<event>
12    7  0.2492439E-007  0.2256888E+04  0.7818608E-02  0.8495116E-01
         -1   -1    0    0    0  501 -0.00000000000E+00  0.00000000000E+00  0.11729479746E+04  0.11729479746E+04  0.00000000000E+00 0.  1.
          2   -1    0    0  501    0  0.00000000000E+00 -0.00000000000E+00 -0.10856282233E+04  0.10856282233E+04  0.00000000000E+00 0. -1.
         24    2    1    2    0    0  0.62413447738E+03  0.40630792314E+03 -0.54844946194E+03  0.92829263905E+03  0.79375293002E+02 0.  0.
        254    2    1    2    0    0 -0.62413447738E+03 -0.40630792314E+03  0.63576921324E+03  0.13302835589E+04  0.90045648434E+03 0.  0.
         23    2    4    4    0    0 -0.64175536730E+03  0.93661975131E+02  0.41865908755E+03  0.77739145725E+03  0.91866910174E+02 0.  0.
         23    2    4    4    0    0  0.17620889913E+02 -0.49996989827E+03  0.21711012569E+03  0.55289210160E+03  0.90953143932E+02 0.  0.
          4    1    3    3  502    0  0.21676331801E+03  0.15652477904E+03 -0.15313361433E+03  0.30811726068E+03  0.00000000000E+00 0. -1.
         -3    1    3    3    0  502  0.40737115937E+03  0.24978314410E+03 -0.39531584760E+03  0.62017537836E+03  0.00000000000E+00 0.  1.
         13    1    5    5    0    0 -0.13324328785E+03  0.36755598531E+02  0.51056904480E+02  0.14734841457E+03  0.00000000000E+00 0. -1.
        -13    1    5    5    0    0 -0.50851207945E+03  0.56906376599E+02  0.36760218307E+03  0.63004304269E+03  0.00000000000E+00 0.  1.
          1    1    6    6  503    0 -0.28332466696E+02 -0.35989212119E+03  0.15775176984E+03  0.39396787743E+03  0.00000000000E+00 0. -1.
         -1    1    6    6    0  503  0.45953356609E+02 -0.14007777709E+03  0.59358355854E+02  0.15892422417E+03  0.00000000000E+00 0.  1.
<mgrwt>
<rscale>  0 0.22568876E+04</rscale>
<asrwt>0</asrwt>
<pdfrwt beam="1">  1        2 0.16701973E+00 0.22568876E+04</pdfrwt>
<pdfrwt beam="2">  1       -1 0.18045353E+00 0.22568876E+04</pdfrwt>
<totfact> 0.47648961E+00</totfact>
</mgrwt>
</event>
<event>
12    7  0.2492439E-007  0.1629977E+04  0.7818608E-02  0.8802341E-01
          2   -1    0    0  501    0  0.00000000000E+00  0.00000000000E+00  0.87661374434E+03  0.87661374434E+03  0.00000000000E+00 0. -1.
         -1   -1    0    0    0  501 -0.00000000000E+00 -0.00000000000E+00 -0.75769550229E+03  0.75769550229E+03  0.00000000000E+00 0.  1.
         24    2    1    2    0    0 -0.48993287771E+03  0.17083485030E+03 -0.17804974547E+03  0.55286156616E+03  0.68814451439E+02 0.  0.
        254    2    1    2    0    0  0.48993287771E+03 -0.17083485030E+03  0.29696798752E+03  0.10814476805E+04  0.90117719081E+03 0.  0.
         23    2    4    4    0    0  0.64695949728E+03 -0.18798254448E+03  0.47221263197E+03  0.82820625591E+03  0.95114690685E+02 0.  0.
         23    2    4    4    0    0 -0.15702661956E+03  0.17147694177E+02 -0.17524464445E+03  0.25324142457E+03  0.92027881870E+02 0.  0.
          4    1    3    3  502    0 -0.24410011469E+03  0.82712245768E+02 -0.52185030648E+02  0.26296284722E+03  0.00000000000E+00 0. -1.
         -3    1    3    3    0  502 -0.24583276302E+03  0.88122604532E+02 -0.12586471482E+03  0.28989871894E+03  0.00000000000E+00 0.  1.
         13    1    5    5    0    0  0.31962057884E+03 -0.47817177446E+02  0.24857722079E+03  0.40771856908E+03  0.00000000000E+00 0.  1.
        -13    1    5    5    0    0  0.32733891844E+03 -0.14016536703E+03  0.22363541118E+03  0.42048768683E+03  0.00000000000E+00 0. -1.
          3    1    6    6  503    0 -0.11934235286E+03  0.42272117159E+02 -0.85674486260E+02  0.15287134025E+03  0.00000000000E+00 0. -1.
         -3    1    6    6    0  503 -0.37684266706E+02 -0.25124422983E+02 -0.89570158186E+02  0.10037008431E+03  0.00000000000E+00 0.  1.
<mgrwt>
<rscale>  0 0.16299770E+04</rscale>
<asrwt>0</asrwt>
<pdfrwt beam="1">  1        2 0.13486365E+00 0.16299770E+04</pdfrwt>
<pdfrwt beam="2">  1       -1 0.11656854E+00 0.16299770E+04</pdfrwt>
<totfact> 0.22073379E+01</totfact>
</mgrwt>
</event>
<event>
12    7  0.2492439E-007  0.4478288E+04  0.7818608E-02  0.7914449E-01
         -3   -1    0    0    0  501 -0.00000000000E+00  0.00000000000E+00  0.15424757232E+04  0.15424757232E+04  0.00000000000E+00 0.  1.
          2   -1    0    0  501    0  0.00000000000E+00 -0.00000000000E+00 -0.32504659614E+04  0.32504659614E+04  0.00000000000E+00 0. -1.
         24    2    1    2    0    0 -0.47733062682E+03  0.44469015880E+03 -0.30108018786E+04  0.30817575107E+04  0.81899559268E+02 0.  0.
        254    2    1    2    0    0  0.47733062682E+03 -0.44469015880E+03  0.13028116404E+04  0.17111841739E+04  0.89735123672E+03 0.  0.
         23    2    4    4    0    0  0.54996568745E+03 -0.65956504900E+03  0.10487991036E+04  0.13587335766E+04  0.93215134359E+02 0.  0.
         23    2    4    4    0    0 -0.72635060630E+02  0.21487489020E+03  0.25401253685E+03  0.35245059733E+03  0.90840432701E+02 0.  0.
          2    1    3    3  502    0 -0.47953978738E+03  0.43618979548E+03 -0.29820096554E+04  0.30516555392E+04  0.00000000000E+00 0. -1.
         -1    1    3    3    0  502  0.22091605583E+01  0.85003633166E+01 -0.28792223249E+02  0.30101971472E+02  0.00000000000E+00 0.  1.
         13    1    5    5    0    0  0.43770305991E+03 -0.46378316618E+03  0.79297242037E+03  0.10175873689E+04  0.00000000000E+00 0. -1.
        -13    1    5    5    0    0  0.11226262754E+03 -0.19578188282E+03  0.25582668323E+03  0.34114620771E+03  0.00000000000E+00 0.  1.
          3    1    6    6  503    0 -0.46282565134E+02  0.15378319740E+03  0.11250837720E+03  0.19608539614E+03  0.00000000000E+00 0. -1.
         -3    1    6    6    0  503 -0.26352495496E+02  0.61091692802E+02  0.14150415964E+03  0.15636520119E+03  0.00000000000E+00 0.  1.
<mgrwt>
<rscale>  0 0.44782875E+04</rscale>
<asrwt>0</asrwt>
<pdfrwt beam="1">  1        2 0.50007169E+00 0.44782875E+04</pdfrwt>
<pdfrwt beam="2">  1       -3 0.23730396E+00 0.44782875E+04</pdfrwt>
<totfact> 0.50008639E-02</totfact>
</mgrwt>
</event>
<event>
12    7  0.2492439E-007  0.1065036E+04  0.7818608E-02  0.9239957E-01
         -1   -1    0    0    0  501 -0.00000000000E+00  0.00000000000E+00  0.87518103183E+02  0.87518103183E+02  0.00000000000E+00 0.  1.
          2   -1    0    0  501    0  0.00000000000E+00 -0.00000000000E+00 -0.32401887293E+04  0.32401887293E+04  0.00000000000E+00 0. -1.
         24    2    1    2    0    0 -0.99725351157E+02 -0.50468558723E+02 -0.70855965263E+03  0.72167362736E+03  0.79144311315E+02 0.  0.
        254    2    1    2    0    0  0.99725351157E+02  0.50468558723E+02 -0.24441109735E+04  0.26060332051E+04  0.89735076440E+03 0.  0.
         23    2    4    4    0    0 -0.23196623969E+03  0.73181310902E+02 -0.21107872424E+04  0.21264476413E+04  0.84811248947E+02 0.  0.
         23    2    4    4    0    0  0.33169159085E+03 -0.22712752179E+02 -0.33332373104E+03  0.47958556376E+03  0.91446283370E+02 0.  0.
          2    1    3    3  502    0 -0.10201058393E+02  0.29414593635E+01 -0.29455064118E+03  0.29474191082E+03  0.00000000000E+00 0. -1.
         -1    1    3    3    0  502 -0.89524292765E+02 -0.53410018086E+02 -0.41400901145E+03  0.42693171654E+03  0.00000000000E+00 0.  1.
         13    1    5    5    0    0 -0.10434585283E+03 -0.10677152258E+02 -0.85637526012E+03  0.86277496761E+03  0.00000000000E+00 0.  1.
        -13    1    5    5    0    0 -0.12762038686E+03  0.83858463160E+02 -0.12544119823E+04  0.12636726737E+04  0.00000000000E+00 0. -1.
          3    1    6    6  503    0  0.23502617320E+03 -0.57691525004E+02 -0.23206791591E+03  0.33529260615E+03  0.00000000000E+00 0. -1.
         -3    1    6    6    0  503  0.96665417649E+02  0.34978772825E+02 -0.10125581513E+03  0.14429295761E+03  0.00000000000E+00 0.  1.
<mgrwt>
<rscale>  0 0.10650355E+04</rscale>
<asrwt>0</asrwt>
<pdfrwt beam="1">  1        2 0.49849057E+00 0.10650355E+04</pdfrwt>
<pdfrwt beam="2">  1       -1 0.13464324E-01 0.10650355E+04</pdfrwt>
<totfact> 0.55689593E+01</totfact>
</mgrwt>
</event>
<event>
12    7  0.2492439E-007  0.3610786E+04  0.7818608E-02  0.8088025E-01
         -1   -1    0    0    0  501 -0.00000000000E+00  0.00000000000E+00  0.84184258255E+03  0.84184258255E+03  0.00000000000E+00 0.  1.
          2   -1    0    0  501    0  0.00000000000E+00 -0.00000000000E+00 -0.38717982702E+04  0.38717982702E+04  0.00000000000E+00 0. -1.
         24    2    1    2    0    0 -0.15978566864E+04 -0.55681678923E+03 -0.14699115662E+04  0.22427936565E+04  0.79324940178E+02 0.  0.
        254    2    1    2    0    0  0.15978566864E+04  0.55681678923E+03 -0.15600441214E+04  0.24708471962E+04  0.89897568337E+03 0.  0.
         23    2    4    4    0    0  0.14325152276E+04  0.74682599926E+03 -0.11656699154E+04  0.19942160491E+04  0.90897461491E+02 0.  0.
         23    2    4    4    0    0  0.16534145882E+03 -0.19000921003E+03 -0.39437420598E+03  0.47663114708E+03  0.90581113475E+02 0.  0.
          4    1    3    3  502    0 -0.11819338123E+04 -0.38350234419E+03 -0.10485020483E+04  0.16258530468E+04  0.00000000000E+00 0. -1.
         -3    1    3    3    0  502 -0.41592287414E+03 -0.17331444504E+03 -0.42140951791E+03  0.61694060969E+03  0.00000000000E+00 0.  1.
         13    1    5    5    0    0  0.66874594200E+03  0.30205999196E+03 -0.55158278844E+03  0.91798962204E+03  0.00000000000E+00 0.  1.
        -13    1    5    5    0    0  0.76376928558E+03  0.44476600730E+03 -0.61408712699E+03  0.10762264271E+04  0.00000000000E+00 0. -1.
          4    1    6    6  503    0  0.17627612436E+03 -0.17569260342E+03 -0.35760834553E+03  0.43568898506E+03  0.00000000000E+00 0. -1.
         -4    1    6    6    0  503 -0.10934665538E+02 -0.14316606610E+02 -0.36765860455E+02  0.40942162013E+02  0.00000000000E+00 0.  1.
<mgrwt>
<rscale>  0 0.36107864E+04</rscale>
<asrwt>0</asrwt>
<pdfrwt beam="1">  1        2 0.59566128E+00 0.36107864E+04</pdfrwt>
<pdfrwt beam="2">  1       -1 0.12951424E+00 0.36107864E+04</pdfrwt>
<totfact> 0.20407086E-01</totfact>
</mgrwt>
</event>
<event>
12    7  0.2492439E-007  0.1483149E+04  0.7818608E-02  0.8895737E-01
          2   -1    0    0  501    0  0.00000000000E+00  0.00000000000E+00  0.39231720612E+04  0.39231720612E+04  0.00000000000E+00 0. -1.
         -1   -1    0    0    0  501 -0.00000000000E+00 -0.00000000000E+00 -0.14017548640E+03  0.14017548640E+03  0.00000000000E+00 0.  1.
         24    2    1    2    0    0  0.41239185024E+03  0.17234736340E+03  0.86317329347E+03  0.97531883906E+03  0.80050305795E+02 0.  0.
        254    2    1    2    0    0 -0.41239185024E+03 -0.17234736340E+03  0.29198232813E+04  0.30880287085E+04  0.90043470543E+03 0.  0.
         23    2    4    4    0    0  0.87333865516E+02 -0.91598566226E+01  0.62434823347E+01  0.12559735923E+03  0.89580179361E+02 0.  0.
         23    2    4    4    0    0 -0.49972571576E+03 -0.16318750677E+03  0.29135797990E+04  0.29624313493E+04  0.10342292249E+03 0.  0.
          2    1    3    3  502    0  0.48613836208E+02  0.51311414851E+02  0.13391443207E+03  0.15142404525E+03  0.00000000000E+00 0. -1.
         -1    1    3    3    0  502  0.36377801404E+03  0.12103594855E+03  0.72925886140E+03  0.82389479381E+03  0.00000000000E+00 0.  1.
         13    1    5    5    0    0  0.56261563846E+02 -0.46077857398E+02  0.19997449643E+02  0.75421684555E+02  0.00000000000E+00 0.  1.
        -13    1    5    5    0    0  0.31072301670E+02  0.36918000776E+02 -0.13753967308E+02  0.50175674675E+02  0.00000000000E+00 0. -1.
          3    1    6    6  503    0 -0.58419939480E+02 -0.36430844327E+02  0.58318789664E+03  0.58723778705E+03  0.00000000000E+00 0. -1.
         -3    1    6    6    0  503 -0.44130577628E+03 -0.12675666245E+03  0.23303919023E+04  0.23751935623E+04  0.00000000000E+00 0.  1.
<mgrwt>
<rscale>  0 0.14831487E+04</rscale>
<asrwt>0</asrwt>
<pdfrwt beam="1">  1        2 0.60356485E+00 0.14831487E+04</pdfrwt>
<pdfrwt beam="2">  1       -1 0.21565462E-01 0.14831487E+04</pdfrwt>
<totfact> 0.80037791E+00</totfact>
</mgrwt>
</event>
<event>
12    7  0.2492439E-007  0.2626858E+04  0.7818608E-02  0.8359135E-01
          2   -1    0    0  501    0  0.00000000000E+00  0.00000000000E+00  0.10498978743E+04  0.10498978743E+04  0.00000000000E+00 0. -1.
         -1   -1    0    0    0  501 -0.00000000000E+00 -0.00000000000E+00 -0.16431083651E+04  0.16431083651E+04  0.00000000000E+00 0.  1.
         24    2    1    2    0    0  0.34161968407E+03 -0.11054299986E+04 -0.22142664214E+03  0.11806610158E+04  0.79064441960E+02 0.  0.
        254    2    1    2    0    0 -0.34161968407E+03  0.11054299986E+04 -0.37178384871E+03  0.15123452236E+04  0.90015851657E+03 0.  0.
         23    2    4    4    0    0  0.27865591325E+03  0.51294366770E+03 -0.24830493576E+03  0.64092515522E+03  0.91484366128E+02 0.  0.
         23    2    4    4    0    0 -0.62027559732E+03  0.59248633090E+03 -0.12347891294E+03  0.87142006842E+03  0.91345633563E+02 0.  0.
          2    1    3    3  502    0  0.23449310239E+03 -0.70437169248E+03 -0.10692236993E+03  0.75003925859E+03  0.00000000000E+00 0. -1.
         -1    1    3    3    0  502  0.10712658168E+03 -0.40105830612E+03 -0.11450427221E+03  0.43062175719E+03  0.00000000000E+00 0.  1.
         13    1    5    5    0    0  0.26589114997E+03  0.49453231224E+03 -0.21596290686E+03  0.60158148959E+03  0.00000000000E+00 0. -1.
        -13    1    5    5    0    0  0.12764763283E+02  0.18411355460E+02 -0.32342028900E+02  0.39343665626E+02  0.00000000000E+00 0.  1.
          1    1    6    6  503    0 -0.43447621949E+03  0.46976697871E+03 -0.86564408481E+02  0.64571200733E+03  0.00000000000E+00 0. -1.
         -1    1    6    6    0  503 -0.18579937783E+03  0.12271935219E+03 -0.36914504462E+02  0.22570806109E+03  0.00000000000E+00 0.  1.
<mgrwt>
<rscale>  0 0.26268582E+04</rscale>
<asrwt>0</asrwt>
<pdfrwt beam="1">  1        2 0.16152275E+00 0.26268582E+04</pdfrwt>
<pdfrwt beam="2">  1       -1 0.25278590E+00 0.26268582E+04</pdfrwt>
<totfact> 0.15746669E+00</totfact>
</mgrwt>
</event>
<event>
12    7  0.2492439E-007  0.5584080E+04  0.7818608E-02  0.7744225E-01
         -1   -1    0    0    0  501 -0.00000000000E+00  0.00000000000E+00  0.25148053855E+04  0.25148053855E+04  0.00000000000E+00 0.  1.
          2   -1    0    0  501    0  0.00000000000E+00 -0.00000000000E+00 -0.30998369989E+04  0.30998369989E+04  0.00000000000E+00 0. -1.
         24    2    1    2    0    0 -0.12472433008E+04 -0.74205902007E+03  0.20267064722E+04  0.24940362595E+04  0.80064341397E+02 0.  0.
        254    2    1    2    0    0  0.12472433008E+04  0.74205902007E+03 -0.26117380856E+04  0.31206061249E+04  0.90041063860E+03 0.  0.
         23    2    4    4    0    0 -0.79643917415E+02  0.11658413619E+03 -0.63899483191E+03  0.66055416237E+03  0.89902123544E+02 0.  0.
         23    2    4    4    0    0  0.13268872182E+04  0.62547488388E+03 -0.19727432537E+04  0.24600519625E+04  0.91055988232E+02 0.  0.
          2    1    3    3  502    0 -0.11359885387E+03 -0.94290031383E+02  0.21894319702E+03  0.26406709969E+03  0.00000000000E+00 0. -1.
         -1    1    3    3    0  502 -0.11336444469E+04 -0.64776898869E+03  0.18077632752E+04  0.22299691598E+04  0.00000000000E+00 0.  1.
         13    1    5    5    0    0 -0.53045813281E+01  0.76447283851E+02 -0.21561858086E+03  0.22883115654E+03  0.00000000000E+00 0.  1.
        -13    1    5    5    0    0 -0.74339336087E+02  0.40136852340E+02 -0.42337625105E+03  0.43172300583E+03  0.00000000000E+00 0. -1.
          4    1    6    6  503    0  0.45581571944E+03  0.22437690638E+03 -0.61321553273E+03  0.79633300559E+03  0.00000000000E+00 0. -1.
         -4    1    6    6    0  503  0.87107149877E+03  0.40109797749E+03 -0.13595277210E+04  0.16637189569E+04  0.00000000000E+00 0.  1.
<mgrwt>
<rscale>  0 0.55840798E+04</rscale>
<asrwt>0</asrwt>
<pdfrwt beam="1">  1        2 0.47689800E+00 0.55840798E+04</pdfrwt>
<pdfrwt beam="2">  1       -1 0.38689314E+00 0.55840798E+04</pdfrwt>
<totfact> 0.10455462E-02</totfact>
</mgrwt>
</event>
<event>
12    7  0.2492439E-007  0.1345912E+04  0.7818608E-02  0.8993929E-01
          2   -1    0    0  501    0  0.00000000000E+00  0.00000000000E+00  0.27828984105E+04  0.27828984105E+04  0.00000000000E+00 0. -1.
         -1   -1    0    0    0  501 -0.00000000000E+00 -0.00000000000E+00 -0.16273301700E+03  0.16273301700E+03  0.00000000000E+00 0.  1.
         24    2    1    2    0    0 -0.55257319487E+02 -0.28329961769E+03  0.23619867465E+03  0.38134420752E+03  0.79508150282E+02 0.  0.
        254    2    1    2    0    0  0.55257319487E+02  0.28329961769E+03  0.23839667188E+04  0.25642872200E+04  0.89942180609E+03 0.  0.
         23    2    4    4    0    0 -0.18276914888E+03  0.80690997806E+01  0.61261206947E+02  0.21149179882E+03  0.86638174831E+02 0.  0.
         23    2    4    4    0    0  0.23802646836E+03  0.27523051791E+03  0.23227055119E+04  0.23527954211E+04  0.90977806284E+02 0.  0.
          4    1    3    3  502    0 -0.48128318578E+02 -0.11131486562E+03  0.13581344375E+03  0.18207862549E+03  0.00000000000E+00 0. -1.
         -3    1    3    3    0  502 -0.71290009088E+01 -0.17198475207E+03  0.10038523091E+03  0.19926558203E+03  0.00000000000E+00 0.  1.
         13    1    5    5    0    0 -0.97801662713E+02  0.46078129153E+02  0.44502176578E+02  0.11691365590E+03  0.00000000000E+00 0.  1.
        -13    1    5    5    0    0 -0.84967486165E+02 -0.38009029373E+02  0.16759030369E+02  0.94578142918E+02  0.00000000000E+00 0. -1.
          4    1    6    6  503    0  0.43938164141E+01 -0.71207916815E+01  0.65611470776E+02  0.66142848398E+02  0.00000000000E+00 0. -1.
         -4    1    6    6    0  503  0.23363265195E+03  0.28235130959E+03  0.22570940411E+04  0.22866525727E+04  0.00000000000E+00 0.  1.
<mgrwt>
<rscale>  0 0.13459115E+04</rscale>
<asrwt>0</asrwt>
<pdfrwt beam="1">  1        2 0.42813818E+00 0.13459115E+04</pdfrwt>
<pdfrwt beam="2">  1       -1 0.25035851E-01 0.13459115E+04</pdfrwt>
<totfact> 0.37092475E+01</totfact>
</mgrwt>
</event>
<event>
12    7  0.2492439E-007  0.2443820E+04  0.7818608E-02  0.8423278E-01
          2   -1    0    0  501    0  0.00000000000E+00  0.00000000000E+00  0.16839783760E+04  0.16839783760E+04  0.00000000000E+00 0. -1.
         -1   -1    0    0    0  501 -0.00000000000E+00 -0.00000000000E+00 -0.88662881604E+03  0.88662881604E+03  0.00000000000E+00 0.  1.
         24    2    1    2    0    0  0.91284041726E+03  0.40274233818E+03  0.70226067789E+03  0.12228329050E+04  0.81677631804E+02 0.  0.
        254    2    1    2    0    0 -0.91284041726E+03 -0.40274233818E+03  0.95088882065E+02  0.13477742870E+04  0.90109634054E+03 0.  0.
         23    2    4    4    0    0  0.11738097169E+02  0.12555837172E+03 -0.18615781216E+03  0.24285346016E+03  0.91762652801E+02 0.  0.
         23    2    4    4    0    0 -0.92457851442E+03 -0.52830070990E+03  0.28124669422E+03  0.11049208269E+04  0.88336069770E+02 0.  0.
          4    1    3    3  502    0  0.42473608002E+03  0.22846311744E+03  0.35796384777E+03  0.60061156334E+03  0.00000000000E+00 0. -1.
         -3    1    3    3    0  502  0.48810433724E+03  0.17427922074E+03  0.34429683011E+03  0.62222134168E+03  0.00000000000E+00 0.  1.
         13    1    5    5    0    0 -0.19246354447E+02  0.88174774943E+02 -0.61880208942E+02  0.10942747989E+03  0.00000000000E+00 0. -1.
        -13    1    5    5    0    0  0.30984451617E+02  0.37383596775E+02 -0.12427760322E+03  0.13342598027E+03  0.00000000000E+00 0.  1.
          1    1    6    6  503    0 -0.16202122992E+03 -0.58182995590E+02  0.32397603668E+02  0.17517347015E+03  0.00000000000E+00 0.  1.
         -1    1    6    6    0  503 -0.76255728451E+03 -0.47011771431E+03  0.24884909055E+03  0.92974735672E+03  0.00000000000E+00 0. -1.
<mgrwt>
<rscale>  0 0.24438198E+04</rscale>
<asrwt>0</asrwt>
<pdfrwt beam="1">  1        2 0.25907360E+00 0.24438198E+04</pdfrwt>
<pdfrwt beam="2">  1       -1 0.13640443E+00 0.24438198E+04</pdfrwt>
<totfact> 0.45808036E+00</totfact>
</mgrwt>
</event>
<event>
12    7  0.2492439E-007  0.2192869E+04  0.7818608E-02  0.8521402E-01
         -1   -1    0    0    0  501 -0.00000000000E+00  0.00000000000E+00  0.55289796152E+03  0.55289796152E+03  0.00000000000E+00 0.  1.
          2   -1    0    0  501    0  0.00000000000E+00 -0.00000000000E+00 -0.21743038566E+04  0.21743038566E+04  0.00000000000E+00 0. -1.
         24    2    1    2    0    0  0.83848995088E+03  0.32625216672E+03 -0.51692932783E+03  0.10410831816E+04  0.84453460726E+02 0.  0.
        254    2    1    2    0    0 -0.83848995088E+03 -0.32625216672E+03 -0.11044765673E+04  0.16861186366E+04  0.90200980862E+03 0.  0.
         23    2    4    4    0    0 -0.69920604143E+03 -0.15180271810E+03 -0.12200707728E+04  0.14172148327E+04  0.89398197566E+02 0.  0.
         23    2    4    4    0    0 -0.13928390945E+03 -0.17444944861E+03  0.11559420556E+03  0.26890380384E+03  0.95470507515E+02 0.  0.
          4    1    3    3  502    0  0.61573881882E+03  0.19883268318E+03 -0.37277143612E+03  0.74674444926E+03  0.00000000000E+00 0. -1.
         -1    1    3    3    0  502  0.22275113206E+03  0.12741948353E+03 -0.14415789171E+03  0.29433873235E+03  0.00000000000E+00 0.  1.
         13    1    5    5    0    0 -0.45773072224E+03 -0.12497910181E+03 -0.73784855691E+03  0.87724436898E+03  0.00000000000E+00 0.  1.
        -13    1    5    5    0    0 -0.24147531919E+03 -0.26823616297E+02 -0.48222221594E+03  0.53997046374E+03  0.00000000000E+00 0. -1.
          2    1    6    6  503    0 -0.75582377507E+02 -0.92180722893E+02  0.11385335648E+03  0.16484103932E+03  0.00000000000E+00 0.  1.
         -2    1    6    6    0  503 -0.63701531942E+02 -0.82268725721E+02  0.17408490856E+01  0.10406276452E+03  0.00000000000E+00 0. -1.
<mgrwt>
<rscale>  0 0.21928686E+04</rscale>
<asrwt>0</asrwt>
<pdfrwt beam="1">  1        2 0.33450829E+00 0.21928686E+04</pdfrwt>
<pdfrwt beam="2">  1       -1 0.85061224E-01 0.21928686E+04</pdfrwt>
<totfact> 0.75952381E+00</totfact>
</mgrwt>
</event>
<event>
12    7  0.2492439E-007  0.1496102E+04  0.7818608E-02  0.8887049E-01
         -1   -1    0    0    0  501 -0.00000000000E+00  0.00000000000E+00  0.32021086216E+03  0.32021086216E+03  0.00000000000E+00 0.  1.
          2   -1    0    0  501    0  0.00000000000E+00 -0.00000000000E+00 -0.17475380710E+04  0.17475380710E+04  0.00000000000E+00 0. -1.
         24    2    1    2    0    0 -0.25401036395E+03 -0.39829728066E+03 -0.52696756275E+03  0.71282621859E+03  0.85231548944E+02 0.  0.
        254    2    1    2    0    0  0.25401036395E+03  0.39829728066E+03 -0.90035964612E+03  0.13549227146E+04  0.89554792246E+03 0.  0.
         23    2    4    4    0    0  0.17401025905E+03  0.64475399784E+03 -0.83457009018E+03  0.10721242613E+04  0.83402088397E+02 0.  0.
         23    2    4    4    0    0  0.80000104899E+02 -0.24645671717E+03 -0.65789555939E+02  0.28279845327E+03  0.92226727566E+02 0.  0.
          2    1    3    3  502    0 -0.40739548180E+02 -0.58602593914E+02 -0.13114478184E+03  0.14930816657E+03  0.00000000000E+00 0. -1.
         -1    1    3    3    0  502 -0.21327081577E+03 -0.33969468675E+03 -0.39582278091E+03  0.56351805202E+03  0.00000000000E+00 0.  1.
         13    1    5    5    0    0  0.80805432298E+02  0.41927327963E+03 -0.57051015650E+03  0.71260188013E+03  0.00000000000E+00 0. -1.
        -13    1    5    5    0    0  0.93204826753E+02  0.22548071820E+03 -0.26405993368E+03  0.35952238120E+03  0.00000000000E+00 0.  1.
          1    1    6    6  503    0  0.89053852807E+02 -0.20080335482E+03 -0.25314737012E+02  0.22111854721E+03  0.00000000000E+00 0. -1.
         -1    1    6    6    0  503 -0.90537479074E+01 -0.45653362350E+02 -0.40474818927E+02  0.61679906065E+02  0.00000000000E+00 0.  1.
<mgrwt>
<rscale>  0 0.14961025E+04</rscale>
<asrwt>0</asrwt>
<pdfrwt beam="1">  1        2 0.26885202E+00 0.14961025E+04</pdfrwt>
<pdfrwt beam="2">  1       -1 0.49263208E-01 0.14961025E+04</pdfrwt>
<totfact> 0.41948917E+01</totfact>
</mgrwt>
</event>
<event>
12    7  0.2492439E-007  0.1416256E+04  0.7818608E-02  0.8942135E-01
          2   -1    0    0  501    0  0.00000000000E+00  0.00000000000E+00  0.21267241023E+04  0.21267241023E+04  0.00000000000E+00 0. -1.
         -1   -1    0    0    0  501 -0.00000000000E+00 -0.00000000000E+00 -0.23578291572E+03  0.23578291572E+03  0.00000000000E+00 0.  1.
         24    2    1    2    0    0  0.90046273082E+02 -0.19149483751E+03 -0.30507706885E+02  0.22873782848E+03  0.81312175676E+02 0.  0.
        254    2    1    2    0    0 -0.90046273082E+02  0.19149483751E+03  0.19214488935E+04  0.21337691895E+04  0.90345254437E+03 0.  0.
         23    2    4    4    0    0  0.39465741754E+03  0.25398353956E+02  0.77581468117E+03  0.87560763499E+03  0.91655645349E+02 0.  0.
         23    2    4    4    0    0 -0.48470369062E+03  0.16609648355E+03  0.11456342123E+04  0.12581615545E+04  0.89258273669E+02 0.  0.
          2    1    3    3  502    0  0.39281677240E+02 -0.14968108064E+03  0.33090383049E+01  0.15478509554E+03  0.00000000000E+00 0. -1.
         -1    1    3    3    0  502  0.50764595842E+02 -0.41813756870E+02 -0.33816745190E+02  0.73952732943E+02  0.00000000000E+00 0.  1.
         13    1    5    5    0    0  0.14498564795E+02 -0.14457385067E+01  0.44533873857E+01  0.15235852459E+02  0.00000000000E+00 0. -1.
        -13    1    5    5    0    0  0.38015885274E+03  0.26844092463E+02  0.77136129379E+03  0.86037178253E+03  0.00000000000E+00 0.  1.
          1    1    6    6  503    0 -0.71511623837E+02  0.60356404828E+02  0.20427595713E+03  0.22468972964E+03  0.00000000000E+00 0. -1.
         -1    1    6    6    0  503 -0.41319206678E+03  0.10574007872E+03  0.94135825516E+03  0.10334718249E+04  0.00000000000E+00 0.  1.
<mgrwt>
<rscale>  0 0.14162559E+04</rscale>
<asrwt>0</asrwt>
<pdfrwt beam="1">  1        2 0.32718831E+00 0.14162559E+04</pdfrwt>
<pdfrwt beam="2">  1       -1 0.36274296E-01 0.14162559E+04</pdfrwt>
<totfact> 0.45789546E+01</totfact>
</mgrwt>
</event>
<event>
12    7  0.2492439E-007  0.2644061E+04  0.7818608E-02  0.8353387E-01
         -1   -1    0    0    0  501 -0.00000000000E+00  0.00000000000E+00  0.21567234825E+04  0.21567234825E+04  0.00000000000E+00 0.  1.
          2   -1    0    0  501    0  0.00000000000E+00 -0.00000000000E+00 -0.81037972438E+03  0.81037972438E+03  0.00000000000E+00 0. -1.
         24    2    1    2    0    0  0.46824771868E+03  0.48463643337E+03  0.16662291205E+04  0.17991503166E+04  0.80585242446E+02 0.  0.
        254    2    1    2    0    0 -0.46824771868E+03 -0.48463643337E+03 -0.31988536233E+03  0.11679528903E+04  0.89869845346E+03 0.  0.
         23    2    4    4    0    0 -0.50788736392E+03  0.29617461718E+01 -0.41381204674E+03  0.66156289877E+03  0.92014741392E+02 0.  0.
         23    2    4    4    0    0  0.39639645234E+02 -0.48759817954E+03  0.93926684408E+02  0.50638999150E+03  0.91023707256E+02 0.  0.
          4    1    3    3  502    0  0.33206463642E+02  0.69143681652E+02  0.16937708976E+03  0.18593578590E+03  0.00000000000E+00 0. -1.
         -3    1    3    3    0  502  0.43504125504E+03  0.41549275172E+03  0.14968520307E+04  0.16132145307E+04  0.00000000000E+00 0.  1.
         13    1    5    5    0    0 -0.45623873279E+03  0.25530235279E+02 -0.34471789595E+03  0.57239497028E+03  0.00000000000E+00 0. -1.
        -13    1    5    5    0    0 -0.51648631126E+02 -0.22568489107E+02 -0.69094150792E+02  0.89167928491E+02  0.00000000000E+00 0.  1.
          4    1    6    6  503    0  0.10926165456E+02 -0.92117645547E+02  0.55289268235E+02  0.10799048520E+03  0.00000000000E+00 0.  1.
         -4    1    6    6    0  503  0.28713479778E+02 -0.39548053400E+03  0.38637416174E+02  0.39839950630E+03  0.00000000000E+00 0. -1.
<mgrwt>
<rscale>  0 0.26440613E+04</rscale>
<asrwt>0</asrwt>
<pdfrwt beam="1">  1        2 0.12467380E+00 0.26440613E+04</pdfrwt>
<pdfrwt beam="2">  1       -1 0.33180361E+00 0.26440613E+04</pdfrwt>
<totfact> 0.69712404E-01</totfact>
</mgrwt>
</event>
<event>
12    7  0.2492439E-007  0.2498681E+04  0.7818608E-02  0.8403456E-01
          2   -1    0    0  501    0  0.00000000000E+00  0.00000000000E+00  0.23748967283E+04  0.23748967283E+04  0.00000000000E+00 0. -1.
         -1   -1    0    0    0  501 -0.00000000000E+00 -0.00000000000E+00 -0.65722919051E+03  0.65722919051E+03  0.00000000000E+00 0.  1.
         24    2    1    2    0    0 -0.41512230591E+03 -0.44344161712E+03  0.18402094075E+04  0.19394825915E+04  0.79088953640E+02 0.  0.
        254    2    1    2    0    0  0.41512230591E+03  0.44344161712E+03 -0.12254186973E+03  0.10926433273E+04  0.89993662789E+03 0.  0.
         23    2    4    4    0    0 -0.11160441280E+03 -0.19414817034E+03  0.37944164598E+02  0.24527434094E+03  0.92577997905E+02 0.  0.
         23    2    4    4    0    0  0.52672671872E+03  0.63758978745E+03 -0.16048603433E+03  0.84736898636E+03  0.91195715676E+02 0.  0.
          2    1    3    3  502    0 -0.10433809662E+03 -0.67901995200E+02  0.41019057463E+03  0.42866470215E+03  0.00000000000E+00 0. -1.
         -1    1    3    3    0  502 -0.31078420930E+03 -0.37553962192E+03  0.14300188329E+04  0.15108178894E+04  0.00000000000E+00 0.  1.
         13    1    5    5    0    0 -0.91568976766E+02 -0.15887989310E+03  0.67155738297E+02  0.19528848180E+03  0.00000000000E+00 0. -1.
        -13    1    5    5    0    0 -0.20035436039E+02 -0.35268277241E+02 -0.29211573699E+02  0.49985859148E+02  0.00000000000E+00 0.  1.
          2    1    6    6  503    0  0.37677564755E+03  0.41604685403E+03 -0.14328409166E+03  0.57929716404E+03  0.00000000000E+00 0. -1.
         -2    1    6    6    0  503  0.14995107117E+03  0.22154293342E+03 -0.17201942663E+02  0.26807182232E+03  0.00000000000E+00 0.  1.
<mgrwt>
<rscale>  0 0.24986808E+04</rscale>
<asrwt>0</asrwt>
<pdfrwt beam="1">  1        2 0.36536872E+00 0.24986808E+04</pdfrwt>
<pdfrwt beam="2">  1       -1 0.10111218E+00 0.24986808E+04</pdfrwt>
<totfact> 0.38733050E+00</totfact>
</mgrwt>
</event>
<event>
12    7  0.2492439E-007  0.1237499E+04  0.7818608E-02  0.9080653E-01
          2   -1    0    0  501    0  0.00000000000E+00  0.00000000000E+00  0.34353405916E+04  0.34353405916E+04  0.00000000000E+00 0. -1.
         -1   -1    0    0    0  501 -0.00000000000E+00 -0.00000000000E+00 -0.11144477657E+03  0.11144477657E+03  0.00000000000E+00 0.  1.
         24    2    1    2    0    0  0.11920602799E+03  0.47472317250E+02  0.15095763625E+04  0.15174678940E+04  0.86164478132E+02 0.  0.
        254    2    1    2    0    0 -0.11920602799E+03 -0.47472317250E+02  0.18143194525E+04  0.20293174741E+04  0.89995035242E+03 0.  0.
         23    2    4    4    0    0 -0.37201080787E+03 -0.32630937322E+03  0.12286440874E+04  0.13275991670E+04  0.89907766995E+02 0.  0.
         23    2    4    4    0    0  0.25280477988E+03  0.27883705597E+03  0.58567536517E+03  0.70171830711E+03  0.87935138857E+02 0.  0.
          2    1    3    3  502    0  0.65337663333E+02 -0.75283960355E+01  0.41417722663E+03  0.41936673933E+03  0.00000000000E+00 0. -1.
         -1    1    3    3    0  502  0.53868364661E+02  0.55000713285E+02  0.10953991358E+04  0.10981011547E+04  0.00000000000E+00 0.  1.
         13    1    5    5    0    0 -0.35527349521E+03 -0.32590079470E+03  0.11460736751E+04  0.12433484842E+04  0.00000000000E+00 0. -1.
        -13    1    5    5    0    0 -0.16737312662E+02 -0.40857852233E+00  0.82570412251E+02  0.84250682791E+02  0.00000000000E+00 0.  1.
          2    1    6    6  503    0  0.12232795693E+03  0.17664294941E+03  0.39014141665E+03  0.44539553838E+03  0.00000000000E+00 0. -1.
         -2    1    6    6    0  503  0.13047682295E+03  0.10219410657E+03  0.19553394852E+03  0.25632276872E+03  0.00000000000E+00 0.  1.
<mgrwt>
<rscale>  0 0.12374987E+04</rscale>
<asrwt>0</asrwt>
<pdfrwt beam="1">  1        2 0.52851386E+00 0.12374987E+04</pdfrwt>
<pdfrwt beam="2">  1       -1 0.17145353E-01 0.12374987E+04</pdfrwt>
<totfact> 0.27310609E+01</totfact>
</mgrwt>
</event>
<event>
12    7  0.2492439E-007  0.2620809E+04  0.7818608E-02  0.8361167E-01
          2   -1    0    0  501    0  0.00000000000E+00  0.00000000000E+00  0.46247049549E+04  0.46247049549E+04  0.00000000000E+00 0. -1.
         -1   -1    0    0    0  501 -0.00000000000E+00 -0.00000000000E+00 -0.37130150282E+03  0.37130150282E+03  0.00000000000E+00 0.  1.
         24    2    1    2    0    0 -0.70169145323E+03  0.88981107423E+03  0.14449432786E+04  0.18377871897E+04  0.73932624284E+02 0.  0.
        254    2    1    2    0    0  0.70169145323E+03 -0.88981107423E+03  0.28084601735E+04  0.31582192681E+04  0.89597196134E+03 0.  0.
         23    2    4    4    0    0  0.58711678889E+03 -0.14795675509E+03  0.76755401276E+03  0.98179068039E+03  0.90423738120E+02 0.  0.
         23    2    4    4    0    0  0.11457466433E+03 -0.74185431914E+03  0.20409061608E+04  0.21764285877E+04  0.89823469356E+02 0.  0.
          2    1    3    3  502    0 -0.51131677734E+03  0.59501248321E+03  0.98439741969E+03  0.12587783688E+04  0.00000000000E+00 0. -1.
         -1    1    3    3    0  502 -0.19037467588E+03  0.29479859102E+03  0.46054585886E+03  0.57900882083E+03  0.00000000000E+00 0.  1.
         13    1    5    5    0    0  0.29410123980E+03 -0.89037765690E+02  0.45768004243E+03  0.55126607387E+03  0.00000000000E+00 0. -1.
        -13    1    5    5    0    0  0.29301554909E+03 -0.58918989395E+02  0.30987397034E+03  0.43052460651E+03  0.00000000000E+00 0.  1.
          3    1    6    6  503    0  0.92702538429E+02 -0.60285322235E+03  0.15479597349E+04  0.16637923877E+04  0.00000000000E+00 0. -1.
         -3    1    6    6    0  503  0.21872125905E+02 -0.13900109680E+03  0.49294642583E+03  0.51263619999E+03  0.00000000000E+00 0.  1.
<mgrwt>
<rscale>  0 0.26208090E+04</rscale>
<asrwt>0</asrwt>
<pdfrwt beam="1">  1        2 0.71149303E+00 0.26208090E+04</pdfrwt>
<pdfrwt beam="2">  1       -1 0.57123311E-01 0.26208090E+04</pdfrwt>
<totfact> 0.28844175E-01</totfact>
</mgrwt>
</event>
<event>
12    7  0.2492439E-007  0.1111928E+04  0.7818608E-02  0.9193643E-01
          2   -1    0    0  501    0  0.00000000000E+00  0.00000000000E+00  0.78477542457E+03  0.78477542457E+03  0.00000000000E+00 0. -1.
         -1   -1    0    0    0  501 -0.00000000000E+00 -0.00000000000E+00 -0.39386544102E+03  0.39386544102E+03  0.00000000000E+00 0.  1.
         24    2    1    2    0    0  0.38875469957E+02  0.17114441130E+03  0.85812389527E+02  0.21157834905E+03  0.81239891114E+02 0.  0.
        254    2    1    2    0    0 -0.38875469957E+02 -0.17114441130E+03  0.30509759402E+03  0.96706251653E+03  0.90073506500E+03 0.  0.
         23    2    4    4    0    0 -0.36974305702E+03  0.25938065728E+02  0.40690553706E+03  0.55848265115E+03  0.94594101759E+02 0.  0.
         23    2    4    4    0    0  0.33086758706E+03 -0.19708247702E+03 -0.10180794304E+03  0.40857986538E+03  0.90872362200E+02 0.  0.
          2    1    3    3  502    0  0.14253888536E+02  0.16260834715E+03  0.57412208451E+02  0.17303412837E+03  0.00000000000E+00 0. -1.
         -3    1    3    3    0  502  0.24621581421E+02  0.85360641465E+01  0.28400181076E+02  0.38544220681E+02  0.00000000000E+00 0.  1.
         13    1    5    5    0    0 -0.15849453183E+01  0.14093216522E+02  0.14805010399E+02  0.20501686187E+02  0.00000000000E+00 0.  1.
        -13    1    5    5    0    0 -0.36815811170E+03  0.11844849206E+02  0.39210052666E+03  0.53798096497E+03  0.00000000000E+00 0. -1.
          4    1    6    6  503    0  0.12641902793E+03 -0.26098807491E+02 -0.37185108714E+02  0.13433410098E+03  0.00000000000E+00 0. -1.
         -4    1    6    6    0  503  0.20444855913E+03 -0.17098366953E+03 -0.64622834322E+02  0.27424576440E+03  0.00000000000E+00 0.  1.
<mgrwt>
<rscale>  0 0.11119279E+04</rscale>
<asrwt>0</asrwt>
<pdfrwt beam="1">  1        2 0.12073468E+00 0.11119279E+04</pdfrwt>
<pdfrwt beam="2">  1       -1 0.60594683E-01 0.11119279E+04</pdfrwt>
<totfact> 0.11055437E+02</totfact>
</mgrwt>
</event>
<event>
12    7  0.2492439E-007  0.2285665E+04  0.7818608E-02  0.8483595E-01
         -1   -1    0    0    0  501 -0.00000000000E+00  0.00000000000E+00  0.86625548543E+03  0.86625548543E+03  0.00000000000E+00 0.  1.
          2   -1    0    0  501    0  0.00000000000E+00 -0.00000000000E+00 -0.15077145014E+04  0.15077145014E+04  0.00000000000E+00 0. -1.
         24    2    1    2    0    0 -0.91798855634E+03  0.18231263265E+03 -0.33604144834E+02  0.93985546353E+03  0.79108584712E+02 0.  0.
        254    2    1    2    0    0  0.91798855634E+03 -0.18231263265E+03 -0.60785487110E+03  0.14341145233E+04  0.90069752743E+03 0.  0.
         23    2    4    4    0    0  0.10317913838E+04 -0.32336758642E+03 -0.57840656603E+03  0.12296741701E+04  0.91566113708E+02 0.  0.
         23    2    4    4    0    0 -0.11380282749E+03  0.14105495377E+03 -0.29448305067E+02  0.20444035321E+03  0.89894781946E+02 0.  0.
          4    1    3    3  502    0 -0.34212378489E+03  0.29280350949E+02 -0.87616571784E+01  0.34348622938E+03  0.00000000000E+00 0. -1.
         -3    1    3    3    0  502 -0.57586477145E+03  0.15303228170E+03 -0.24842487656E+02  0.59636923414E+03  0.00000000000E+00 0.  1.
         13    1    5    5    0    0  0.32924549556E+03 -0.14836427491E+03 -0.19108217390E+03  0.40856694873E+03  0.00000000000E+00 0. -1.
        -13    1    5    5    0    0  0.70254588827E+03 -0.17500331151E+03 -0.38732439213E+03  0.82110722132E+03  0.00000000000E+00 0.  1.
          3    1    6    6  503    0 -0.49183827013E+02  0.12392971617E+03 -0.33470780850E+02  0.13746969324E+03  0.00000000000E+00 0. -1.
         -3    1    6    6    0  503 -0.64619000474E+02  0.17125237607E+02  0.40224757825E+01  0.66970659970E+02  0.00000000000E+00 0.  1.
<mgrwt>
<rscale>  0 0.22856649E+04</rscale>
<asrwt>0</asrwt>
<pdfrwt beam="1">  1        2 0.23195608E+00 0.22856649E+04</pdfrwt>
<pdfrwt beam="2">  1       -1 0.13327007E+00 0.22856649E+04</pdfrwt>
<totfact> 0.61867538E+00</totfact>
</mgrwt>
</event>
<event>
12    7  0.2492439E-007  0.1852352E+04  0.7818608E-02  0.8678944E-01
          2   -1    0    0  501    0  0.00000000000E+00  0.00000000000E+00  0.10873439685E+04  0.10873439685E+04  0.00000000000E+00 0. -1.
         -1   -1    0    0    0  501 -0.00000000000E+00 -0.00000000000E+00 -0.78889681512E+03  0.78889681512E+03  0.00000000000E+00 0.  1.
         24    2    1    2    0    0 -0.26538143942E+03  0.65214070967E+03  0.55823043843E+02  0.71158239038E+03  0.86709125642E+02 0.  0.
        254    2    1    2    0    0  0.26538143942E+03 -0.65214070967E+03  0.24262410951E+03  0.11646583932E+04  0.89545960310E+03 0.  0.
         23    2    4    4    0    0  0.28875100841E+03  0.14060320759E+03  0.12688382431E+03  0.35799824791E+03  0.94428988080E+02 0.  0.
         23    2    4    4    0    0 -0.23369568989E+02 -0.79274391727E+03  0.11574028520E+03  0.80666014531E+03  0.91190576787E+02 0.  0.
          4    1    3    3  502    0 -0.14415318526E+03  0.29701803350E+03  0.63771021408E+02  0.33625376758E+03  0.00000000000E+00 0. -1.
         -3    1    3    3    0  502 -0.12122825417E+03  0.35512267617E+03 -0.79479775648E+01  0.37532862280E+03  0.00000000000E+00 0.  1.
         13    1    5    5    0    0  0.10032610552E+02  0.73716175043E+01  0.32770480182E+02  0.35055647055E+02  0.00000000000E+00 0. -1.
        -13    1    5    5    0    0  0.27871839786E+03  0.13323159009E+03  0.94113344129E+02  0.32294260085E+03  0.00000000000E+00 0.  1.
          1    1    6    6  503    0 -0.14097688797E+02 -0.39376545990E+03  0.11502744870E+02  0.39418561031E+03  0.00000000000E+00 0. -1.
         -1    1    6    6    0  503 -0.92718801925E+01 -0.39897845737E+03  0.10423754033E+03  0.41247453500E+03  0.00000000000E+00 0.  1.
<mgrwt>
<rscale>  0 0.18523522E+04</rscale>
<asrwt>0</asrwt>
<pdfrwt beam="1">  1        2 0.16728369E+00 0.18523522E+04</pdfrwt>
<pdfrwt beam="2">  1       -1 0.12136874E+00 0.18523522E+04</pdfrwt>
<totfact> 0.14322301E+01</totfact>
</mgrwt>
</event>
<event>
12    7  0.2492439E-007  0.2708136E+04  0.7818608E-02  0.8332370E-01
          2   -1    0    0  501    0  0.00000000000E+00  0.00000000000E+00  0.10857719842E+04  0.10857719842E+04  0.00000000000E+00 0. -1.
         -1   -1    0    0    0  501 -0.00000000000E+00 -0.00000000000E+00 -0.16886604600E+04  0.16886604600E+04  0.00000000000E+00 0.  1.
         24    2    1    2    0    0  0.11136795331E+04  0.38606423667E+03 -0.12698091308E+02  0.11814646229E+04  0.79810502956E+02 0.  0.
        254    2    1    2    0    0 -0.11136795331E+04 -0.38606423667E+03 -0.59019038448E+03  0.15929678213E+04  0.89436798489E+03 0.  0.
         23    2    4    4    0    0 -0.49037944112E+03  0.85158642457E+02 -0.62670264160E+03  0.80543836600E+03  0.90833747997E+02 0.  0.
         23    2    4    4    0    0 -0.62330009198E+03 -0.47122287913E+03  0.36512257121E+02  0.78752945527E+03  0.91189316928E+02 0.  0.
          2    1    3    3  502    0  0.76673377890E+03  0.25130442111E+03  0.25808088879E+02  0.80727978869E+03  0.00000000000E+00 0. -1.
         -1    1    3    3    0  502  0.34694575420E+03  0.13475981556E+03 -0.38506180186E+02  0.37418483422E+03  0.00000000000E+00 0.  1.
         13    1    5    5    0    0 -0.22642899468E+03  0.13941953677E+02 -0.34484240968E+03  0.41277203783E+03  0.00000000000E+00 0.  1.
        -13    1    5    5    0    0 -0.26395044643E+03  0.71216688781E+02 -0.28186023193E+03  0.39266632817E+03  0.00000000000E+00 0. -1.
          2    1    6    6  503    0 -0.52354874146E+03 -0.38415417534E+03 -0.29301142877E+01  0.64937377579E+03  0.00000000000E+00 0. -1.
         -2    1    6    6    0  503 -0.99751350523E+02 -0.87068703796E+02  0.39442371409E+02  0.13815567949E+03  0.00000000000E+00 0.  1.
<mgrwt>
<rscale>  0 0.27081361E+04</rscale>
<asrwt>0</asrwt>
<pdfrwt beam="1">  1        2 0.16704184E+00 0.27081361E+04</pdfrwt>
<pdfrwt beam="2">  1       -1 0.25979392E+00 0.27081361E+04</pdfrwt>
<totfact> 0.13370029E+00</totfact>
</mgrwt>
</event>
<event>
12    7  0.2492439E-007  0.1915446E+04  0.7818608E-02  0.8647206E-01
         -1   -1    0    0    0  501 -0.00000000000E+00  0.00000000000E+00  0.59819998559E+03  0.59819998559E+03  0.00000000000E+00 0.  1.
          2   -1    0    0  501    0  0.00000000000E+00 -0.00000000000E+00 -0.15333224404E+04  0.15333224404E+04  0.00000000000E+00 0. -1.
         24    2    1    2    0    0  0.64552386825E+03  0.36422994631E+03 -0.43368509284E+03  0.86231982152E+03  0.78410436615E+02 0.  0.
        254    2    1    2    0    0 -0.64552386825E+03 -0.36422994631E+03 -0.50143736195E+03  0.12692026045E+04  0.90003961298E+03 0.  0.
         23    2    4    4    0    0 -0.78322298386E+03 -0.43815332347E+03 -0.57935849090E+03  0.10720063751E+04  0.90137838688E+02 0.  0.
         23    2    4    4    0    0  0.13769911562E+03  0.73923377157E+02  0.77921128948E+02  0.19719622935E+03  0.91591148058E+02 0.  0.
          2    1    3    3  502    0  0.34764609729E+03  0.23470067155E+03 -0.26704083875E+03  0.49724543613E+03  0.00000000000E+00 0. -1.
         -3    1    3    3    0  502  0.29787777096E+03  0.12952927475E+03 -0.16664425409E+03  0.36507438540E+03  0.00000000000E+00 0.  1.
         13    1    5    5    0    0 -0.28324661442E+03 -0.19302329699E+03 -0.18340870106E+03  0.38874849117E+03  0.00000000000E+00 0. -1.
        -13    1    5    5    0    0 -0.49997636945E+03 -0.24513002648E+03 -0.39594978984E+03  0.68325788393E+03  0.00000000000E+00 0.  1.
          4    1    6    6  503    0  0.10018378363E+03  0.16162204947E+02  0.12575762703E+02  0.10225535281E+03  0.00000000000E+00 0. -1.
         -4    1    6    6    0  503  0.37515331991E+02  0.57761172210E+02  0.65345366245E+02  0.94940876545E+02  0.00000000000E+00 0.  1.
<mgrwt>
<rscale>  0 0.19154461E+04</rscale>
<asrwt>0</asrwt>
<pdfrwt beam="1">  1        2 0.23589576E+00 0.19154461E+04</pdfrwt>
<pdfrwt beam="2">  1       -1 0.92030768E-01 0.19154461E+04</pdfrwt>
<totfact> 0.14893479E+01</totfact>
</mgrwt>
</event>
<event>
12    7  0.2492439E-007  0.2203695E+04  0.7818608E-02  0.8516892E-01
          2   -1    0    0  501    0  0.00000000000E+00  0.00000000000E+00  0.15591934624E+04  0.15591934624E+04  0.00000000000E+00 0. -1.
         -1   -1    0    0    0  501 -0.00000000000E+00 -0.00000000000E+00 -0.77865124375E+03  0.77865124375E+03  0.00000000000E+00 0.  1.
         24    2    1    2    0    0 -0.79371942666E+03  0.33608871140E+03 -0.35374316672E+01  0.86556044877E+03  0.78969784556E+02 0.  0.
        254    2    1    2    0    0  0.79371942666E+03 -0.33608871140E+03  0.78407965029E+03  0.14722842574E+04  0.89994104600E+03 0.  0.
         23    2    4    4    0    0  0.65489076571E+03 -0.10898334579E+03  0.33908281866E+02  0.67120835284E+03  0.92798688968E+02 0.  0.
         23    2    4    4    0    0  0.13882866094E+03 -0.22710536561E+03  0.75017136842E+03  0.80107590451E+03  0.90084841130E+02 0.  0.
          4    1    3    3  502    0 -0.23138894326E+03  0.91416535865E+02  0.34272847326E+02  0.25114229862E+03  0.00000000000E+00 0. -1.
         -3    1    3    3    0  502 -0.56233048340E+03  0.24467217553E+03 -0.37810278993E+02  0.61441815015E+03  0.00000000000E+00 0.  1.
         13    1    5    5    0    0  0.14959130259E+03 -0.47320259318E+02 -0.24580945030E+02  0.15881116967E+03  0.00000000000E+00 0. -1.
        -13    1    5    5    0    0  0.50529946312E+03 -0.61663086471E+02  0.58489226897E+02  0.51239718318E+03  0.00000000000E+00 0.  1.
          2    1    6    6  503    0  0.51444195073E+01 -0.76540554840E+02  0.15862101119E+03  0.17619746530E+03  0.00000000000E+00 0. -1.
         -2    1    6    6    0  503  0.13368424144E+03 -0.15056481077E+03  0.59155035723E+03  0.62487843921E+03  0.00000000000E+00 0.  1.
<mgrwt>
<rscale>  0 0.22036950E+04</rscale>
<asrwt>0</asrwt>
<pdfrwt beam="1">  1        2 0.23987592E+00 0.22036950E+04</pdfrwt>
<pdfrwt beam="2">  1       -1 0.11979250E+00 0.22036950E+04</pdfrwt>
<totfact> 0.76072137E+00</totfact>
</mgrwt>
</event>
<event>
12    7  0.2492439E-007  0.1989120E+04  0.7818608E-02  0.8611724E-01
         -1   -1    0    0    0  501 -0.00000000000E+00  0.00000000000E+00  0.54975500439E+03  0.54975500439E+03  0.00000000000E+00 0.  1.
          2   -1    0    0  501    0  0.00000000000E+00 -0.00000000000E+00 -0.17992557307E+04  0.17992557307E+04  0.00000000000E+00 0. -1.
         24    2    1    2    0    0  0.59919527361E+03 -0.38868417795E+02 -0.11004598338E+04  0.12561401428E+04  0.79564330671E+02 0.  0.
        254    2    1    2    0    0 -0.59919527361E+03  0.38868417795E+02 -0.14904089254E+03  0.10928705923E+04  0.90089245423E+03 0.  0.
         23    2    4    4    0    0 -0.16451634354E+03 -0.31389569092E+03  0.21024358440E+03  0.42181319987E+03  0.90154748815E+02 0.  0.
         23    2    4    4    0    0 -0.43467893007E+03  0.35276410872E+03 -0.35928447694E+03  0.67105739245E+03  0.88568617163E+02 0.  0.
          4    1    3    3  502    0  0.31358436254E+03 -0.14568579130E+02 -0.65634931207E+03  0.72755880545E+03  0.00000000000E+00 0. -1.
         -3    1    3    3    0  502  0.28561091107E+03 -0.24299838665E+02 -0.44411052172E+03  0.52858133735E+03  0.00000000000E+00 0.  1.
         13    1    5    5    0    0 -0.15399657982E+03 -0.22028116621E+03  0.17743901211E+03  0.32206108396E+03  0.00000000000E+00 0.  1.
        -13    1    5    5    0    0 -0.10519763719E+02 -0.93614524708E+02  0.32804572289E+02  0.99752115908E+02  0.00000000000E+00 0. -1.
          1    1    6    6  503    0 -0.21955694591E+03  0.14727720162E+03 -0.12527705142E+03  0.29255797071E+03  0.00000000000E+00 0. -1.
         -1    1    6    6    0  503 -0.21512198416E+03  0.20548690710E+03 -0.23400742553E+03  0.37849942174E+03  0.00000000000E+00 0.  1.
<mgrwt>
<rscale>  0 0.19891202E+04</rscale>
<asrwt>0</asrwt>
<pdfrwt beam="1">  1        2 0.27680857E+00 0.19891202E+04</pdfrwt>
<pdfrwt beam="2">  1       -1 0.84577695E-01 0.19891202E+04</pdfrwt>
<totfact> 0.12657300E+01</totfact>
</mgrwt>
</event>
<event>
12    7  0.2492439E-007  0.1863292E+04  0.7818608E-02  0.8673347E-01
         -1   -1    0    0    0  501 -0.00000000000E+00  0.00000000000E+00  0.63563753116E+03  0.63563753116E+03  0.00000000000E+00 0.  1.
          2   -1    0    0  501    0  0.00000000000E+00 -0.00000000000E+00 -0.13655025441E+04  0.13655025441E+04  0.00000000000E+00 0. -1.
         24    2    1    2    0    0  0.35672240616E+03  0.44971400235E+03  0.17129967220E+03  0.60440409115E+03  0.80418708848E+02 0.  0.
        254    2    1    2    0    0 -0.35672240616E+03 -0.44971400235E+03 -0.90116468517E+03  0.13967359842E+04  0.89959994479E+03 0.  0.
         23    2    4    4    0    0  0.11464259309E+03  0.20503251230E+03 -0.26348015589E+03  0.36408916175E+03  0.89206893804E+02 0.  0.
         23    2    4    4    0    0 -0.47136499925E+03 -0.65474651465E+03 -0.63768452927E+03  0.10326468224E+04  0.94020954991E+02 0.  0.
          2    1    3    3  502    0  0.66569419861E+02  0.12549989532E+03  0.18495324293E+02  0.14326125927E+03  0.00000000000E+00 0. -1.
         -1    1    3    3    0  502  0.29015298629E+03  0.32421410703E+03  0.15280434791E+03  0.46114283188E+03  0.00000000000E+00 0.  1.
         13    1    5    5    0    0  0.11106942443E+03  0.21309839590E+03 -0.26130364838E+03  0.35500273244E+03  0.00000000000E+00 0.  1.
        -13    1    5    5    0    0  0.35731686612E+01 -0.80658836061E+01 -0.21765075086E+01  0.90864293077E+01  0.00000000000E+00 0. -1.
          2    1    6    6  503    0 -0.24149764288E+03 -0.27838467953E+03 -0.24869451857E+03  0.44459881340E+03  0.00000000000E+00 0. -1.
         -2    1    6    6    0  503 -0.22986735637E+03 -0.37636183512E+03 -0.38899001070E+03  0.58804800900E+03  0.00000000000E+00 0.  1.
<mgrwt>
<rscale>  0 0.18632924E+04</rscale>
<asrwt>0</asrwt>
<pdfrwt beam="1">  1        2 0.21007731E+00 0.18632924E+04</pdfrwt>
<pdfrwt beam="2">  1       -1 0.97790390E-01 0.18632924E+04</pdfrwt>
<totfact> 0.16264448E+01</totfact>
</mgrwt>
</event>
